/*--------------------------------*- C++ -*----------------------------------*\
| =========                 |                                                 |
| \\      /  F ield         | OpenFOAM: The Open Source CFD Toolbox           |
|  \\    /   O peration     | Version:  2306                                  |
|   \\  /    A nd           | Website:  www.openfoam.com                      |
|    \\/     M anipulation  |                                                 |
\*---------------------------------------------------------------------------*/
FoamFile
{
    version     2.0;
    format      ascii;
    arch        "LSB;label=32;scalar=64";
    class       volScalarField;
    location    "4";
    object      p;
}
// * * * * * * * * * * * * * * * * * * * * * * * * * * * * * * * * * * * * * //

dimensions      [0 2 -2 0 0 0 0];

internalField   nonuniform List<scalar> 
60000
(
-1.84847e-06
-7.94044e-05
-0.000120003
-0.000102607
-5.8055e-05
-2.52804e-05
-9.64424e-06
3.80738e-06
1.50625e-05
7.88889e-06
-1.74121e-05
-3.23167e-05
-1.26616e-05
3.64078e-05
9.36512e-05
0.00012578
0.000107966
5.99976e-05
1.93519e-05
-1.53042e-05
-6.50516e-05
-0.000124258
-0.000156944
-0.000133697
-6.23714e-05
1.71872e-05
6.47134e-05
7.0039e-05
3.88006e-05
3.52298e-06
2.54545e-05
9.12068e-05
0.000135884
0.000141019
0.000125274
0.000101794
7.43453e-05
5.73645e-05
5.72758e-05
5.04167e-05
3.03043e-08
-7.89175e-05
-0.000121228
-0.000104743
-6.00097e-05
-2.62926e-05
-1.01184e-05
3.24118e-06
1.42184e-05
6.78572e-06
-1.8831e-05
-3.39044e-05
-1.42028e-05
3.50127e-05
9.25751e-05
0.000125325
0.000108131
6.04593e-05
2.02267e-05
-1.44839e-05
-6.43927e-05
-0.00012409
-0.000157588
-0.000134847
-6.36105e-05
1.59824e-05
6.33186e-05
6.88285e-05
3.78188e-05
2.13359e-06
2.32964e-05
8.99268e-05
0.000135539
0.000141351
0.000126408
0.000103288
7.61102e-05
5.90494e-05
5.8689e-05
5.22962e-05
7.83067e-07
-8.07519e-05
-0.000125154
-0.000109272
-6.34884e-05
-2.79774e-05
-1.07449e-05
2.69302e-06
1.36188e-05
6.11523e-06
-1.99683e-05
-3.58662e-05
-1.67856e-05
3.25089e-05
9.10221e-05
0.000125293
0.000109188
6.16168e-05
2.09888e-05
-1.37645e-05
-6.40217e-05
-0.000125024
-0.00015937
-0.000136694
-6.4947e-05
1.49458e-05
6.18076e-05
6.73394e-05
3.62216e-05
-6.16763e-07
1.98617e-05
8.76014e-05
0.000134567
0.000141088
0.00012709
0.000104855
7.74726e-05
5.96958e-05
5.96283e-05
5.31873e-05
4.42559e-07
-8.53809e-05
-0.000132248
-0.000116552
-6.89087e-05
-3.06982e-05
-1.17536e-05
2.06314e-06
1.31878e-05
5.85335e-06
-2.0752e-05
-3.79348e-05
-2.01763e-05
2.88156e-05
8.88679e-05
0.000125828
0.00011147
6.37216e-05
2.23365e-05
-1.30174e-05
-6.44637e-05
-0.000127516
-0.000162312
-0.000139014
-6.58996e-05
1.48038e-05
6.06203e-05
6.54022e-05
3.35691e-05
-5.06709e-06
1.48627e-05
8.45508e-05
0.000133105
0.000139999
0.000127223
0.000106481
7.92385e-05
5.92051e-05
5.93354e-05
5.31222e-05
3.11102e-07
-9.19665e-05
-0.000141633
-0.000126088
-7.65433e-05
-3.49289e-05
-1.35038e-05
1.14671e-06
1.28279e-05
6.00334e-06
-2.08185e-05
-3.9216e-05
-2.33857e-05
2.43269e-05
8.55743e-05
0.000126294
0.000114865
6.70474e-05
2.44933e-05
-1.20451e-05
-6.51281e-05
-0.0001301
-0.000166559
-0.000142414
-6.79083e-05
1.38832e-05
5.89877e-05
6.27986e-05
2.95218e-05
-1.13023e-05
8.90013e-06
8.15821e-05
0.000131892
0.000138329
0.000126545
0.000108205
8.14018e-05
5.91865e-05
5.86166e-05
5.3595e-05
2.58718e-06
-0.00010059
-0.000153056
-0.000137588
-8.67593e-05
-4.13835e-05
-1.63438e-05
-1.28993e-07
1.22241e-05
6.1674e-06
-2.0344e-05
-3.90328e-05
-2.48906e-05
2.05855e-05
8.15032e-05
0.000125953
0.000118921
7.17867e-05
2.79921e-05
-1.0269e-05
-6.58904e-05
-0.000134151
-0.000173569
-0.000149319
-7.30117e-05
8.49272e-06
5.0086e-05
5.54077e-05
2.34856e-05
-1.81078e-05
2.30129e-06
7.94258e-05
0.000132303
0.000137453
0.000125641
0.000110219
8.46245e-05
6.00042e-05
5.87529e-05
5.88682e-05
1.30352e-05
-0.000101763
-0.000168183
-0.000154854
-0.00010182
-5.19431e-05
-2.14041e-05
-1.75309e-06
1.17216e-05
5.49032e-06
-2.04173e-05
-3.74593e-05
-2.39304e-05
1.96242e-05
7.84504e-05
0.000124941
0.000123067
7.78448e-05
3.32612e-05
-6.91115e-06
-6.61962e-05
-0.000139802
-0.000184623
-0.000162044
-8.1755e-05
1.62116e-06
3.75667e-05
3.80538e-05
8.98606e-06
-3.01958e-05
-5.94619e-06
7.73024e-05
0.000134728
0.000139442
0.000126641
0.000113259
8.88784e-05
6.17097e-05
5.9005e-05
6.72374e-05
3.27068e-05
-9.20167e-05
-0.000181936
-0.000177743
-0.000124805
-6.8499e-05
-3.02862e-05
-5.57285e-06
1.1277e-05
4.9252e-06
-2.33753e-05
-3.87557e-05
-2.07492e-05
2.25232e-05
7.92158e-05
0.000124821
0.000127134
8.48288e-05
4.03408e-05
-1.71496e-06
-6.5668e-05
-0.000145744
-0.000195387
-0.000173494
-8.7881e-05
2.39228e-06
3.62193e-05
2.40793e-05
-1.23391e-05
-5.10112e-05
-1.92236e-05
7.21837e-05
0.000133905
0.000141375
0.000132209
0.000120514
9.3987e-05
6.08096e-05
5.50669e-05
7.56931e-05
5.90606e-05
-7.10195e-05
-0.000189826
-0.000207758
-0.000155635
-9.17561e-05
-4.23712e-05
-1.18336e-05
8.11896e-06
3.99744e-06
-2.59861e-05
-4.35851e-05
-2.37766e-05
2.3978e-05
8.45939e-05
0.000127961
0.000131557
9.21982e-05
4.88857e-05
4.78132e-06
-6.44568e-05
-0.00015044
-0.000199291
-0.000171845
-7.76541e-05
2.15602e-05
5.39515e-05
2.54214e-05
-3.12255e-05
-8.11419e-05
-4.14117e-05
6.45941e-05
0.000132414
0.000137813
0.000128504
0.000123345
9.91933e-05
5.95349e-05
4.57828e-05
7.92116e-05
8.81263e-05
-3.53587e-05
-0.00018743
-0.000233662
-0.00019629
-0.000123326
-5.8959e-05
-1.98413e-05
3.37153e-06
1.04941e-06
-2.90514e-05
-4.70437e-05
-2.85565e-05
1.50739e-05
7.60243e-05
0.000127862
0.000135629
9.87298e-05
5.8085e-05
1.22754e-05
-6.34075e-05
-0.000155996
-0.000198088
-0.000157481
-4.92898e-05
6.48581e-05
9.80104e-05
4.64039e-05
-4.21758e-05
-0.000114036
-7.06475e-05
4.9414e-05
0.00012464
0.000130889
0.000123508
0.000120408
0.000100651
6.0426e-05
3.79739e-05
7.74865e-05
0.000113141
1.41276e-05
-0.000162845
-0.000245112
-0.000230852
-0.000158054
-8.28442e-05
-2.89127e-05
-5.19442e-07
-2.06602e-07
-2.97888e-05
-5.07922e-05
-3.73603e-05
3.94548e-06
5.70516e-05
0.000107463
0.000125642
0.000100046
6.53346e-05
1.905e-05
-6.13033e-05
-0.000163657
-0.000197445
-0.000140969
-1.81331e-05
0.000117776
0.000164283
9.29002e-05
-3.38079e-05
-0.000129725
-0.000100121
2.51213e-05
0.000104827
0.000107388
0.00011518
0.000122701
0.000106097
7.13804e-05
3.9892e-05
7.52246e-05
0.000128785
6.25758e-05
-0.000115644
-0.000230817
-0.000245632
-0.000197285
-0.000115224
-4.23401e-05
-1.79147e-06
7.30378e-07
-2.73041e-05
-4.87786e-05
-4.07163e-05
-4.62718e-06
4.06657e-05
7.84542e-05
9.42242e-05
7.89499e-05
5.90848e-05
2.18927e-05
-6.81919e-05
-0.000163661
-0.000189586
-0.000127324
-2.88882e-06
0.000148657
0.000225911
0.000160065
5.42196e-06
-0.000119932
-0.000117983
-3.67925e-06
7.46597e-05
8.65854e-05
0.000104427
0.000125888
0.000119525
9.46926e-05
6.81378e-05
8.00283e-05
0.000130936
9.40589e-05
-5.87985e-05
-0.000190393
-0.000233674
-0.000216664
-0.000149757
-6.01465e-05
-5.98024e-06
1.97642e-06
-2.34649e-05
-4.83038e-05
-3.77062e-05
-6.58579e-06
3.21912e-05
5.99992e-05
6.24547e-05
3.86171e-05
2.8822e-05
1.09014e-05
-5.90304e-05
-0.000146779
-0.000156962
-0.000112005
3.23818e-06
0.000133628
0.000248
0.000220838
7.01483e-05
-7.5564e-05
-0.000114032
-2.62684e-05
4.25799e-05
6.4872e-05
9.48169e-05
0.000124972
0.000129794
0.000121448
0.000101756
8.98852e-05
0.000116808
0.000104677
-4.5833e-06
-0.00012993
-0.000195148
-0.000210358
-0.00016754
-7.13411e-05
-9.99172e-06
8.70442e-07
-2.1714e-05
-4.86701e-05
-4.25802e-05
-9.39408e-06
2.80666e-05
5.49194e-05
4.87171e-05
1.27377e-05
-4.03637e-06
-4.78181e-06
-5.31327e-05
-0.000115647
-0.00013945
-9.90173e-05
-3.27267e-06
0.000110159
0.000228643
0.000247067
0.000130668
-1.07149e-05
-7.40597e-05
-3.95459e-05
1.54388e-05
4.74217e-05
8.51235e-05
0.000123
0.000125501
0.000135366
0.00012168
9.22907e-05
9.51193e-05
0.000102963
4.41995e-05
-5.74441e-05
-0.000135289
-0.000181037
-0.000165541
-8.33497e-05
-1.0136e-05
9.99941e-07
-2.2249e-05
-4.94762e-05
-4.8422e-05
-1.90897e-05
2.04917e-05
5.35043e-05
5.33096e-05
1.89323e-05
-6.12726e-06
-6.6008e-06
-4.4383e-05
-0.000100514
-0.000125431
-8.63566e-05
-1.51791e-05
7.57446e-05
0.000192285
0.00024586
0.000169068
4.47936e-05
-3.59091e-05
-4.00335e-05
-5.46278e-06
3.31654e-05
7.39872e-05
0.000112422
0.000127499
0.000100879
0.000127713
0.00010165
7.34017e-05
9.50362e-05
7.63907e-05
8.4304e-06
-6.61308e-05
-0.000135207
-0.000146963
-7.92508e-05
-1.04168e-05
-9.20866e-08
-2.99278e-05
-5.20715e-05
-4.9348e-05
-2.51535e-05
1.03405e-05
4.35736e-05
5.42583e-05
3.3958e-05
6.74125e-06
1.37017e-06
-2.82441e-05
-8.39995e-05
-0.000112707
-6.03461e-05
-8.58619e-06
4.29123e-05
0.000142636
0.000217468
0.000185283
8.29083e-05
-4.23912e-06
-3.53152e-05
-1.99715e-05
1.64873e-05
5.27599e-05
9.29514e-05
0.000127579
9.98386e-05
0.000129959
0.00010304
8.31885e-05
8.42611e-05
8.35127e-05
4.06353e-05
-1.31691e-05
-7.95473e-05
-0.000110461
-6.45014e-05
-7.22079e-06
-3.83093e-06
-3.1987e-05
-6.28755e-05
-5.75057e-05
-3.14118e-05
5.45992e-06
3.77873e-05
4.88626e-05
3.72097e-05
1.43482e-05
3.16815e-06
-1.65005e-05
-5.62693e-05
-9.1647e-05
-2.41704e-05
1.27847e-05
3.60902e-05
9.58761e-05
0.000167905
0.000171489
0.000107709
2.92942e-05
-2.38271e-05
-3.01253e-05
3.49777e-06
3.95353e-05
7.7171e-05
9.91994e-05
9.95709e-05
0.000134831
0.000108016
7.4594e-05
6.55324e-05
6.68371e-05
6.20134e-05
2.30698e-05
-2.18849e-05
-5.67755e-05
-4.10828e-05
-9.43436e-06
-1.14033e-05
-4.7898e-05
-7.12627e-05
-6.53574e-05
-3.96576e-05
-4.7179e-06
3.29592e-05
5.40507e-05
4.76346e-05
1.76473e-05
2.88984e-06
-1.42855e-05
-6.49732e-05
-7.7565e-05
-2.46449e-05
2.36488e-05
3.98583e-05
7.12963e-05
0.000131784
0.000147282
0.000105541
3.59856e-05
-2.02945e-05
-3.22755e-05
-3.17351e-06
4.34889e-05
8.28774e-05
0.000108442
0.000127688
0.000134989
0.000104077
5.23219e-05
3.80296e-05
4.15782e-05
3.15435e-05
1.54279e-05
-9.09984e-07
-9.61066e-07
3.90986e-06
2.40286e-06
-1.98378e-05
-5.72165e-05
-8.03723e-05
-7.87393e-05
-6.10215e-05
-3.09896e-05
5.38951e-06
4.27641e-05
5.8031e-05
3.94294e-05
2.09245e-05
9.26461e-06
-1.96459e-05
-4.72522e-05
-3.24643e-05
1.30622e-05
3.78258e-05
5.7313e-05
0.000120602
0.000142343
0.000101194
2.38468e-05
-2.67544e-05
-2.74816e-05
1.88535e-06
3.74764e-05
7.87899e-05
0.00011626
0.000137871
0.000132684
9.42519e-05
4.27185e-05
1.42857e-05
-3.38304e-06
1.58494e-06
-6.72267e-08
-4.79204e-06
-5.44859e-06
4.09127e-06
1.19484e-05
-9.84404e-06
-4.24668e-05
-6.51621e-05
-7.37307e-05
-7.32044e-05
-6.76134e-05
-4.68969e-05
-9.87207e-06
2.08927e-05
2.09071e-05
2.10687e-05
3.25196e-05
2.89451e-05
-8.44833e-06
-3.42323e-05
-1.55406e-05
1.31379e-05
4.11006e-05
0.000106691
0.00013204
9.79288e-05
2.00477e-05
-3.33139e-05
-4.4609e-05
-1.46442e-05
1.99735e-05
6.26312e-05
0.000105867
0.000124233
0.000110954
7.84922e-05
5.69903e-05
1.76155e-05
-2.23062e-05
-4.84708e-05
-4.32787e-05
-2.5884e-05
1.37044e-06
1.82951e-05
8.86162e-06
-2.04915e-05
-4.59224e-05
-5.68791e-05
-6.18514e-05
-7.02584e-05
-8.29768e-05
-7.86089e-05
-5.40141e-05
-2.26227e-05
-4.65368e-06
9.42718e-06
2.75686e-05
3.42395e-05
1.38989e-05
-4.12975e-05
-4.00382e-05
-9.60009e-06
3.85953e-05
0.000118025
0.000121795
9.57038e-05
-2.45117e-07
-8.30301e-05
-0.000106193
-6.34822e-05
-4.41768e-06
4.89668e-05
9.35425e-05
0.000113394
0.000107566
8.2659e-05
6.74169e-05
6.39072e-05
3.88666e-05
-4.15302e-06
-3.13182e-05
-3.45359e-05
-1.32492e-05
9.73096e-06
7.19647e-06
-1.77544e-05
-4.12101e-05
-5.34665e-05
-5.95876e-05
-6.483e-05
-6.89807e-05
-6.95704e-05
-6.64364e-05
-5.35292e-05
-3.63748e-05
-5.90499e-06
2.44016e-05
3.96287e-05
2.5696e-05
-1.00472e-05
-2.72559e-05
-1.17156e-05
3.15597e-05
0.000118354
0.000188161
0.000123539
1.33953e-05
-9.09865e-05
-0.000142533
-0.000115093
-4.67611e-05
3.50795e-05
9.56695e-05
0.000111717
0.000102117
6.5082e-05
4.78905e-05
5.5227e-05
4.89405e-05
3.00406e-05
4.94589e-06
-1.70819e-05
-2.73928e-05
-1.90416e-05
-2.0536e-05
-2.94745e-05
-3.42524e-05
-3.883e-05
-4.93555e-05
-5.78199e-05
-5.37034e-05
-4.34114e-05
-3.60512e-05
-3.42082e-05
-2.96645e-05
-7.55951e-06
2.06599e-05
3.85163e-05
3.33156e-05
8.41487e-06
-8.74553e-06
1.22186e-06
3.7746e-05
9.06479e-05
0.000135151
0.000112441
3.80299e-05
-4.43103e-05
-9.31936e-05
-9.102e-05
-4.72299e-05
1.3325e-05
6.52893e-05
8.74113e-05
8.16948e-05
6.69818e-05
6.21201e-05
6.87878e-05
5.6515e-05
2.10069e-05
-2.21112e-05
-5.18009e-05
-6.14522e-05
-5.27453e-05
-3.9872e-05
-2.61269e-05
-1.43265e-05
-8.49969e-06
-1.66709e-05
-3.32174e-05
-4.57731e-05
-5.00938e-05
-4.57767e-05
-3.26704e-05
-1.07226e-05
1.26646e-05
3.14613e-05
4.587e-05
4.7448e-05
3.09627e-05
6.107e-06
-1.02063e-05
1.38766e-06
4.06603e-05
8.1677e-05
8.99311e-05
4.76065e-05
-1.70006e-05
-6.5816e-05
-7.35934e-05
-5.22922e-05
-8.7112e-06
3.4858e-05
5.85798e-05
6.09193e-05
7.27048e-05
5.80948e-05
6.76084e-05
5.57851e-05
2.17282e-05
-2.49759e-05
-6.43399e-05
-8.42658e-05
-8.13266e-05
-7.33644e-05
-4.1122e-05
-2.00001e-05
-9.80333e-06
-1.64655e-05
-2.91528e-05
-3.40721e-05
-2.69743e-05
-2.25072e-05
-2.11254e-05
-1.51939e-05
1.65346e-05
5.57098e-05
7.98222e-05
8.01808e-05
5.27198e-05
1.03785e-05
-2.81612e-05
-2.99419e-05
-1.38389e-05
6.26881e-06
5.40323e-05
4.76783e-05
6.15267e-06
-3.78181e-05
-5.85597e-05
-5.19969e-05
-2.37149e-05
9.39456e-06
3.53943e-05
4.54673e-05
4.01568e-05
0.000110525
6.07493e-08
-0.000113285
-0.000175781
-0.000178417
-0.000145301
-9.58931e-05
-4.48123e-05
-1.25801e-05
-1.9551e-05
-5.13623e-05
-6.2759e-05
-3.32932e-05
1.95585e-05
6.548e-05
8.04867e-05
5.65811e-05
2.14956e-05
4.60683e-06
-4.64108e-06
-3.6787e-05
-9.50996e-05
-0.000140825
-0.000132276
-5.38587e-05
6.28066e-05
0.000140715
0.000157091
0.000154526
0.000147152
0.000136097
0.000145992
0.000169284
0.000190144
0.000194571
0.000172556
0.000131751
0.000109045
0.000130532
0.00015139
0.000113924
3.35408e-06
-0.00011082
-0.00017493
-0.000178966
-0.000146627
-9.74059e-05
-4.62801e-05
-1.36377e-05
-2.06395e-05
-5.26143e-05
-6.46814e-05
-3.49352e-05
1.82865e-05
6.45868e-05
7.99789e-05
5.63277e-05
2.12781e-05
4.60175e-06
-4.54282e-06
-3.64977e-05
-9.50703e-05
-0.000141622
-0.000134406
-5.73987e-05
5.86558e-05
0.000136937
0.000153582
0.000151248
0.000144825
0.000134323
0.000144056
0.000167151
0.000188431
0.000193917
0.000172982
0.000132841
0.000110019
0.000132087
0.000153925
0.000118427
6.46144e-06
-0.000110441
-0.000177077
-0.000182252
-0.000149998
-9.99187e-05
-4.8024e-05
-1.45353e-05
-2.13912e-05
-5.4171e-05
-6.71486e-05
-3.75114e-05
1.6367e-05
6.34214e-05
7.94712e-05
5.60733e-05
2.08761e-05
4.40733e-06
-4.33859e-06
-3.60051e-05
-9.52265e-05
-0.000143031
-0.000137086
-6.09294e-05
5.53681e-05
0.000134452
0.000150732
0.000148036
0.00014293
0.000133126
0.000142282
0.000164468
0.000185827
0.000193018
0.00017404
0.000134244
0.000110775
0.000133001
0.000157308
0.000123992
8.46526e-06
-0.000113647
-0.000183603
-0.000189182
-0.000155831
-0.000103991
-5.01861e-05
-1.51803e-05
-2.17364e-05
-5.56944e-05
-7.02121e-05
-4.09659e-05
1.37508e-05
6.20048e-05
7.90585e-05
5.58638e-05
2.02559e-05
4.08769e-06
-3.99953e-06
-3.53028e-05
-9.56738e-05
-0.000144954
-0.00013964
-6.31454e-05
5.44829e-05
0.000134723
0.0001495
0.000145228
0.000141406
0.000132407
0.000140988
0.00016189
0.000182623
0.000191381
0.000175069
0.00013563
0.00011095
0.00013429
0.000162164
0.000131197
9.88457e-06
-0.000120485
-0.000194775
-0.000200112
-0.000164422
-0.00010968
-5.29977e-05
-1.57435e-05
-2.16933e-05
-5.66254e-05
-7.27714e-05
-4.43875e-05
1.07108e-05
6.01453e-05
7.85374e-05
5.559e-05
1.93257e-05
3.60217e-06
-3.37565e-06
-3.46783e-05
-9.66257e-05
-0.000147535
-0.00014229
-6.46501e-05
5.51217e-05
0.000136632
0.000149441
0.000142634
0.000139913
0.000131782
0.000140376
0.000160403
0.000179674
0.000188685
0.000174627
0.000135693
0.000109659
0.000135991
0.000168418
0.00014093
1.26577e-05
-0.000129481
-0.000210025
-0.000215254
-0.00017632
-0.000117615
-5.70497e-05
-1.68044e-05
-2.1717e-05
-5.70499e-05
-7.3826e-05
-4.5753e-05
8.81392e-06
5.82296e-05
7.77107e-05
5.51868e-05
1.81456e-05
3.04617e-06
-2.35705e-06
-3.37519e-05
-9.82502e-05
-0.000151723
-0.000147919
-6.97648e-05
5.17058e-05
0.000134687
0.000145752
0.000137622
0.000137504
0.000130629
0.000140165
0.000160798
0.000178457
0.000185758
0.000172149
0.000132452
0.000105401
0.000137208
0.000178209
0.000159685
2.08721e-05
-0.000133828
-0.000226961
-0.00023436
-0.000192013
-0.000128481
-6.34187e-05
-1.91287e-05
-2.25934e-05
-5.81761e-05
-7.44694e-05
-4.47489e-05
1.03022e-05
5.82967e-05
7.71299e-05
5.46811e-05
1.68043e-05
2.57324e-06
-7.84071e-07
-3.22853e-05
-0.000100833
-0.000160761
-0.000163096
-8.62762e-05
3.8849e-05
0.000123725
0.000131964
0.000121431
0.00012845
0.000126145
0.000138301
0.000162193
0.000179724
0.000184034
0.000168457
0.000125536
9.49769e-05
0.000135043
0.000192801
0.000190087
4.24161e-05
-0.00012611
-0.000236098
-0.000254894
-0.00021207
-0.000142636
-7.2876e-05
-2.38514e-05
-2.3797e-05
-5.92718e-05
-7.64209e-05
-4.67372e-05
1.22394e-05
6.14175e-05
7.87446e-05
5.49104e-05
1.54263e-05
2.09672e-06
1.04581e-06
-3.06533e-05
-0.000104145
-0.000175952
-0.00018894
-0.000117502
1.29151e-05
0.000106709
0.00011091
9.334e-05
0.000106481
0.000113237
0.000130661
0.000158274
0.000179638
0.000183623
0.000166019
0.000117824
8.02708e-05
0.000125932
0.000208386
0.000228539
8.61723e-05
-0.00010437
-0.000230931
-0.000270946
-0.000235641
-0.000161311
-8.50795e-05
-3.20398e-05
-2.42544e-05
-5.82789e-05
-7.5334e-05
-5.0368e-05
5.91934e-06
5.93127e-05
8.12302e-05
5.74493e-05
1.50024e-05
1.44136e-06
2.34576e-06
-2.99644e-05
-0.000108043
-0.00018797
-0.00020994
-0.000146939
-1.7662e-05
8.56167e-05
9.15059e-05
6.09167e-05
7.42985e-05
8.93376e-05
0.000117624
0.000151839
0.000172462
0.00017476
0.000162815
0.000117023
6.99413e-05
0.0001125
0.000220302
0.000267347
0.000137309
-6.87808e-05
-0.000215243
-0.000276473
-0.000260395
-0.000184095
-0.000105267
-4.26434e-05
-2.7639e-05
-5.84548e-05
-7.41766e-05
-5.18192e-05
-2.51748e-06
4.69217e-05
7.31528e-05
5.8456e-05
1.6542e-05
1.02697e-06
2.57387e-06
-3.10018e-05
-0.000113548
-0.000195113
-0.000213543
-0.000151908
-3.00312e-05
7.04244e-05
7.72548e-05
3.39985e-05
3.63456e-05
5.4388e-05
9.63026e-05
0.000144687
0.00017062
0.000165281
0.000155564
0.000118568
7.32385e-05
0.000104692
0.000225552
0.000294121
0.000193676
-1.72364e-05
-0.000190087
-0.00027605
-0.00028417
-0.000210253
-0.000121346
-5.23322e-05
-2.98899e-05
-5.83516e-05
-7.41181e-05
-5.34925e-05
-9.70219e-06
3.27684e-05
5.56105e-05
4.64421e-05
1.24908e-05
-1.50537e-06
6.69181e-07
-3.45118e-05
-0.000121358
-0.0001997
-0.000204017
-0.000132979
-1.63202e-05
7.47737e-05
7.52413e-05
1.94058e-05
-3.62864e-06
1.36569e-05
6.60106e-05
0.000128582
0.000169755
0.000164867
0.000155592
0.000131103
8.83168e-05
0.000110866
0.000226193
0.000301929
0.000238484
4.43345e-05
-0.000145936
-0.000260635
-0.000294914
-0.000238113
-0.000142416
-5.10209e-05
-2.88809e-05
-5.71852e-05
-7.67484e-05
-5.79799e-05
-1.60733e-05
2.06742e-05
3.7228e-05
2.76625e-05
-1.55646e-06
-1.30971e-05
-9.25086e-06
-4.24565e-05
-0.000129655
-0.000206266
-0.000191194
-0.000104705
5.99864e-06
9.07176e-05
8.86414e-05
2.63074e-05
-1.81518e-05
-1.7809e-05
3.15785e-05
0.000102402
0.000149112
0.00015956
0.000157609
0.000145978
0.000117201
0.000127683
0.000226351
0.000290019
0.000261392
0.000101809
-8.76992e-05
-0.000223497
-0.000289417
-0.000258712
-0.000169891
-6.47158e-05
-3.00297e-05
-5.72454e-05
-8.16991e-05
-6.6169e-05
-2.02553e-05
1.62235e-05
2.53974e-05
8.86302e-06
-1.91688e-05
-3.07576e-05
-2.38856e-05
-5.06556e-05
-0.000128554
-0.000212367
-0.000181234
-9.2751e-05
1.21355e-05
9.16704e-05
0.000104024
4.85409e-05
-3.78236e-06
-1.96295e-05
4.42388e-06
6.9162e-05
0.000118243
0.00014312
0.000155739
0.000158142
0.000139049
0.000137921
0.000222304
0.000259169
0.000260379
0.000144361
-2.48643e-05
-0.000168765
-0.000260659
-0.000263471
-0.00020058
-8.07184e-05
-3.31315e-05
-5.83315e-05
-8.6253e-05
-7.48191e-05
-2.34403e-05
1.7381e-05
2.58083e-05
1.76048e-06
-2.92124e-05
-4.06045e-05
-2.83649e-05
-4.93332e-05
-0.000108866
-0.000187042
-0.000162946
-8.66252e-05
3.28672e-07
7.48915e-05
0.000108285
7.27003e-05
2.30993e-05
-1.22807e-05
-1.83132e-06
4.17995e-05
8.18111e-05
0.000111159
0.000139998
0.000161489
0.000151451
0.000137707
0.000205445
0.000214339
0.000238732
0.000169128
3.27751e-05
-0.000106955
-0.000214036
-0.000248034
-0.000194578
-9.61616e-05
-3.88508e-05
-5.85339e-05
-9.06022e-05
-8.3931e-05
-2.96282e-05
1.62592e-05
3.17111e-05
1.35651e-05
-9.33132e-06
-2.46802e-05
-2.22811e-05
-5.54005e-05
-0.000101284
-0.000158761
-0.000138053
-7.60942e-05
-1.03102e-05
6.29038e-05
0.000114681
9.52844e-05
4.618e-05
1.48444e-06
1.46899e-06
2.26053e-05
5.39021e-05
8.43651e-05
0.000113724
0.0001464
0.000150838
0.000137883
0.000166395
0.00016431
0.000199078
0.00017275
7.79274e-05
-4.41953e-05
-0.000150908
-0.000206569
-0.000182687
-0.000102852
-5.2816e-05
-6.10509e-05
-7.51338e-05
-7.78881e-05
-3.44817e-05
1.63411e-05
3.98948e-05
2.78794e-05
9.79159e-06
-1.05755e-05
-1.77402e-05
-5.06147e-05
-0.000104916
-0.000142808
-0.000110737
-5.52811e-05
-1.53305e-05
5.07102e-05
0.000116263
0.00012162
7.12282e-05
1.724e-05
-6.43574e-06
1.11698e-05
3.54559e-05
6.50812e-05
9.69962e-05
0.000133626
0.000156663
0.000147674
0.000145419
0.0001362
0.000161304
0.000154901
8.7704e-05
-3.11119e-06
-7.63594e-05
-0.000121883
-0.000128726
-9.9417e-05
-6.85271e-05
-7.66199e-05
-8.92174e-05
-8.17598e-05
-4.10115e-05
1.79699e-05
4.71531e-05
3.92329e-05
2.66831e-05
8.17159e-07
-1.24316e-05
-3.90802e-05
-9.45543e-05
-0.000123787
-8.51956e-05
-2.64429e-05
6.53758e-07
4.88168e-05
0.000105144
0.000126394
8.73658e-05
3.08027e-05
-2.15634e-06
-5.6435e-07
2.54201e-05
6.00086e-05
8.79963e-05
0.00012191
0.000162156
0.000159819
0.000130608
9.873e-05
0.000116853
0.00012178
8.74823e-05
2.5208e-05
-1.5482e-05
-3.64499e-05
-5.05971e-05
-6.58737e-05
-7.34185e-05
-9.66463e-05
-0.00010308
-9.39459e-05
-4.02506e-05
1.65486e-05
5.16172e-05
4.90546e-05
2.2865e-05
7.39017e-06
-9.33834e-06
-2.92647e-05
-6.99769e-05
-0.000105528
-8.14124e-05
-1.8359e-05
2.29061e-05
5.39787e-05
0.000104365
0.000125457
9.25695e-05
3.49676e-05
9.18357e-07
-7.08267e-07
1.86866e-05
5.9143e-05
8.68723e-05
0.000126647
0.000157224
0.000159698
0.000120733
6.7948e-05
6.82667e-05
8.83279e-05
7.14858e-05
2.73642e-05
9.97698e-06
3.63025e-05
3.2093e-05
-7.28101e-06
-5.45798e-05
-9.0326e-05
-0.000103891
-0.000102342
-7.24251e-05
-2.08649e-05
2.24708e-05
4.74795e-05
4.67286e-05
2.57627e-05
-8.3075e-07
-1.56277e-05
-3.78404e-05
-7.06611e-05
-7.45069e-05
-3.54511e-05
1.61997e-05
6.11997e-05
0.0001154
0.000127994
9.19251e-05
3.3335e-05
4.17875e-07
5.1866e-07
1.64634e-05
4.31614e-05
7.8232e-05
0.000116921
0.000146105
0.00014694
0.000108136
5.72509e-05
3.57431e-05
3.81277e-05
4.34509e-05
3.59784e-05
2.54163e-05
2.57063e-05
2.76998e-05
1.56046e-05
-1.76896e-05
-5.80766e-05
-8.59597e-05
-9.85082e-05
-8.81376e-05
-6.53859e-05
-3.38081e-05
-3.94442e-06
1.93511e-05
2.49969e-05
1.89387e-05
7.92852e-06
-3.47642e-06
-3.2987e-05
-6.17445e-05
-5.53064e-05
-1.70702e-05
4.17617e-05
0.000114313
0.000124732
8.65612e-05
2.44374e-05
-8.39678e-06
-3.71213e-07
2.01866e-05
4.47846e-05
7.50044e-05
0.000102912
0.000120574
0.000115635
8.89409e-05
6.05956e-05
2.1605e-05
8.37155e-06
6.17668e-06
2.56237e-06
9.72324e-06
3.11006e-05
4.33976e-05
2.58184e-05
-1.46999e-05
-5.01655e-05
-7.0166e-05
-8.47872e-05
-9.76362e-05
-9.97383e-05
-8.51127e-05
-6.46323e-05
-3.69968e-05
-8.08191e-06
1.50912e-05
1.99524e-05
5.83897e-06
-1.84539e-05
-5.02088e-05
-4.33974e-05
-1.59406e-05
4.16418e-05
0.000104357
0.000118034
7.91541e-05
6.50889e-06
-3.83468e-05
-4.15069e-05
-5.45095e-06
4.23157e-05
7.58751e-05
9.72178e-05
0.000106921
0.000102112
8.5181e-05
7.28798e-05
6.90058e-05
5.03985e-05
2.29495e-05
6.61687e-06
5.78116e-06
2.07005e-05
3.73916e-05
2.72098e-05
-9.38249e-06
-4.44664e-05
-6.17655e-05
-6.77076e-05
-7.58961e-05
-8.66249e-05
-9.29171e-05
-9.62053e-05
-9.23085e-05
-6.73751e-05
-3.00368e-05
-5.47016e-07
7.37048e-06
-2.6134e-06
-2.02185e-05
-2.34089e-05
-2.84354e-06
4.79224e-05
9.68418e-05
0.000127026
9.1217e-05
1.88099e-05
-4.74554e-05
-6.8293e-05
-4.6103e-05
8.70716e-06
6.71372e-05
0.000102509
0.000109124
8.2349e-05
6.12018e-05
4.78324e-05
5.99427e-05
5.50315e-05
3.79009e-05
1.86191e-05
7.36446e-06
9.66301e-06
1.70699e-05
8.89647e-06
-1.62743e-05
-3.7092e-05
-4.62184e-05
-5.16954e-05
-5.05948e-05
-4.30003e-05
-3.55042e-05
-3.89752e-05
-5.09904e-05
-5.54863e-05
-4.13175e-05
-8.67205e-06
6.58509e-06
-4.18588e-06
-2.42348e-05
-2.79752e-05
-6.0125e-06
3.57954e-05
7.53502e-05
0.000100086
8.41824e-05
3.22348e-05
-2.75073e-05
-6.2255e-05
-5.78019e-05
-1.58056e-05
3.62291e-05
7.41048e-05
8.69614e-05
7.69302e-05
6.1004e-05
5.80242e-05
6.70478e-05
5.99738e-05
3.33535e-05
2.12593e-06
-2.01762e-05
-3.05488e-05
-2.91087e-05
-2.78043e-05
-2.86055e-05
-2.37717e-05
-1.66079e-05
-1.99463e-05
-3.26854e-05
-4.27561e-05
-4.72166e-05
-3.93508e-05
-2.83269e-05
-1.57088e-05
-1.02496e-06
1.4105e-05
2.10941e-05
1.72836e-05
4.82099e-06
-8.38226e-06
-1.11307e-05
6.5504e-06
3.83172e-05
6.59946e-05
6.86281e-05
3.62665e-05
-1.43855e-05
-5.47371e-05
-5.93992e-05
-3.27675e-05
9.34389e-06
4.5906e-05
6.13081e-05
6.03019e-05
5.91477e-05
6.61791e-05
7.42208e-05
6.18286e-05
2.69072e-05
-1.73204e-05
-5.25101e-05
-7.31361e-05
-8.18044e-05
-6.72993e-05
-4.70409e-05
-2.54576e-05
-1.09976e-05
-1.27351e-05
-2.44272e-05
-3.10658e-05
-2.55621e-05
-2.16014e-05
-2.10649e-05
-1.29135e-05
1.54575e-05
5.15385e-05
6.68311e-05
6.19527e-05
3.60327e-05
8.81967e-07
-2.08858e-05
-2.05088e-05
-2.68722e-06
2.01051e-05
4.77388e-05
4.17487e-05
8.04307e-06
-2.61772e-05
-3.64336e-05
-2.92282e-05
-5.83074e-06
1.46763e-05
3.29988e-05
4.40041e-05
5.30573e-05
0.000101937
4.90716e-05
-1.28839e-05
-8.19311e-05
-0.000121983
-0.000133478
-0.000112429
-6.79989e-05
-2.33483e-05
-1.52004e-05
-4.64334e-05
-7.21383e-05
-5.79504e-05
-1.65171e-05
1.80662e-05
2.61335e-05
9.06734e-06
-7.7387e-06
-6.83297e-06
-7.70867e-06
-3.17064e-05
-6.85802e-05
-9.58471e-05
-9.38661e-05
-4.75426e-05
3.53388e-05
0.000108456
0.000151312
0.000172488
0.000169053
0.000155684
0.000162525
0.000186334
0.000218139
0.000237224
0.000230061
0.000209517
0.000176287
0.000152879
0.000135526
0.000105023
5.2159e-05
-1.02618e-05
-8.05035e-05
-0.000121136
-0.000133336
-0.000112757
-6.85599e-05
-2.37853e-05
-1.5245e-05
-4.63025e-05
-7.21683e-05
-5.81005e-05
-1.65415e-05
1.80882e-05
2.61407e-05
8.83834e-06
-8.21704e-06
-7.3888e-06
-8.09872e-06
-3.20116e-05
-6.90572e-05
-9.64877e-05
-9.47838e-05
-4.91087e-05
3.33974e-05
0.000106235
0.000148722
0.000169856
0.000166363
0.000152218
0.000158156
0.000181509
0.000213803
0.000234554
0.000229047
0.00020997
0.000177324
0.000154133
0.000138394
0.00010839
5.45745e-05
-8.96091e-06
-8.14876e-05
-0.000122416
-0.000135136
-0.000114528
-7.00255e-05
-2.45092e-05
-1.52158e-05
-4.63645e-05
-7.29478e-05
-5.91683e-05
-1.71716e-05
1.79589e-05
2.59545e-05
8.3286e-06
-8.9395e-06
-7.77658e-06
-8.26196e-06
-3.20658e-05
-6.96301e-05
-9.74713e-05
-9.61328e-05
-5.10471e-05
3.1713e-05
0.000104695
0.000146767
0.000167995
0.000164637
0.000149628
0.000154172
0.000175816
0.000207841
0.000231295
0.000229048
0.000212072
0.000180034
0.000157108
0.000141897
0.000112198
5.59249e-05
-9.73357e-06
-8.4282e-05
-0.000126833
-0.000139835
-0.000118507
-7.28651e-05
-2.58208e-05
-1.5501e-05
-4.7183e-05
-7.51562e-05
-6.18997e-05
-1.91277e-05
1.6774e-05
2.50316e-05
7.11149e-06
-1.01469e-05
-8.01905e-06
-7.73946e-06
-3.17375e-05
-7.03002e-05
-9.87943e-05
-9.76301e-05
-5.27197e-05
3.1389e-05
0.000105033
0.000146392
0.000167554
0.000164428
0.000148556
0.000151794
0.000170725
0.000201002
0.000227222
0.000229937
0.000215644
0.000184989
0.000162259
0.000147023
0.000117001
5.6475e-05
-1.22933e-05
-9.01023e-05
-0.00013441
-0.00014767
-0.000124995
-7.73621e-05
-2.79857e-05
-1.63668e-05
-4.89712e-05
-7.88963e-05
-6.65443e-05
-2.31114e-05
1.36747e-05
2.24441e-05
4.39948e-06
-1.24685e-05
-8.53565e-06
-6.88108e-06
-3.12474e-05
-7.13916e-05
-0.000100773
-9.94893e-05
-5.43978e-05
3.20675e-05
0.000107781
0.000148111
0.000168437
0.000165296
0.000148788
0.000151819
0.000168169
0.000194643
0.000221948
0.000230615
0.00022003
0.000192307
0.000170181
0.000154506
0.000124021
5.735e-05
-1.58821e-05
-9.52721e-05
-0.000144804
-0.00015879
-0.00013427
-8.37038e-05
-3.11506e-05
-1.78768e-05
-5.14468e-05
-8.33766e-05
-7.23806e-05
-2.91204e-05
7.91319e-06
1.70898e-05
-6.97739e-07
-1.65902e-05
-9.80781e-06
-5.8769e-06
-3.06149e-05
-7.31632e-05
-0.000104041
-0.000103444
-5.91699e-05
3.02433e-05
0.000110134
0.000151268
0.000170611
0.00016614
0.00014906
0.000153863
0.000169747
0.000191019
0.000216235
0.000229758
0.000223465
0.000201779
0.000181713
0.000165671
0.00013557
6.03447e-05
-2.05559e-05
-0.00010189
-0.000157023
-0.000172994
-0.000146972
-9.28835e-05
-3.5823e-05
-2.00355e-05
-5.41463e-05
-8.71879e-05
-7.68818e-05
-3.4521e-05
6.0593e-07
8.49282e-06
-8.74234e-06
-2.275e-05
-1.1867e-05
-4.63695e-06
-2.94029e-05
-7.50118e-05
-0.000109145
-0.00011263
-7.36309e-05
1.70999e-05
0.000102881
0.000148454
0.000171455
0.000165733
0.000145884
0.000154265
0.000174321
0.000191908
0.000211605
0.000226852
0.000221931
0.000212242
0.000197653
0.000182646
0.000155012
6.8315e-05
-2.16547e-05
-0.000108668
-0.000168522
-0.000188823
-0.000162287
-0.000106641
-4.33472e-05
-2.43848e-05
-5.74964e-05
-9.04064e-05
-8.0631e-05
-3.97273e-05
-6.15668e-06
-1.50912e-07
-1.83022e-05
-3.0364e-05
-1.41322e-05
-2.71059e-06
-2.72498e-05
-7.65273e-05
-0.000116238
-0.00012866
-0.000100669
-1.11629e-05
8.19181e-05
0.000130998
0.000161358
0.000162474
0.000139163
0.000145166
0.000170144
0.000193397
0.000208776
0.000223059
0.0002188
0.00022024
0.000216856
0.000207336
0.000185352
8.5058e-05
-1.7113e-05
-0.000110395
-0.00017638
-0.000203722
-0.000182129
-0.000123576
-5.75952e-05
-3.33237e-05
-6.30319e-05
-9.41274e-05
-8.50008e-05
-4.972e-05
-2.37039e-05
-1.7845e-05
-3.05831e-05
-3.88661e-05
-1.64099e-05
-3.39939e-07
-2.46268e-05
-7.84753e-05
-0.000123488
-0.000148239
-0.000134876
-5.08544e-05
5.09356e-05
0.000103573
0.000135206
0.000148661
0.000131664
0.00013349
0.00015214
0.000175075
0.000198701
0.000218392