/*--------------------------------*- C++ -*----------------------------------*\
| =========                 |                                                 |
| \\      /  F ield         | OpenFOAM: The Open Source CFD Toolbox           |
|  \\    /   O peration     | Version:  2306                                  |
|   \\  /    A nd           | Website:  www.openfoam.com                      |
|    \\/     M anipulation  |                                                 |
\*---------------------------------------------------------------------------*/
FoamFile
{
    version     2.0;
    format      ascii;
    arch        "LSB;label=32;scalar=64";
    class       volScalarField;
    location    "4";
    object      pMean;
}
// * * * * * * * * * * * * * * * * * * * * * * * * * * * * * * * * * * * * * //

dimensions      [0 2 -2 0 0 0 0];

internalField   nonuniform List<scalar> 
60000
(
5.09706e-05
6.48272e-05
9.81723e-05
0.000135208
0.000163785
0.00017873
0.000178514
0.000164905
0.000147757
0.000144874
0.000166103
0.000203341
0.000237986
0.000253918
0.000245198
0.000214137
0.000170767
0.00012774
9.04189e-05
5.97884e-05
4.39e-05
5.39473e-05
8.88883e-05
0.000134054
0.000170292
0.000186961
0.000190753
0.000196854
0.000213701
0.000240935
0.000269246
0.000284229
0.000282402
0.000269026
0.000246975
0.000218442
0.000184583
0.000144456
0.000101094
6.54247e-05
4.95882e-05
6.26853e-05
9.59617e-05
0.000133415
0.000162457
0.000177582
0.000177223
0.00016331
0.00014587
0.000142863
0.000164315
0.000201992
0.00023707
0.000253428
0.000245156
0.000214519
0.000171372
0.000128361
9.09375e-05
6.00954e-05
4.39219e-05
5.36634e-05
8.83198e-05
0.000133166
0.000169036
0.0001853
0.000188851
0.000194984
0.000212129
0.000239802
0.000268789
0.000284631
0.000283541
0.00027072
0.000249002
0.000220655
0.000186756
0.000146205
0.000102017
6.51909e-05
4.6073e-05
5.87386e-05
9.24788e-05
0.000130901
0.000160891
0.000176652
0.00017645
0.000162165
0.000143945
0.000140269
0.000161744
0.000200032
0.000235913
0.000253097
0.000245563
0.000215389
0.00017225
0.0001289
9.10516e-05
5.97945e-05
4.32421e-05
5.27495e-05
8.7348e-05
0.000132143
0.000167785
0.000183459
0.000186239
0.00019196
0.000209223
0.000237434
0.000267425
0.000284482
0.00028443
0.000272278
0.000250737
0.000222099
0.000187667
0.000146373
0.000101081
6.28541e-05
4.02675e-05
5.2784e-05
8.75679e-05
0.000127547
0.000158974
0.000175838
0.000176139
0.000161564
0.000142227
0.000137283
0.000158418
0.000197453
0.000234549
0.000253017
0.000246571
0.000216918
0.000173547
0.000129443
9.07754e-05
5.88781e-05
4.19796e-05
5.14405e-05
8.63101e-05
0.000131345
0.00016687
0.000181691
0.000183118
0.000187828
0.000205026
0.000233871
0.000265114
0.000283652
0.000284911
0.000273636
0.000252207
0.000222743
0.000187146
0.000144738
9.8202e-05
5.82789e-05
3.28099e-05
4.50129e-05
8.10218e-05
0.000122922
0.000156165
0.000174567
0.000175974
0.000161746
0.000141585
0.000134909
0.000154957
0.000194384
0.000232808
0.000252897
0.000247968
0.000219134
0.000175426
0.000130242
9.03594e-05
5.75557e-05
4.02067e-05
4.96113e-05
8.47359e-05
0.000130047
0.000165646
0.00017978
0.000179718
0.000183061
0.000200197
0.000229957
0.0002625
0.000282411
0.000285077
0.000275074
0.000254173
0.000223982
0.00018667
0.000142619
9.45366e-05
5.25409e-05
2.35481e-05
3.51288e-05
7.22693e-05
0.000116168
0.000151576
0.000172045
0.00017513
0.000162313
0.000142424
0.000134404
0.000152752
0.00019174
0.00023105
0.000252672
0.000249485
0.000221928
0.000178122
0.000131583
8.98236e-05
5.53531e-05
3.69987e-05
4.59488e-05
8.05887e-05
0.000125171
0.000160356
0.000174151
0.000173865
0.000177094
0.000195101
0.000226766
0.000261097
0.000282033
0.000285697
0.000277197
0.00025755
0.000227567
0.000188965
0.000142314
9.13179e-05
4.62986e-05
1.41463e-05
2.20317e-05
5.96047e-05
0.000105727
0.000143657
0.000167104
0.000172826
0.000161868
0.000143478
0.000135798
0.000153122
0.000191104
0.000230493
0.000252999
0.000251187
0.000225092
0.000181577
0.000133621
8.92448e-05
5.18038e-05
3.12152e-05
3.92633e-05
7.36357e-05
0.000117223
0.000150621
0.000162696
0.000161524
0.00016584
0.000187201
0.000223481
0.000261924
0.000284641
0.000288585
0.000280595
0.000262308
0.000233973
0.000196205
0.000148211
9.33528e-05
4.28092e-05
6.65062e-06
7.3607e-06
4.36741e-05
9.13958e-05
0.000132032
0.000158803
0.000168088
0.000159877
0.000142715
0.00013523
0.000153835
0.000193106
0.000233008
0.000255433
0.000253948
0.000228689
0.000185567
0.000136271
8.87857e-05
4.73459e-05
2.38346e-05
3.21816e-05
6.89788e-05
0.000113611
0.000144938
0.000152299
0.0001462
0.00014906
0.000173609
0.000215754
0.000259916
0.000287264
0.000293541
0.0002862
0.000267544
0.000239838
0.000204937
0.000158949
0.000102014
4.46985e-05
2.5612e-06
-7.87803e-06
2.46167e-05
7.37802e-05
0.000117407
0.000147821
0.00016114
0.000156254
0.00014107
0.000132645
0.000149644
0.000191026
0.000234807
0.000259874
0.000258717
0.000233293
0.000190107
0.000139425
8.87639e-05
4.40178e-05
1.95963e-05
3.17455e-05
7.53993e-05
0.000123879
0.000152441
0.000151102
0.000134456
0.000130538
0.000155454
0.000203491
0.000253899
0.000284542
0.000292448
0.00028597
0.000267975
0.000241484
0.000210948
0.000170658
0.000115169
5.2471e-05
5.26915e-06
-2.05219e-05
3.81877e-06
5.30903e-05
0.000100137
0.000134551
0.000152469
0.00015138
0.000138169
0.00012885
0.000142501
0.000181792
0.00022717
0.000256703
0.000260103
0.000237664
0.00019505
0.00014313
8.92269e-05
4.21933e-05
1.98183e-05
4.03279e-05
9.59623e-05
0.000152098
0.000178827
0.000165994
0.000132805
0.000115414
0.000135429
0.000186276
0.000242694
0.000277594
0.000287509
0.000282074
0.000264487
0.000238769
0.000213305
0.00018191
0.000132258
6.72172e-05
1.92129e-05
-2.35354e-05
-1.27718e-05
3.22813e-05
8.09251e-05
0.000120115
0.000143661
0.000147334
0.000136379
0.000125636
0.000134014
0.000167921
0.000210621
0.000240901
0.000248845
0.000233526
0.000197567
0.000147371
9.10626e-05
4.18913e-05
2.26997e-05
5.35307e-05
0.000124709
0.000192933
0.00022177
0.000199879
0.000148713
0.000111339
0.000118186
0.000164658
0.000223506
0.000263099
0.00027801
0.000278006
0.000264668
0.000240259
0.000218552
0.000196013
0.000154286
9.02171e-05
4.41679e-05
-1.25143e-05
-1.80776e-05
1.72047e-05
6.30722e-05
0.00010488
0.000134316
0.000144405
0.00013678
0.00012576
0.000130014
0.000157253
0.000192927
0.000218149
0.000224338
0.000213193
0.000186929
0.000146798
9.54236e-05
4.80572e-05
3.11555e-05
6.92406e-05
0.000152087
0.000232782
0.000268753
0.000246258
0.000184465
0.00012726
0.000112849
0.000145792
0.000200098
0.000244064
0.000267483
0.000276667
0.000271115
0.000251091
0.000231867
0.000215864
0.000181297
0.00011973
7.50026e-05
1.13724e-05
-8.70862e-06
1.29468e-05
5.0577e-05
8.98259e-05
0.000123793
0.000140662
0.000137048
0.000126463
0.000128273
0.000151197
0.000181492
0.000198859
0.000197343
0.000183543
0.000162696
0.000134135
9.85047e-05
6.27095e-05
5.17139e-05
8.87954e-05
0.000171333
0.000257006
0.000301464
0.000287648
0.00022902
0.000161948
0.000126552
0.000138801
0.000181491
0.000226448
0.000257865
0.000277044
0.000280026
0.00026683
0.000250204
0.000236829
0.000207842
0.000149625
0.000106934
4.60581e-05
1.71543e-05
2.4089e-05
4.92194e-05
8.08263e-05
0.000114572
0.000136353
0.00013598
0.000126219
0.00012701
0.000147422
0.000175599
0.00018966
0.000182473
0.000164493
0.000143245
0.000120085
9.77919e-05
7.52193e-05
6.92392e-05
0.000101893
0.00017379
0.000257474
0.000310092
0.000309676
0.000263634
0.000197752
0.000149008
0.000142068
0.000171609
0.000213431
0.000251205
0.000277357
0.000286456
0.000278528
0.000263464
0.000249776
0.000224575
0.00017319
0.000139727
9.07022e-05
5.80092e-05
5.07113e-05
6.09273e-05
8.16977e-05
0.000110358
0.000132641
0.000134511
0.000125359
0.000125509
0.000144106
0.00017172
0.00018901
0.000185516
0.000167915
0.000144978
0.000120995
9.94988e-05
8.15683e-05
7.74421e-05
0.00010318
0.00016426
0.000240943
0.000299245
0.000313785
0.000282115
0.000221738
0.000165833
0.000145597
0.00016289
0.000200214
0.000241001
0.000272054
0.0002862
0.000282958
0.000269058
0.000251484
0.000229724
0.000190805
0.000167821
0.000132434
0.000102279
8.53832e-05
8.18613e-05
9.04281e-05
0.00011031
0.000128222
0.000130354
0.000122547
0.00012331
0.000141268
0.000167793
0.000187449
0.000190371
0.000177666
0.00015587
0.000129674
0.000103916
8.68912e-05
8.6257e-05
0.000109652
0.000160504
0.000225136
0.000278644
0.000302289
0.000287406
0.000237745
0.000179943
0.000149216
0.000154317
0.000183747
0.000222337
0.00025611
0.000277301
0.000282017
0.000270791
0.00025083
0.000230606
0.000203171
0.000186137
0.000160218
0.000135108
0.000116681
0.000107213
0.000106345
0.000114961
0.000123959
0.000123127
0.000116049
0.000117426
0.00013551
0.000163612
0.00018551
0.000191933
0.0001821
0.000162315
0.000137436
0.000112083
9.79357e-05
0.000103792
0.000128399
0.000169248
0.000217892
0.000257729
0.000280146
0.000276624
0.00024221
0.00019316
0.000158784
0.000152664
0.000173371
0.000207581
0.000240201
0.000263974
0.000273021
0.000265798
0.000250093
0.000231589
0.000211068
0.000185399
0.000170933
0.000156398
0.000144031
0.000134148
0.000126566
0.000122019
0.000118152
0.000111219
0.000104315
0.000108646
0.00012836
0.000159616
0.000185613
0.000195784
0.000188446
0.000169398
0.000143923
0.000119794
0.000108286
0.000115796
0.000138845
0.000173713
0.000212266
0.000242878
0.000260295
0.000260492
0.000233496
0.000193881
0.000162394
0.00015493
0.000172902
0.00020627
0.000240182
0.000263922
0.000270978
0.000259678
0.000239894
0.000219087
0.000201402
0.000172068
0.00016512
0.000160201
0.000154505
0.000151772
0.000147667
0.000136409
0.000118546
9.84833e-05
8.61495e-05
8.85115e-05
0.000107998
0.000139958
0.000172638
0.000191641
0.000194245
0.000183645
0.000164493
0.000143996
0.000131458
0.000133378
0.000147233
0.000171392
0.000203157
0.0002331
0.000251253
0.000251702
0.000228626
0.000191508
0.000160532
0.000152777
0.000170339
0.000202736
0.000235757
0.000259596
0.000266861
0.000253826
0.000227724
0.000201274
0.00018311
0.000152423
0.000147269
0.000146061
0.00014648
0.000147049
0.000145424
0.000137911
0.000123704
0.000104096
8.66803e-05
8.00784e-05
8.70945e-05
0.000107002
0.000133193
0.000156381
0.000169611
0.000173242
0.000170652
0.000163325
0.00015433
0.000148994
0.000150404
0.000161241
0.000185839
0.000216145
0.000238659
0.000238918
0.000217017
0.000180873
0.000149799
0.000140014
0.000154411
0.000185051
0.000218366
0.000242664
0.000251382
0.000239521
0.000213002
0.000184374
0.000163553
0.000139193
0.000129062
0.000128007
0.000133645
0.000141416
0.000145814
0.000140197
0.000124332
0.000104605
8.79593e-05
7.89944e-05
7.89283e-05
8.69999e-05
0.000101996
0.000121633
0.000139893
0.000152366
0.000159615
0.000162319
0.000158707
0.000151641
0.000148516
0.000154757
0.00017573
0.000208997
0.000234969
0.000233067
0.000202346
0.000155111
0.000117041
0.000103557
0.000120387
0.000158665
0.000200174
0.000230617
0.000242935
0.000236119
0.00021422
0.000185701
0.000159097
0.00016872
0.000150888
0.000138238
0.000133548
0.000135653
0.000139615
0.000137092
0.000126137
0.000109862
9.52654e-05
8.66289e-05
8.4156e-05
8.71985e-05
9.48806e-05
0.000106472
0.000120911
0.000134561
0.000147125
0.000157188
0.000161295
0.000159386
0.000157184
0.000161723
0.000178512
0.000206716
0.000232691
0.000235825
0.000208337
0.000155843
0.000105468
8.27787e-05
9.46027e-05
0.000134676
0.000182955
0.000221166
0.000239292
0.000237344
0.000223183
0.000205031
0.000186444
0.000177735
0.000162092
0.00014723
0.000137089
0.000130468
0.000127027
0.00012565
0.000121819
0.000113384
0.000105451
0.000100681
9.93653e-05
0.000102197
0.00010888
0.000118608
0.000129366
0.000140187
0.000150162
0.000159292
0.000166012
0.000168348
0.000168114
0.000170879
0.00018168
0.000200749
0.000219625
0.000223206
0.000203441
0.000164843
0.000125486
0.000104532
0.000109894
0.000137176
0.000174122
0.000205473
0.000222485
0.000224671
0.000217236
0.000205565
0.000192219
0.00017223
0.000147641
0.000125054
0.000111189
0.000107131
0.000111216
0.000119295
0.000125588
0.000127438
0.000125824
0.00012255
0.000118373
0.000114693
0.000114577
0.000120875
0.000132422
0.000146807
0.000161511
0.000172279
0.000177953
0.000178923
0.000175461
0.00017186
0.000172449
0.000179581
0.000191815
0.000199737
0.000191958
0.000167431
0.000137646
0.000116929
0.000114798
0.000131445
0.000158118
0.000184376
0.000201773
0.000209454
0.000209253
0.000203866
0.00019242
0.000166685
0.000138146
0.000110934
9.30263e-05
8.80955e-05
9.46146e-05
0.000107012
0.000118252
0.000125223
0.000127573
0.000126758
0.000125399
0.000125398
0.000128459
0.000134586
0.000144267
0.000157997
0.000174821
0.000191942
0.000202559
0.000200159
0.000186784
0.000169773
0.000155464
0.000150624
0.000157705
0.000168707
0.00017287
0.000165635
0.00014916
0.000132012
0.000124848
0.000131564
0.000149457
0.000171529
0.00018982
0.000201656
0.000205574
0.000200809
0.000187106
4.02136e-05
9.59625e-09
8.82605e-07
3.32442e-05
7.89951e-05
0.000119242
0.000140684
0.000139624
0.000125717
0.000120212
0.000137544
0.00016981
0.000196718
0.000205509
0.000196847
0.000176723
0.000152122
0.000127971
0.000102863
7.73375e-05
6.21939e-05
7.34392e-05
0.000116491
0.000179681
0.000241697
0.000281924
0.000295604
0.000298002
0.000301648
0.000307968
0.000318612
0.000332994
0.000343076
0.00033938
0.000320649
0.000296006
0.000270859
0.000236951
0.00018262
0.000109641
4.16647e-05
1.69335e-07
-2.5008e-07
3.13527e-05
7.69475e-05
0.000117387
0.000139117
0.0001382
0.000124234
0.000118673
0.000136123
0.000168686
0.000195935
0.00020496
0.00019648
0.000176532
0.000152101
0.000128087
0.000102995
7.71991e-05
6.14013e-05
7.16933e-05
0.000113738
0.000176141
0.000237859
0.000278379
0.000292675
0.000295672
0.000299777
0.000306304
0.000317002
0.000331636
0.000342357
0.00033954
0.00032159
0.000297504
0.000272916
0.000239518
0.000185398
0.000112065
4.1414e-05
-1.79601e-06
-3.3899e-06
2.79926e-05
7.41407e-05
0.000115432
0.000137783
0.000136937
0.000122517
0.000116483
0.000133936
0.00016695
0.000194717
0.00020409
0.000195865
0.00017617
0.000151979
0.000128188
0.000103156
7.69981e-05
6.04273e-05
6.97955e-05
0.000111107
0.000173092
0.000234759
0.000275614
0.000290359
0.000293711
0.000298067
0.000304488
0.000314839
0.0003296
0.000341272
0.000339766
0.000322827
0.000299342
0.000275281
0.000242307
0.000187992
0.000113579
3.85227e-05
-6.74014e-06
-9.14237e-06
2.27344e-05
7.02001e-05
0.000113019
0.000136507
0.000135901
0.000120754
0.000113778
0.000130949
0.000164468
0.000192947
0.000202804
0.000194917
0.000175545
0.000151633
0.000128168
0.000103293
7.68605e-05
5.96654e-05
6.84944e-05
0.000109724
0.000171928
0.000233771
0.000274676
0.000289274
0.000292413
0.000296714
0.000302757
0.000312339
0.000326877
0.000339504
0.000339603
0.000323921
0.000301228
0.000277735
0.000245043
0.000189918
0.000113418
3.30939e-05
-1.48056e-05
-1.78489e-05
1.5044e-05
6.44626e-05
0.00010953
0.000135004
0.000135448
0.000119879
0.000111541
0.000127809
0.000161473
0.000190606
0.000200983
0.000193475
0.000174485
0.000150917
0.000127827
0.000103217
7.66019e-05
5.89668e-05
6.7599e-05
0.00010927
0.000172178
0.000234352
0.000275106
0.000289177
0.000291653
0.000295773
0.000301512
0.000310159
0.000323867
0.000336724
0.000338139
0.000323844
0.000302375
0.000280024
0.000247921
0.00019161
0.000111878
2.63163e-05
-2.52321e-05
-2.958e-05
4.14153e-06
5.56727e-05
0.000103565
0.000132122
0.000135088
0.000120398
0.000111227
0.00012614
0.00015917
0.000188407
0.00019901
0.000191739
0.000173115
0.000149945
0.000127315
0.000102958
7.59302e-05
5.74333e-05
6.54024e-05
0.000106915
0.000169919
0.000232064
0.000272918
0.000287157
0.000289842
0.000294679
0.00030101
0.000309304
0.000321818
0.000333554
0.000334843
0.000321497
0.000301783
0.000281787
0.000251612
0.000194501
0.000110366
2.18565e-05
-3.52457e-05
-4.24598e-05
-9.38354e-06
4.32164e-05
9.37455e-05
0.000125987
0.000132752
0.000120553
0.000112125
0.000126586
0.000158871
0.000187715
0.000198017
0.000190457
0.000171929
0.000149073
0.000126865
0.00010251
7.4078e-05
5.28207e-05
5.80047e-05
9.76477e-05
0.000159736
0.000221353
0.000262082
0.000276982
0.000281419
0.000289654
0.000299514
0.000309565
0.000321676
0.000331331
0.000330293
0.000315981
0.000298182
0.000282478
0.000257038
0.000201902
0.000113495
2.63639e-05
-3.94839e-05
-5.24717e-05
-2.29614e-05
2.89521e-05
8.12857e-05
0.000117049
0.000128023
0.000118897
0.000110788
0.000124827
0.00015736
0.000187265
0.000198387
0.000190501
0.00017153
0.000148548
0.000126458
0.000101655
7.03939e-05
4.36287e-05
4.29642e-05
7.91704e-05
0.000140018
0.000201648
0.000242861
0.000257729
0.000263124
0.00027578
0.000292077
0.000307092
0.000321065
0.000329688
0.000325903
0.00030866
0.000291331
0.000281358
0.00026432
0.000215815
0.000126451
4.24544e-05
-3.47641e-05
-5.69155e-05
-3.38798e-05
1.42148e-05
6.74306e-05
0.000106812
0.00012221
0.000116548
0.000108828
0.000120559
0.00015152
0.000182138
0.000196006
0.000190512
0.00017208
0.000148562
0.000125796
0.000100095
6.55415e-05
3.24277e-05
2.52065e-05
5.78582e-05
0.000117729
0.000179022
0.000220257
0.000234146
0.00023827
0.000253914
0.000277699
0.00029955
0.000316483
0.000324558
0.000319302
0.000300994
0.000284523
0.00028017
0.000273389
0.000235284
0.000149635
6.78517e-05
-2.2266e-05
-5.64085e-05
-4.21683e-05
-2.99301e-08
5.28728e-05
9.59257e-05
0.000115719
0.000113617
0.00010617
0.00011571
0.000143825
0.000172884
0.000187982
0.000185849
0.000171064
0.000148865
0.000124929
9.79364e-05
6.18998e-05
2.53777e-05
1.44732e-05
4.57364e-05
0.000105689
0.000164722
0.000202132
0.000211711
0.000211058
0.000226344
0.000257244
0.000288036
0.000310628
0.000319804
0.000313676
0.000295284
0.000280383
0.000282191
0.000285438
0.000258032
0.000179035
9.87787e-05
-2.90998e-06
-5.20694e-05
-4.85549e-05
-1.29172e-05
3.90235e-05
8.61456e-05
0.000110544
0.000111357
0.000104233
0.000111138
0.000135738
0.000161615
0.000175057
0.00017405
0.000163286
0.00014542
0.000122463
9.4689e-05
5.91845e-05
2.40594e-05
1.45373e-05
4.83732e-05
0.00011074
0.00016658
0.000196421
0.000197548
0.000188216
0.000198059
0.000232009
0.000271814
0.000302878
0.00031753
0.000315771
0.000300619
0.00028736
0.000292142
0.000302268
0.00028344
0.000211079
0.000133044
2.45871e-05
-3.95311e-05
-5.01712e-05
-2.34889e-05
2.55852e-05
7.69527e-05
0.000106618
0.00011011
0.000101873
0.000105906
0.000127717
0.000150859
0.000160953
0.000157819
0.000148691
0.00013542
0.00011597
8.95704e-05
5.63902e-05
2.6435e-05
2.26265e-05
6.16444e-05
0.000128438
0.00018178
0.000204022
0.000197127
0.00017806
0.000177323
0.000206048
0.000250083
0.000288766
0.000310877
0.000317084
0.000309784
0.000301705
0.000308828
0.000322651
0.000309436
0.000242978
0.000166792
5.84787e-05
-1.6413e-05
-4.16663e-05
-2.69581e-05
1.52e-05
6.5677e-05
0.000100421
0.00010706
9.87535e-05
0.000101239
0.000121919
0.000144693
0.000152342
0.000144592
0.000133094
0.000122429
0.000107275
8.38792e-05
5.51447e-05
3.14367e-05
3.19701e-05
7.31486e-05
0.000141686
0.000195128
0.000214677
0.000206291
0.000182504
0.000170844
0.000187468
0.000226287
0.000267597
0.000297068
0.000312623
0.000315936
0.000314193
0.000321721
0.00033586
0.000327311
0.000269098
0.00019514
9.59212e-05
1.78074e-05
-1.97041e-05
-1.89265e-05
1.16841e-05
5.72631e-05
9.32165e-05
0.000104104
9.69867e-05
9.9678e-05
0.000120784
0.000145014
0.000152911
0.00014251
0.000127525
0.000116425
0.000104475
8.65274e-05
6.32947e-05
4.48896e-05
4.55014e-05
8.28758e-05
0.000145037
0.000198733
0.000222006
0.000217509
0.000195186
0.000176223
0.000180068
0.000206628
0.000242375
0.000274284
0.00029762
0.00031163
0.000317301
0.000323531
0.000333272
0.000327828
0.000282355
0.000216404
0.000134553
6.03928e-05
1.42625e-05
8.97118e-07
1.72471e-05
5.34051e-05
8.7933e-05
0.000102005
9.84655e-05
0.000102222
0.000123283
0.000148822
0.000161494
0.000155696
0.00014074
0.000124982
0.00010833
8.9012e-05
6.90737e-05
5.63297e-05
6.05914e-05
9.24662e-05
0.000147188
0.000200105
0.000229823
0.000231075
0.000209578
0.000184747
0.000177664
0.000192349
0.000220834
0.000251445
0.000278427
0.000297765
0.000308195
0.000313498
0.000317241
0.000312723
0.000281192
0.00023007
0.000170962
0.000108526
5.89643e-05
3.30076e-05
3.31369e-05
5.43655e-05
8.16781e-05
9.72054e-05
9.88693e-05
0.000105552
0.000127345
0.000153987
0.000170906
0.000169492
0.000155198
0.000134208
0.000109297
8.48513e-05
6.64637e-05
6.14691e-05
7.39336e-05
0.000106103
0.000154422
0.000203163
0.000237144
0.000243761
0.000223553
0.000193009
0.00017544
0.000180987
0.000204952
0.000234852
0.000263849
0.000288283
0.000302572
0.000306175
0.000302576
0.00029439
0.000272878
0.000237064
0.000197045
0.000149664
0.000107552
8.02182e-05
6.82546e-05
6.92717e-05
7.69251e-05
8.51344e-05
9.05323e-05
0.000101525
0.000126818
0.000157502
0.000178833
0.00018103
0.000167178
0.000145058
0.000119531
9.33449e-05
7.59833e-05
7.4792e-05
9.24669e-05
0.000125453
0.000167365
0.000208232
0.00023835
0.00024612
0.0002287
0.000198406
0.00017631
0.000175618
0.000195745
0.000225639
0.000255775
0.000281895
0.000297238
0.000299568
0.000291947
0.000280534
0.000264193
0.000232668
0.000210227
0.000179964
0.000149352
0.000126439
0.000110592
9.75989e-05
8.52823e-05
7.77941e-05
7.9215e-05
9.28259e-05
0.000122305
0.000158387
0.000185299
0.000191083
0.000177611
0.00015427
0.000129276
0.000105698
9.00735e-05
9.07146e-05
0.000108094
0.000138907
0.00017749
0.000215037
0.000240745
0.000246774
0.000228922
0.000199355
0.000175485
0.000172244
0.00019042
0.000220089
0.000251023
0.000276783
0.000289755
0.000287053
0.00027358
0.000258808
0.00024607
0.000211712
0.000205054
0.000192054
0.000175827
0.000163098
0.000151631
0.000131136
0.000102974
7.86464e-05
6.86176e-05
7.62019e-05
0.000101026
0.000138191
0.000173767
0.000191635
0.000187421
0.0001694
0.000146231
0.000124528
0.000108776
0.000106415
0.000118611
0.000143241
0.000178444
0.000216106
0.000241475
0.00024586
0.000227808
0.000198456
0.000174384
0.000169246
0.000184095
0.000210799
0.000240474
0.000264786
0.000275086
0.000268444
0.000249072
0.00022925
0.00021759
0.000186585
0.000185284
0.00018331
0.000176906
0.000167918
0.000156954
0.000140266
0.000117033
9.18722e-05
7.23026e-05
6.63284e-05
7.657e-05
0.000101397
0.00013184
0.000157614
0.000169439
0.000168751
0.000161187
0.000148885
0.000132804
0.000120797
0.000119571
0.000133429
0.000161008
0.00019803
0.000228807
0.000236753
0.000220384
0.000192545
0.000170168
0.000165815
0.000179391
0.000203265
0.000228712
0.000247899
0.000254472
0.000246481
0.000226525
0.000205343
0.00019225
0.000169529
0.000165385
0.000166032
0.000167528
0.000167408
0.000162578
0.00014784
0.000123873
9.69507e-05
7.40972e-05
6.04714e-05
5.86751e-05
6.76368e-05
8.72132e-05
0.000110811
0.000131287
0.000145412
0.000153525
0.000154532
0.000146055
0.000132807
0.000127704
0.000137986
0.000161672
0.000193754
0.00021935
0.000223949
0.000204115
0.000174041
0.000150712
0.000146773
0.000163791
0.000191579
0.000220095
0.000239003
0.000244987
0.000239122
0.000222219
0.00019993
0.000180901
0.000187893
0.00017769
0.00016973
0.000166359
0.000164625
0.000160236
0.000148855
0.000130163
0.000108151
8.93072e-05
7.65752e-05
6.94894e-05
6.74577e-05
7.05722e-05
7.99512e-05
9.32902e-05
0.000109302
0.000125302
0.000138895
0.000145393
0.000144979
0.000145505
0.000153968
0.000171545
0.000195541
0.000215826
0.000219989
0.000201666
0.00016897
0.00013877
0.000128755
0.000143309
0.000173313
0.000206678
0.000230565
0.000239308
0.000235303
0.000224239
0.000210411
0.000197537
0.000187802
0.000177492
0.000167831
0.000159662
0.000153109
0.00014781
0.000140956
0.000130197
0.000116749
0.000106674
0.000102781
0.000102982
0.000104947
0.000107388
0.000109834
0.000111988
0.000116688
0.000123791
0.000132549
0.000140767
0.000144798
0.000146675
0.000152572
0.000166542
0.000186416
0.000203727
0.000208181
0.000193834
0.000165615
0.000137866
0.000125272
0.000133387
0.000158044
0.000188595
0.000212402
0.000223531
0.000224216
0.000218271
0.000208987
0.000198555
0.000181854
0.000163697
0.000146077
0.000132626
0.000125757
0.000124495
0.000125707
0.000126419
0.000125088
0.000122156
0.000119198
0.000116341
0.000114761
0.000115637
0.000120523
0.000129531
0.000138913
0.000147762
0.000154536
0.000158173
0.000158803
0.000157077
0.000157293
0.000162486
0.000172328
0.000183929
0.000190564
0.000184084
0.000164123
0.000141046
0.000126929
0.000128462
0.000145217
0.00016962
0.000191779
0.000205536
0.000210791
0.000210235
0.000205811
0.000196837
0.00017386
0.000145689
0.000118029
9.88033e-05
9.21067e-05
9.61854e-05
0.000105841
0.000116535
0.000124307
0.000127567
0.000127745
0.000127085
0.000127137
0.000129891
0.000135728
0.000144305
0.000155979
0.000169546
0.000182505
0.000189861
0.000186544
0.000174253
0.000160867
0.000152806
0.000153086
0.000160924
0.000170822
0.00017396
0.000167609
0.000155385
0.000144336
0.000140461
0.000146512
0.000161091
0.000177919
0.000191811
0.000201722
0.000206822
0.000205078
0.000194269
0.000111256
6.52769e-05
3.79685e-05
3.34091e-05
5.25231e-05
8.54035e-05
0.000115768
0.000129581
0.000123748
0.000111919
0.00011215
0.000127312
0.000144701
0.000152824
0.000151009
0.000142914
0.00013198
0.000120641
0.000107934
9.44568e-05
8.93147e-05
0.000104038
0.000141118
0.000191096
0.000239965
0.000274973
0.000293091
0.000303062
0.000311693
0.000323294
0.00034406
0.00037171
0.000391437
0.000390674
0.000371987
0.000344588
0.000312319
0.000273353
0.000225812
0.000168814
0.00011325
6.66832e-05
3.87593e-05
3.36253e-05
5.23401e-05
8.50282e-05
0.000115463
0.000129491
0.000123867
0.000112126
0.00011235
0.000127496
0.000144872
0.000152914
0.000150937
0.00014274
0.00013171
0.000120244
0.000107367
9.36835e-05
8.82845e-05
0.000102735
0.000139563
0.000189208
0.000237731
0.000272462
0.000290242
0.000299778
0.000307948
0.000319072
0.000339638
0.000367847
0.000388835
0.000389474
0.00037199
0.000345555
0.000314018
0.000275523
0.000228319
0.000171275
0.000114171
6.6622e-05
3.79477e-05
3.22757e-05
5.07967e-05
8.37049e-05
0.000114668
0.00012921
0.000123765
0.00011183
0.000111808
0.000126894
0.000144335
0.000152407
0.000150484
0.000142382
0.000131459
0.000119978
0.000106942
9.29827e-05
8.71663e-05
0.000101243
0.000137905
0.000187495
0.000235979
0.000270711
0.00028822
0.000297142
0.000304427
0.000314413
0.000334244
0.000363082
0.000385974
0.000388889
0.000373294
0.000348019
0.00031702
0.00027866
0.000231144
0.000173276
0.000113489
6.43803e-05
3.46894e-05
2.84622e-05
4.69966e-05
8.06309e-05
0.000112711
0.000128147
0.000122829
0.000110317
0.000109735
0.000124738
0.000142403
0.000150713
0.000149118
0.000141541
0.000131158
0.000119943
0.000106827
9.25438e-05
8.63324e-05
0.000100166
0.000136964
0.000186919
0.000235693
0.000270613
0.000287838
0.000296049
0.000302232
0.000310504
0.000328852
0.000357976
0.000383101
0.000389011
0.000376032
0.000352326
0.000321801
0.000283058
0.000234329
0.000174624
0.000111568
6.01688e-05
2.91086e-05
2.20198e-05
4.05582e-05
7.52337e-05
0.000108997
0.00012582
0.000120702
0.000107214
0.000105606
0.00012032
0.000138245
0.000146944
0.000145976
0.00013947
0.00013027
0.000119837
0.000106773
9.2085e-05
8.54957e-05
9.94033e-05
0.000136859
0.000187709
0.000237189
0.000272419
0.000289185
0.000296629
0.000301986
0.000308609
0.000324777
0.000353233
0.000380173
0.000389334
0.000379683
0.000358343
0.000328692
0.000289206
0.000238324
0.000175725
0.000109087
5.45554e-05
2.16077e-05
1.31968e-05
3.12882e-05
6.70789e-05
0.000103094
0.00012201
0.000117528
0.000102892
9.96646e-05
0.000113488
0.000131288
0.000140246
0.000140118
0.00013532
0.000128159
0.000119243
0.000106526
9.11672e-05
8.35916e-05
9.69889e-05
0.000135055
0.000187409
0.000238619
0.000274978
0.000291545
0.000298157
0.00030331
0.000309449
0.000323645
0.000350265
0.000377641
0.00038945
0.000383561
0.000365762
0.000338021
0.000297922
0.000244045
0.000177414
0.000107311
4.84971e-05
1.29901e-05
2.49961e-06
1.89479e-05
5.53016e-05
9.40101e-05
0.000116237
0.000113678
9.85442e-05
9.35281e-05
0.000105652
0.000122242
0.000130537
0.000131015
0.000128621
0.000124632
0.000118229
0.000106323
8.98946e-05
7.99466e-05
9.06678e-05
0.000127029
0.000179477
0.000233039
0.000272642
0.000290937
0.00029768
0.000303437
0.000311071
0.000325125
0.000349904
0.000376087
0.000389024
0.000386738
0.000374037
0.0003502
0.000310594
0.000253143
0.000181215
0.000108341
4.38723e-05
4.86338e-06
-8.42451e-06
4.59341e-06
3.96407e-05
8.02791e-05
0.000106442
0.000107673
9.41289e-05
8.82584e-05
9.84217e-05
0.000113269
0.000120346
0.000120722
0.000120647
0.000120389
0.000117316
0.00010664
8.85575e-05
7.43341e-05
7.94712e-05
0.000111004
0.000161109
0.000216158
0.000260206
0.000282098
0.0002905
0.000297839
0.00030744
0.000323006
0.000347535
0.000373479
0.000387269
0.000387975
0.000381908
0.000364892
0.000328497
0.000268033
0.000189489
0.000114666
4.30538e-05
-3.13875e-07
-1.70853e-05
-8.099e-06
2.37688e-05
6.39101e-05
9.24791e-05
9.72346e-05
8.58969e-05
7.98301e-05
8.81183e-05
0.000100729
0.000106747
0.000108306
0.000111534
0.000115975
0.00011661
0.000107309
8.69931e-05
6.65729e-05
6.31595e-05
8.74932e-05
0.000134274
0.000190205
0.00023864
0.00026491
0.000275433
0.000285117
0.000296661
0.000311672
0.000334765
0.000361048
0.000378707
0.000385003
0.000387331
0.000380573
0.000350828
0.000290111
0.000204845
0.000129164
4.84541e-05
-2.62192e-07
-2.09046e-05
-1.60794e-05
1.15986e-05
4.96106e-05
7.83582e-05
8.41191e-05
7.36177e-05
6.68123e-05
7.21306e-05
8.10055e-05
8.53511e-05
8.83189e-05
9.65677e-05
0.000107485
0.000113587
0.000106808
8.51977e-05
5.90781e-05
4.69444e-05
6.29301e-05
0.000105405
0.00016152
0.000213719
0.000243941
0.000255527
0.000265944
0.000280283
0.000294472
0.000313339
0.000337693
0.000358749
0.0003733
0.000387232
0.000394172
0.000374864
0.000317872
0.000228862
0.000154284
6.29789e-05
5.86136e-06
-1.93529e-05
-1.79934e-05
7.31613e-06
4.4211e-05
7.09412e-05
7.44029e-05
6.19172e-05
5.28091e-05
5.49293e-05
6.0782e-05
6.3657e-05
6.76958e-05
7.91107e-05
9.50329e-05
0.000106403
0.00010368
8.38625e-05
5.67078e-05
3.98212e-05
4.89546e-05
8.57514e-05
0.000139952
0.000193821
0.000227393
0.000238823
0.000246631
0.000261258
0.000276708
0.000291509
0.000310663
0.000333129
0.000354027
0.000379289
0.000401906
0.000396375
0.000346681
0.000260068
0.000187583
8.88623e-05