/*--------------------------------*- C++ -*----------------------------------*\
| =========                 |                                                 |
| \\      /  F ield         | OpenFOAM: The Open Source CFD Toolbox           |
|  \\    /   O peration     | Version:  2306                                  |
|   \\  /    A nd           | Website:  www.openfoam.com                      |
|    \\/     M anipulation  |                                                 |
\*---------------------------------------------------------------------------*/
FoamFile
{
    version     2.0;
    format      ascii;
    arch        "LSB;label=32;scalar=64";
    class       volVectorField;
    location    "4";
    object      U;
}
// * * * * * * * * * * * * * * * * * * * * * * * * * * * * * * * * * * * * * //

dimensions      [0 1 -1 0 0 0 0];

internalField   nonuniform List<vector> 
60000
(
(0.00967659 5.24056e-05 0.00154054)
(0.00997154 5.77419e-05 0.00224112)
(0.00992218 4.21094e-05 0.00270164)
(0.00963455 1.58916e-05 0.00275187)
(0.00933048 -2.86027e-06 0.0024845)
(0.00912378 -7.91359e-06 0.00210015)
(0.00896594 -3.71883e-06 0.00171431)
(0.00879298 -1.04393e-07 0.00135395)
(0.00855589 -3.51556e-06 0.00106676)
(0.00813884 -9.1487e-06 0.000927836)
(0.00742814 -1.18678e-05 0.000936933)
(0.00654382 -1.07739e-05 0.00102555)
(0.00583538 -6.37255e-06 0.00110025)
(0.00552015 -6.58553e-06 0.00112811)
(0.0055578 -1.5236e-05 0.00104123)
(0.00575269 -2.47495e-05 0.000798739)
(0.00591009 -2.09931e-05 0.000504824)
(0.0060145 -7.85612e-06 0.000237363)
(0.00619631 1.79638e-06 1.84051e-05)
(0.00650536 1.25973e-05 -0.000158565)
(0.00684806 2.22522e-05 -0.000315606)
(0.00714745 2.84223e-05 -0.000531226)
(0.00743763 2.16983e-05 -0.000845647)
(0.0078168 5.19823e-06 -0.00129052)
(0.00831859 -8.36617e-06 -0.00183338)
(0.0088079 -1.3128e-05 -0.00229844)
(0.00907606 -1.55418e-05 -0.00249588)
(0.00895212 -1.06347e-05 -0.00249933)
(0.00839812 6.51419e-08 -0.00247662)
(0.00756729 1.36787e-05 -0.00234864)
(0.00678197 9.47905e-06 -0.00212462)
(0.00628435 -4.9119e-06 -0.002019)
(0.00605925 -2.66978e-06 -0.00200518)
(0.00606094 3.84311e-06 -0.00185787)
(0.00628171 7.825e-06 -0.00140861)
(0.00665744 2.00042e-05 -0.000710503)
(0.00710017 3.61549e-05 -5.168e-05)
(0.00763467 4.57596e-05 0.000347575)
(0.00831569 4.19566e-05 0.000579184)
(0.00906693 4.12673e-05 0.0009387)
(0.0289946 0.000281023 0.00438051)
(0.0301605 0.000298854 0.00607931)
(0.0304281 0.00020881 0.00707177)
(0.0298068 6.41634e-05 0.00700983)
(0.0288307 -3.76353e-05 0.00622918)
(0.0280299 -5.96805e-05 0.00530831)
(0.0274663 -3.23108e-05 0.00447771)
(0.0269353 -6.33945e-06 0.00368971)
(0.0261928 -1.6831e-06 0.00299081)
(0.0249272 -4.75125e-06 0.00256187)
(0.0229117 -2.0778e-05 0.00251019)
(0.0204669 -6.7607e-05 0.00275109)
(0.0184389 -0.000134559 0.00299998)
(0.0173764 -0.000200825 0.00302424)
(0.0171837 -0.000243866 0.00267557)
(0.0173692 -0.000233652 0.00201031)
(0.0175568 -0.000156507 0.00129208)
(0.0178147 -6.42433e-05 0.000664296)
(0.0183871 -1.03622e-06 0.000139327)
(0.0192764 4.86468e-05 -0.000317479)
(0.0202913 8.69724e-05 -0.000787654)
(0.0213514 8.46209e-05 -0.0014267)
(0.0225554 1.77882e-06 -0.00231695)
(0.0240267 -0.000114939 -0.00352662)
(0.0256934 -0.000182249 -0.00493825)
(0.0271545 -0.000167915 -0.00610308)
(0.0278797 -0.000110706 -0.0065914)
(0.0274362 -2.08305e-05 -0.00656429)
(0.0258179 6.89527e-05 -0.00632159)
(0.0235845 9.19795e-05 -0.00581923)
(0.0214743 4.18324e-07 -0.00535033)
(0.0198448 -9.25942e-05 -0.00533647)
(0.0187339 -9.08627e-05 -0.00543069)
(0.0183359 -4.94848e-05 -0.00493555)
(0.0187708 5.91139e-06 -0.00357562)
(0.0198177 0.000102507 -0.00171458)
(0.0211848 0.000209863 -7.99497e-05)
(0.0228871 0.000249548 0.000941854)
(0.0249676 0.000215563 0.0016791)
(0.027151 0.000221092 0.00276503)
(0.0484749 0.000564258 0.00627084)
(0.0509861 0.000564796 0.00882766)
(0.0521019 0.00034996 0.0104029)
(0.0514348 4.8136e-05 0.0104089)
(0.0496744 -0.000141597 0.00924902)
(0.0480072 -0.000166482 0.00789346)
(0.0468986 -0.000102427 0.00680694)
(0.0460312 -4.71207e-05 0.00584629)
(0.0449009 -2.87807e-05 0.00489164)
(0.0430366 -2.76073e-05 0.00409452)
(0.040095 -6.19141e-05 0.00375081)
(0.036347 -0.00017796 0.00400181)
(0.0328363 -0.000359898 0.00449702)
(0.0305044 -0.000535259 0.0046469)
(0.029519 -0.000626682 0.00412882)
(0.0292868 -0.000573202 0.00315289)
(0.0292749 -0.000377762 0.0021524)
(0.0295757 -0.000162718 0.00130749)
(0.030468 -1.4355e-05 0.0005987)
(0.031882 8.77972e-05 -3.69321e-05)
(0.0335676 0.000145471 -0.00071128)
(0.0354717 8.99271e-05 -0.00161189)
(0.0377445 -0.000154977 -0.00287472)
(0.0404868 -0.000449601 -0.00465825)
(0.0435042 -0.000602165 -0.00685715)
(0.0461529 -0.000547448 -0.00880849)
(0.0476107 -0.000373029 -0.00978556)
(0.0471862 -0.000122172 -0.00985878)
(0.0448671 0.000108261 -0.00938041)
(0.0415376 0.000144252 -0.00842861)
(0.0382241 -7.10764e-05 -0.00764121)
(0.0352962 -0.000255939 -0.00776284)
(0.0328013 -0.000242496 -0.00825763)
(0.03128 -0.000147656 -0.00785497)
(0.0313086 -1.80206e-05 -0.00597778)
(0.0327189 0.000202519 -0.00322737)
(0.0349399 0.000447484 -0.000743767)
(0.0378368 0.000535406 0.000882802)
(0.0413819 0.000446773 0.00211452)
(0.0451208 0.000456934 0.00382501)
(0.0671431 0.000745161 0.00640613)
(0.0715498 0.000727293 0.00985911)
(0.0742235 0.000379576 0.0123704)
(0.0740606 -6.46065e-05 0.0129979)
(0.0715514 -0.000313877 0.0117983)
(0.068707 -0.000320518 0.00999876)
(0.066844 -0.000211432 0.00864453)
(0.0656846 -0.000121719 0.0077196)
(0.0643872 -7.87641e-05 0.00680105)
(0.0623311 -5.92313e-05 0.0057046)
(0.059063 -9.21184e-05 0.00479956)
(0.0545445 -0.000262575 0.0047206)
(0.0495852 -0.000582123 0.00542877)
(0.0453457 -0.000928734 0.00597753)
(0.0426718 -0.00112256 0.00553261)
(0.0413612 -0.00104289 0.00435253)
(0.0407839 -0.000712335 0.0031678)
(0.0409018 -0.000346926 0.00225235)
(0.0419352 -9.2271e-05 0.00153556)
(0.0437223 7.47384e-05 0.000915215)
(0.0459611 0.000137425 0.000278207)
(0.0486117 -2.58457e-05 -0.00055925)
(0.0518734 -0.000529621 -0.00180067)
(0.0558682 -0.00111091 -0.00379799)
(0.0603847 -0.00139731 -0.00667517)
(0.0645922 -0.0012723 -0.00968886)
(0.0673541 -0.000908036 -0.0116712)
(0.0676634 -0.000392239 -0.0123234)
(0.0653629 6.8073e-05 -0.0119146)
(0.0614779 0.000155916 -0.0105587)
(0.0572399 -0.000186026 -0.00918182)
(0.053082 -0.000478642 -0.00913209)
(0.0489654 -0.000457412 -0.0101454)
(0.0454967 -0.0003243 -0.0105049)
(0.0439376 -0.000148889 -0.00894015)
(0.0448485 0.000193634 -0.00584339)
(0.0475447 0.000601664 -0.00271705)
(0.0515029 0.000752658 -0.000552642)
(0.0565105 0.000592959 0.00107978)
(0.0619453 0.000577157 0.00326447)
(0.0831652 0.000583084 0.00375868)
(0.0899878 0.000627108 0.00815419)
(0.0951135 0.000197458 0.0120606)
(0.0964618 -0.000326678 0.0142241)
(0.0936639 -0.000560534 0.0138575)
(0.0894309 -0.000502976 0.0118117)
(0.086509 -0.000340581 0.00995244)
(0.085073 -0.000224197 0.00903339)
(0.0838858 -0.000155698 0.00853144)
(0.0820737 -0.000108148 0.00755595)
(0.0791416 -0.000105969 0.00603244)
(0.0746775 -0.000261179 0.00511773)
(0.0688923 -0.000658807 0.00567837)
(0.0625959 -0.00120279 0.0068273)
(0.0572424 -0.00159708 0.00686465)
(0.0537745 -0.00158696 0.00562096)
(0.0519432 -0.00116847 0.00425236)
(0.0514533 -0.000658237 0.00335591)
(0.0522887 -0.000283121 0.00283084)
(0.0541377 -3.45488e-05 0.00249394)
(0.0565736 3.34439e-05 0.00223962)
(0.0595045 -0.000300061 0.0019347)
(0.0631503 -0.00120804 0.00134607)
(0.067812 -0.00229793 -0.000122892)
(0.0736507 -0.0028852 -0.00312863)
(0.0799489 -0.0026257 -0.00733433)
(0.0850511 -0.00187257 -0.011158)
(0.0873314 -0.000941237 -0.0134071)
(0.0862615 -0.00012846 -0.0138967)
(0.0827252 0.00010006 -0.0125737)
(0.0780637 -0.000328776 -0.0104756)
(0.0730005 -0.000725307 -0.00971698)
(0.0675936 -0.000690245 -0.0108535)
(0.0620687 -0.000532213 -0.0122085)
(0.0577484 -0.000390981 -0.0118621)
(0.0564316 -3.01342e-05 -0.0094631)
(0.0583182 0.000489692 -0.00639765)
(0.0626282 0.000672536 -0.0040996)
(0.0687618 0.000395225 -0.0023564)
(0.0758931 0.000276651 7.67925e-05)
(0.0932901 -0.000521283 -0.00280175)
(0.102624 -0.00022816 0.00210255)
(0.111409 -0.000456828 0.00762862)
(0.116108 -0.000854887 0.0124681)
(0.114382 -0.00093106 0.0146053)
(0.108955 -0.000709938 0.0134009)
(0.104636 -0.000459075 0.010943)
(0.102887 -0.000333323 0.00956422)
(0.10214 -0.000262685 0.00958107)
(0.100951 -0.000187307 0.00947283)
(0.0988515 -0.000136655 0.00783793)
(0.0953274 -0.000189448 0.00571321)
(0.0899676 -0.000518782 0.00537446)
(0.0826326 -0.0011671 0.00690671)
(0.0743839 -0.00181881 0.00787896)
(0.067444 -0.00204051 0.00692032)
(0.0630958 -0.00167566 0.00531194)
(0.0612257 -0.00108009 0.00433361)
(0.0613473 -0.000591639 0.00404618)
(0.0627964 -0.00023474 0.00415113)
(0.0648715 -0.00014558 0.00451029)
(0.0672391 -0.000733693 0.00506558)
(0.0700429 -0.00225936 0.00565651)
(0.0737732 -0.00414808 0.00564601)
(0.0792702 -0.00538068 0.00397059)
(0.0871267 -0.00530406 -0.000142544)
(0.0961909 -0.00400972 -0.00602668)
(0.102954 -0.00213645 -0.011446)
(0.105242 -0.000605303 -0.0144427)
(0.103595 -6.46292e-05 -0.0143085)
(0.0993431 -0.000504882 -0.0119834)
(0.0938336 -0.00096998 -0.0102056)
(0.0878258 -0.000891021 -0.010727)
(0.0812285 -0.000675316 -0.0125023)
(0.0744683 -0.000588308 -0.0134637)
(0.0696063 -0.000344887 -0.0127006)
(0.0683663 8.85283e-05 -0.0109952)
(0.0709395 0.000141571 -0.00964948)
(0.0767321 -0.000427798 -0.0085493)
(0.0845463 -0.000843536 -0.00644708)
(0.0963255 -0.00264063 -0.0120953)
(0.104984 -0.00226641 -0.00801209)
(0.116628 -0.00235664 -0.00221526)
(0.127663 -0.00221203 0.00539575)
(0.130449 -0.00168228 0.0119318)
(0.125215 -0.00106203 0.01397)
(0.119322 -0.00061121 0.0119455)
(0.11718 -0.000417604 0.00952727)
(0.117372 -0.000381509 0.00938241)
(0.117276 -0.000330382 0.0106385)
(0.116148 -0.000225062 0.0101085)
(0.114024 -0.000127863 0.00711054)
(0.110449 -0.000262266 0.00504112)
(0.104255 -0.00079446 0.00612852)
(0.0947867 -0.00157936 0.00812251)
(0.0840533 -0.0021113 0.00805964)
(0.0755442 -0.00201823 0.00641897)
(0.0709398 -0.00149385 0.00515394)
(0.0696298 -0.000928144 0.00485417)
(0.0703018 -0.000430555 0.00517938)
(0.0718256 -0.000282372 0.00583784)
(0.0735766 -0.00119823 0.00681382)
(0.0754001 -0.00353774 0.00828331)
(0.0774048 -0.00640224 0.00993264)
(0.0802778 -0.00840276 0.0107064)
(0.0857437 -0.00879404 0.00915804)
(0.0957353 -0.00749265 0.00406948)
(0.108427 -0.00479138 -0.0039997)
(0.117869 -0.00191943 -0.0113278)
(0.120991 -0.000562626 -0.0144103)
(0.118584 -0.000822412 -0.0133778)
(0.113086 -0.00123117 -0.0111283)
(0.107057 -0.000987997 -0.0105394)
(0.10083 -0.000671852 -0.0117665)
(0.0936618 -0.000583814 -0.013145)
(0.0865401 -0.000427316 -0.0137517)
(0.0814914 -0.000219796 -0.0141383)
(0.0799848 -0.000601137 -0.0150962)
(0.0827584 -0.00178815 -0.0158434)
(0.0889129 -0.00274468 -0.0148629)
(0.0985979 -0.00502499 -0.0207118)
(0.103639 -0.00478603 -0.0173323)
(0.112339 -0.00531992 -0.0124637)
(0.126784 -0.00501623 -0.00491)
(0.137429 -0.00329849 0.00473294)
(0.135573 -0.00166932 0.0115812)
(0.127941 -0.000953248 0.0124531)
(0.124844 -0.000717853 0.00956912)
(0.126984 -0.000536442 0.00799566)
(0.129205 -0.000494579 0.00983033)
(0.129022 -0.000524177 0.0115528)
(0.127761 -0.000332214 0.00924383)
(0.126573 -7.22563e-05 0.00534536)
(0.123902 -0.000276503 0.00485203)
(0.116795 -0.000936138 0.00727277)
(0.104611 -0.00158762 0.00853075)
(0.0914316 -0.00185962 0.00751544)
(0.0822728 -0.00167543 0.00612802)
(0.0783063 -0.00118412 0.00558264)
(0.0778281 -0.000542258 0.00574189)
(0.0791914 -0.000242964 0.00619627)
(0.0815054 -0.00128871 0.00690068)
(0.0839239 -0.004158 0.00840827)
(0.0854497 -0.00785583 0.0109183)
(0.0858739 -0.010753 0.0136471)
(0.086782 -0.0118179 0.015229)
(0.0921561 -0.0108569 0.0134778)
(0.104367 -0.00811509 0.00667645)
(0.119839 -0.00433271 -0.00320024)
(0.130736 -0.00177697 -0.0106685)
(0.132364 -0.00146042 -0.0130747)
(0.126948 -0.00175858 -0.0120366)
(0.120754 -0.00136343 -0.0105221)
(0.116252 -0.000682473 -0.0103528)
(0.111342 -0.000262105 -0.0111184)
(0.105166 4.14724e-05 -0.0120194)
(0.099058 0.000135924 -0.0137205)
(0.0942571 -0.000847907 -0.0171901)
(0.0921485 -0.00303754 -0.0210668)
(0.0941439 -0.00486583 -0.0224031)
(0.104116 -0.00699427 -0.0265836)
(0.10642 -0.00679768 -0.0236551)
(0.110614 -0.00796668 -0.0186073)
(0.121244 -0.00870582 -0.0118924)
(0.136025 -0.00635396 -0.00272914)
(0.141331 -0.0027508 0.00646476)
(0.134296 -0.00109965 0.0108182)
(0.126788 -0.00127513 0.00939484)
(0.12838 -0.00129647 0.00636879)
(0.135197 -0.000733769 0.00691046)
(0.13766 -0.000569047 0.0101767)
(0.134522 -0.00080706 0.0102556)
(0.132577 -0.000777658 0.00605863)
(0.134703 -0.000525392 0.00355379)
(0.134936 -0.00044748 0.00545575)
(0.126834 -0.000696939 0.00787902)
(0.111856 -0.000997608 0.00806471)
(0.0974941 -0.0012605 0.00718738)
(0.0890313 -0.00118637 0.00669446)
(0.0862875 -0.000623362 0.00667422)
(0.0872366 -0.000192047 0.00680041)
(0.0903889 -0.00117679 0.00696886)
(0.0942042 -0.00409487 0.00780838)
(0.0967132 -0.0079674 0.010008)
(0.0967836 -0.0113583 0.0132554)
(0.0947165 -0.0132653 0.0168124)
(0.0942803 -0.0131854 0.0185064)
(0.101242 -0.0110379 0.0148021)
(0.116333 -0.00734766 0.00553539)
(0.132464 -0.00379667 -0.00444109)
(0.13761 -0.00200607 -0.0103186)
(0.128964 -0.00139101 -0.0112549)
(0.117852 -0.00121254 -0.0092101)
(0.114008 -0.00114122 -0.00705347)
(0.115994 -0.000648819 -0.00644582)
(0.117348 0.000408519 -0.00718117)
(0.115703 0.00111702 -0.00935413)
(0.112176 4.78628e-05 -0.0141142)
(0.10746 -0.00310014 -0.0208297)
(0.103917 -0.00620289 -0.0258888)
(0.11332 -0.00762609 -0.028004)
(0.112224 -0.00764682 -0.0273145)
(0.113986 -0.00910883 -0.0223508)
(0.119462 -0.0113994 -0.0154685)
(0.131431 -0.0103153 -0.00755962)
(0.142608 -0.00535558 0.00113236)
(0.142279 -0.00135262 0.00729313)
(0.1335 -0.00103989 0.00800514)
(0.12786 -0.00231482 0.00493955)
(0.132875 -0.00206057 0.00353714)
(0.141527 -0.000450082 0.00647287)
(0.14145 8.155e-05 0.00898102)
(0.134576 -0.00119597 0.00663768)
(0.133086 -0.00260655 0.00314314)
(0.140155 -0.00236248 0.0036537)
(0.143202 -0.000950474 0.00644272)
(0.133571 -1.97017e-05 0.00771413)
(0.117282 -5.04815e-05 0.00763694)
(0.103756 -0.000479523 0.00776217)
(0.0967146 -0.000496239 0.0082555)
(0.0956997 -0.000352902 0.0084837)
(0.0991986 -0.00140669 0.00785334)
(0.104641 -0.00418289 0.00707409)
(0.108654 -0.00769358 0.00786624)
(0.109273 -0.0108005 0.0107278)
(0.106412 -0.0128216 0.0150739)
(0.102297 -0.01359 0.01925)
(0.103025 -0.0128511 0.0188877)
(0.113415 -0.0102719 0.0113501)
(0.128956 -0.00627177 0.000392502)
(0.135627 -0.00228656 -0.0078158)
(0.126499 0.000238297 -0.0101731)
(0.112232 0.000357944 -0.00746249)
(0.105082 -0.00104431 -0.00284944)
(0.107635 -0.00156806 0.000329257)
(0.115395 -0.000167958 0.000754246)
(0.122328 0.00161312 -0.00141553)
(0.12551 0.00147968 -0.0067321)
(0.123967 -0.00162991 -0.0150551)
(0.118296 -0.00573299 -0.023415)
(0.125575 -0.00645743 -0.0248037)
(0.119801 -0.00718453 -0.0280223)
(0.118846 -0.00868164 -0.0253625)
(0.122096 -0.0119744 -0.0185683)
(0.129379 -0.0132424 -0.0109302)
(0.140054 -0.00943252 -0.00346105)
(0.146484 -0.00346203 0.002872)
(0.143351 -0.000736657 0.00557556)
(0.13471 -0.00188772 0.00398765)
(0.130322 -0.00331019 0.00154866)
(0.136281 -0.00199605 0.00269784)
(0.144352 0.000711256 0.00612108)
(0.14326 0.000747536 0.0064908)
(0.136192 -0.00286021 0.0037535)
(0.136719 -0.00584491 0.00299536)
(0.146197 -0.00443926 0.00540469)
(0.148369 -0.000858761 0.00722441)
(0.137467 0.00119292 0.00741292)
(0.122366 0.0013063 0.0078998)
(0.110724 0.000618691 0.00942379)
(0.105462 -0.0004422 0.0106603)
(0.107313 -0.00252883 0.0095386)
(0.114157 -0.00530806 0.00636479)
(0.120837 -0.00783959 0.00456343)
(0.123019 -0.00991026 0.00631124)
(0.119952 -0.0113408 0.0109159)
(0.113598 -0.0120835 0.0168043)
(0.10898 -0.0125007 0.0196724)
(0.112642 -0.0117217 0.0149078)
(0.12396 -0.0082942 0.00437199)
(0.131178 -0.00264471 -0.00528143)
(0.125328 0.00199811 -0.00926315)
(0.113216 0.00275888 -0.00716634)
(0.104795 0.000211244 -0.00162249)
(0.103807 -0.00192311 0.00387869)
(0.109653 -0.00118158 0.0069066)
(0.118984 0.00114167 0.00675838)
(0.128275 0.00224005 0.00261366)
(0.133927 0.000382304 -0.00605537)
(0.132426 -0.00356569 -0.0166504)
(0.137656 -0.00362632 -0.0187258)
(0.129627 -0.00539254 -0.0251786)
(0.124965 -0.00745487 -0.0263151)
(0.126861 -0.0110264 -0.0216804)
(0.132167 -0.0139931 -0.0143411)
(0.138826 -0.0128872 -0.00733951)
(0.145735 -0.00753156 -0.00140382)
(0.148178 -0.0024054 0.00257955)
(0.143085 -0.0011542 0.00308241)
(0.134578 -0.00262822 0.00108113)
(0.132142 -0.0031019 0.000703639)
(0.139082 -0.00101056 0.00346544)
(0.146405 0.000875688 0.00553784)
(0.144964 -0.0012796 0.00430312)
(0.139019 -0.00640891 0.00268449)
(0.141486 -0.0084071 0.00415567)
(0.149946 -0.00457413 0.00659827)
(0.150067 0.000554411 0.00708738)
(0.140039 0.00305918 0.00725449)
(0.127428 0.0031089 0.00938014)
(0.11817 0.000920384 0.011798)
(0.115502 -0.00329368 0.0102193)
(0.120253 -0.00744556 0.00452041)
(0.129292 -0.00921161 5.83933e-05)
(0.135591 -0.00938483 0.000634886)
(0.134316 -0.00952612 0.00523497)
(0.126747 -0.00961357 0.0120625)
(0.117946 -0.0101486 0.0178683)
(0.114842 -0.0108609 0.0169015)
(0.120465 -0.00901985 0.00829992)
(0.126776 -0.00311706 -0.0019183)
(0.125134 0.00302233 -0.00784993)
(0.118288 0.00475075 -0.00822333)
(0.11218 0.00201665 -0.00466345)
(0.109098 -0.00105623 0.000923456)
(0.110264 -0.00137277 0.00622341)
(0.115494 0.000479648 0.00932247)
(0.124197 0.00187827 0.00872064)
(0.135013 0.0014924 0.00249992)
(0.141145 -0.000791978 -0.00833738)
(0.146347 -0.000275562 -0.0125023)
(0.139807 -0.00238719 -0.0205871)
(0.133118 -0.00578064 -0.0244636)
(0.132799 -0.00979376 -0.0229268)
(0.137604 -0.0131576 -0.0174506)
(0.141794 -0.0141919 -0.0111913)
(0.144648 -0.0113343 -0.00526471)
(0.14706 -0.00581609 -0.000204164)
(0.145909 -0.00165688 0.00231578)
(0.139804 -0.00116166 0.00153049)
(0.134259 -0.00252889 0.000357987)
(0.136155 -0.00261195 0.00202567)
(0.143818 -0.00120713 0.00493063)
(0.14829 -0.00146962 0.00523693)
(0.145149 -0.00536807 0.00302653)
(0.141003 -0.00950345 0.00233832)
(0.14415 -0.00850003 0.00439094)
(0.14939 -0.00289628 0.00606268)
(0.147579 0.00241638 0.00684374)
(0.138874 0.00494894 0.00902759)
(0.129334 0.00375744 0.0112543)
(0.123378 -0.0010925 0.00834893)
(0.122719 -0.00756798 0.000540057)
(0.129616 -0.0110406 -0.00549251)
(0.140853 -0.0101171 -0.00513479)
(0.145473 -0.00825475 -6.93884e-05)
(0.139217 -0.00724913 0.00676563)
(0.127957 -0.00706957 0.0139651)
(0.119773 -0.00794246 0.0168863)
(0.119795 -0.00748784 0.0117775)
(0.124047 -0.00276533 0.00216314)
(0.124997 0.00354633 -0.00559553)
(0.122885 0.00590532 -0.00888861)
(0.120623 0.00351998 -0.00831167)
(0.118576 0.000322438 -0.0049401)
(0.1172 -0.000434128 -7.51782e-05)
(0.117627 0.000527469 0.00474485)
(0.121771 0.000738537 0.00761746)
(0.132053 0.000389172 0.00574232)
(0.143796 0.000471292 -0.00218368)
(0.15116 0.00128086 -0.00796113)
(0.149116 0.000584081 -0.0161542)
(0.142635 -0.00354268 -0.021709)
(0.139949 -0.00825484 -0.0223158)
(0.143243 -0.0114916 -0.0189642)
(0.146938 -0.0132335 -0.0145927)
(0.1468 -0.012774 -0.00938938)
(0.14554 -0.00886949 -0.00318791)
(0.144561 -0.00328368 0.00145965)
(0.141629 -0.000162976 0.00221273)
(0.137612 -0.000979517 0.000875466)
(0.13715 -0.00300264 0.00157955)
(0.142467 -0.00316453 0.00481975)
(0.148662 -0.00246298 0.00662324)
(0.14948 -0.00414456 0.00444584)
(0.14483 -0.00789549 0.00128976)
(0.14073 -0.00919694 0.00152271)
(0.139911 -0.00570781 0.0046818)
(0.138419 -0.000240732 0.00813147)
(0.134561 0.00403525 0.0103334)
(0.130876 0.00533486 0.00946329)
(0.128819 0.00237326 0.0039168)
(0.126865 -0.00473427 -0.00390478)
(0.128333 -0.011364 -0.00861162)
(0.138751 -0.0121436 -0.00738315)
(0.149665 -0.00889416 -0.00210791)
(0.148367 -0.00605644 0.00375371)
(0.136659 -0.00465252 0.0100196)
(0.125244 -0.00456175 0.0149374)
(0.121395 -0.00427693 0.0136693)
(0.124036 -0.000915607 0.00621096)
(0.126867 0.00418457 -0.00229759)
(0.127957 0.00603022 -0.00802796)
(0.12876 0.00385469 -0.0103038)
(0.129104 0.00131789 -0.00986678)
(0.128126 0.00112655 -0.00732225)
(0.126545 0.00166945 -0.0030385)
(0.126726 0.000122281 0.00171808)
(0.132187 -0.00210134 0.00358274)
(0.143361 -0.00111398 -0.000157564)
(0.149648 0.000828607 -0.00508173)
(0.154031 0.00228784 -0.0122307)
(0.151274 -0.00103617 -0.0184192)
(0.147528 -0.00576481 -0.0206883)
(0.148882 -0.00898215 -0.0189583)
(0.152794 -0.0111678 -0.0162636)
(0.15263 -0.0123778 -0.0127391)
(0.148422 -0.0104483 -0.0067163)
(0.144629 -0.0049606 -0.00042515)
(0.14195 0.000187893 0.0023144)
(0.139668 0.00102015 0.0020273)
(0.139171 -0.00176847 0.00235535)
(0.142549 -0.00406933 0.00506195)
(0.148361 -0.00385689 0.00753318)
(0.151261 -0.00362021 0.00606015)
(0.147492 -0.00533295 0.00178358)
(0.139078 -0.00684365 -1.93287e-05)
(0.13114 -0.00562415 0.00278416)
(0.126386 -0.00229661 0.00660963)
(0.125849 0.00147728 0.00740164)
(0.129119 0.00450283 0.00394441)
(0.133049 0.00447912 -0.00202149)
(0.134054 -0.000678937 -0.00728391)
(0.13357 -0.00886763 -0.00889645)
(0.13901 -0.0135036 -0.00582605)
(0.149718 -0.0114483 -0.000141525)
(0.152584 -0.00675087 0.00466735)
(0.142797 -0.00341217 0.00877841)
(0.130015 -0.00197445 0.0128142)
(0.123885 -0.000996071 0.013151)
(0.125323 0.00160256 0.00775511)
(0.128925 0.0049061 0.00022483)
(0.130528 0.00549924 -0.00511294)
(0.130829 0.00301227 -0.00766856)
(0.132096 0.000732221 -0.00921108)
(0.134224 0.000977568 -0.0095369)
(0.135558 0.0020507 -0.00669047)
(0.13531 0.0004599 -0.00124345)
(0.135497 -0.00300204 0.00225953)
(0.14073 -0.00300345 0.000581174)
(0.142432 7.68549e-05 -0.0029817)
(0.15122 0.00209798 -0.00885372)
(0.155153 0.00051806 -0.0144755)
(0.153728 -0.00282663 -0.0179118)
(0.154274 -0.00567233 -0.0178696)
(0.158719 -0.00839726 -0.0163742)
(0.159985 -0.0108545 -0.0146072)
(0.154653 -0.010432 -0.0105104)
(0.147718 -0.00579596 -0.00402725)
(0.143344 9.79121e-05 0.00120057)
(0.141463 0.00253209 0.00342935)
(0.141347 0.000416383 0.00419639)
(0.143231 -0.00290335 0.00541808)
(0.146933 -0.00404004 0.00705749)
(0.149675 -0.00369684 0.00701027)
(0.147661 -0.00391567 0.0040732)
(0.140634 -0.00412465 0.000256133)
(0.13233 -0.00314498 -0.00100143)
(0.126948 -0.0016246 0.000490688)
(0.126875 -0.000168866 0.00160754)
(0.131368 0.00193469 -8.59621e-05)
(0.136754 0.00341969 -0.0041066)
(0.139486 0.00153533 -0.00788219)
(0.139821 -0.00482257 -0.00873192)
(0.142438 -0.0118933 -0.00527694)
(0.14973 -0.0133503 0.000519431)
(0.153502 -0.00863015 0.00506949)
(0.146499 -0.00294409 0.00852694)
(0.134756 0.000180431 0.0120552)
(0.127543 0.00144019 0.0126472)
(0.126481 0.00330614 0.0081959)
(0.127132 0.00577838 0.00252782)
(0.126301 0.00598987 -0.000312041)
(0.125396 0.00305535 -0.00127946)
(0.127083 2.12075e-05 -0.00320093)
(0.131591 -0.000196105 -0.00500443)
(0.136121 0.00129329 -0.00320732)
(0.137499 0.000980904 0.0017532)
(0.136029 -0.00144528 0.00455682)
(0.136288 -0.00240938 0.00226099)
(0.137546 0.00132522 -0.000121673)
(0.145296 0.0022124 -0.00549345)
(0.153011 0.00137771 -0.0101526)
(0.15673 -0.000376166 -0.0133989)
(0.15948 -0.00223106 -0.0145312)
(0.164489 -0.00506772 -0.0146589)
(0.166792 -0.00837564 -0.0150056)
(0.161416 -0.00898132 -0.0133691)
(0.152292 -0.00524029 -0.00776807)
(0.145619 0.000383793 -0.00112181)
(0.142919 0.00336268 0.00318439)
(0.142706 0.00206181 0.00505182)
(0.143902 -0.00111194 0.00593526)
(0.145704 -0.00300138 0.00659377)
(0.146306 -0.00338103 0.00670093)
(0.143929 -0.00341086 0.00522301)
(0.139399 -0.00276494 0.0017044)
(0.135277 -0.00114891 -0.00187454)
(0.133181 -0.000156138 -0.00255737)
(0.133739 -0.000586133 -0.000800001)
(0.136523 -0.000511876 -5.36456e-05)
(0.139474 0.00103256 -0.00202307)
(0.140444 0.00170706 -0.0046011)
(0.140341 -0.00157798 -0.00519743)
(0.142245 -0.00823737 -0.00303272)
(0.147617 -0.0124002 0.00112287)
(0.152217 -0.00970844 0.00503932)
(0.149509 -0.00313559 0.00790908)
(0.141095 0.00207949 0.0105156)
(0.133415 0.00467846 0.011334)
(0.128426 0.00587136 0.00871611)
(0.124683 0.00656698 0.00510198)
(0.122184 0.00560282 0.00341842)
(0.122278 0.00211482 0.00321173)
(0.125275 -0.00191241 0.00201683)
(0.130218 -0.00344459 -5.56791e-05)
(0.134965 -0.00185113 -7.19262e-05)
(0.136888 0.000236104 0.00312321)
(0.135701 0.000718468 0.00600403)
(0.134522 0.000428274 0.0046885)
(0.136623 0.00462946 0.00336749)
(0.142143 0.00402124 -0.00109077)
(0.149056 0.00219915 -0.00565722)
(0.155135 0.000923442 -0.00937437)
(0.16094 0.000248878 -0.0112634)
(0.167257 -0.00187764 -0.011901)
(0.170191 -0.00524597 -0.0131571)
(0.165738 -0.00639725 -0.0141211)
(0.156899 -0.0033208 -0.0112942)
(0.149399 0.00141964 -0.00492093)
(0.14523 0.00376476 0.000959394)
(0.143334 0.00260478 0.00415523)
(0.142701 0.000201241 0.00550652)
(0.14272 -0.00118916 0.0062401)
(0.14223 -0.00143439 0.00641793)
(0.140384 -0.00158914 0.00528526)
(0.138482 -0.00129671 0.00241918)
(0.138656 -0.000172085 -0.000949712)
(0.140786 -7.53218e-05 -0.00219927)
(0.142583 -0.00214438 -0.000724105)
(0.142079 -0.00365088 0.00113761)
(0.139659 -0.00173093 0.00133273)
(0.137673 0.00124622 0.000941601)
(0.13839 0.000508475 0.00163738)
(0.141959 -0.00502231 0.00332825)
(0.146852 -0.0106293 0.00532151)
(0.150526 -0.0101402 0.00645164)
(0.149182 -0.00353148 0.00724168)
(0.1428 0.00345152 0.00879994)
(0.135332 0.00694248 0.00945142)
(0.128654 0.00720599 0.00784707)
(0.123235 0.0065455 0.00614584)
(0.120696 0.00566088 0.00648932)
(0.121814 0.00352141 0.00756109)
(0.125471 0.000131653 0.00683103)
(0.130046 -0.00250971 0.00464835)
(0.133812 -0.00219059 0.00362296)
(0.13536 0.000442819 0.00503489)
(0.134873 0.00273713 0.00695601)
(0.13445 0.00401003 0.0065984)
(0.138353 0.00661047 0.00626237)
(0.141324 0.00535906 0.00262465)
(0.146076 0.0020949 -0.00218281)
(0.151884 -0.000832609 -0.00620505)
(0.158761 -0.00136559 -0.00839392)
(0.165462 -0.000604962 -0.00950477)
(0.168459 -0.00100328 -0.01094)
(0.166042 -0.00207889 -0.0126737)
(0.160901 -0.000968119 -0.0124208)
(0.156554 0.00210187 -0.00870472)
(0.153286 0.00393579 -0.00357914)
(0.149544 0.00313097 0.000232468)
(0.145191 0.00122402 0.00233216)
(0.141447 -0.000329271 0.0037253)
(0.139385 -0.00116602 0.00480929)
(0.139245 -0.00138837 0.00517504)
(0.141361 -0.000928247 0.00438355)
(0.146298 -1.93679e-05 0.00235739)
(0.151959 -9.76677e-05 0.000141487)
(0.153667 -0.0021156 0.000100657)
(0.149758 -0.00379141 0.00338616)
(0.143434 -0.00213477 0.00736826)
(0.139475 0.00165709 0.0082731)
(0.139858 0.003163 0.00519147)
(0.143039 -0.000289913 0.00186979)
(0.147024 -0.00649606 0.00248404)
(0.149846 -0.00847283 0.00511957)
(0.148432 -0.00294603 0.00586071)
(0.142092 0.00517244 0.00601389)
(0.134173 0.00978387 0.00681258)
(0.127659 0.0101171 0.00716129)
(0.123717 0.00854776 0.00667021)
(0.122831 0.00681036 0.00609765)
(0.124342 0.0049053 0.00585551)
(0.127062 0.00254131 0.00555051)
(0.130448 0.000537874 0.00480025)
(0.134244 0.000380811 0.00420718)
(0.137343 0.00223853 0.00481475)
(0.138331 0.00437764 0.0063622)
(0.13782 0.00593946 0.00737945)
(0.137331 0.00596606 0.00695093)
(0.140233 0.00502889 0.00542352)
(0.144918 0.0016323 0.00147195)
(0.149958 -0.00269173 -0.00343113)
(0.155385 -0.00493642 -0.00703876)
(0.161379 -0.00409855 -0.00853859)
(0.165663 -0.00192999 -0.00899578)
(0.165305 -0.000203756 -0.00967165)
(0.161044 0.00135882 -0.0101207)
(0.156792 0.0033279 -0.00894554)
(0.154893 0.00459542 -0.00620151)
(0.154083 0.00436397 -0.00334764)
(0.152193 0.00318809 -0.00134432)
(0.148675 0.00162696 0.000113932)
(0.144644 -0.00084116 0.00169693)
(0.141882 -0.00422482 0.00351912)
(0.142215 -0.00711986 0.00501512)
(0.146828 -0.00819739 0.00514208)
(0.153488 -0.00747152 0.00343636)
(0.156553 -0.00594104 0.00180139)
(0.153342 -0.00414867 0.0029665)
(0.147111 -0.00119721 0.00612687)
(0.142355 0.00322383 0.0067942)
(0.140431 0.00650668 0.00264559)
(0.140306 0.00526491 -0.0029662)
(0.142095 -0.000566436 -0.00422819)
(0.145207 -0.00585247 -0.00047816)
(0.14636 -0.00452887 0.00324232)
(0.143242 0.0029413 0.00468119)
(0.137926 0.0100823 0.00536027)
(0.134245 0.0131462 0.00523692)
(0.133358 0.0127952 0.00346694)
(0.133985 0.0107583 0.000963749)
(0.134656 0.00800243 -0.000472294)
(0.134988 0.00511684 -4.44627e-05)
(0.135472 0.00304104 0.00162641)
(0.136553 0.0025705 0.00331854)
(0.13769 0.00341569 0.00447277)
(0.137777 0.00444541 0.00543392)
(0.137007 0.00532917 0.00649579)
(0.136688 0.00173777 0.0115293)
(0.139905 -0.000597692 0.0114704)
(0.145967 -0.002972 0.00803079)
(0.152575 -0.00473136 0.00219595)
(0.156928 -0.00478854 -0.0035992)
(0.157609 -0.0027208 -0.00759978)
(0.155213 0.000491142 -0.0094026)
(0.151468 0.0032326 -0.00939343)
(0.148031 0.00471677 -0.00836846)
(0.145766 0.00495008 -0.00733124)
(0.145096 0.00417423 -0.006803)
(0.146217 0.002797 -0.00638177)
(0.149001 0.00149529 -0.0052774)
(0.152421 0.00069045 -0.00358829)
(0.154604 -3.35919e-05 -0.00196627)
(0.154296 -0.00164383 -0.000258971)
(0.152224 -0.00458658 0.00232078)
(0.150879 -0.00821401 0.0054979)
(0.151646 -0.0105694 0.00769503)
(0.152914 -0.0095075 0.00782274)
(0.152033 -0.00504307 0.00660434)
(0.148502 0.000406502 0.00537065)
(0.144262 0.00422471 0.00375199)
(0.141318 0.00497607 0.000521719)
(0.140318 0.00256253 -0.00340102)
(0.141485 -0.00165088 -0.00459544)
(0.144172 -0.00529839 -0.00132551)
(0.146071 -0.00520864 0.00367445)
(0.1455 -0.000137246 0.0069766)
(0.143901 0.00659619 0.00750629)
(0.143795 0.0111755 0.00517835)
(0.14512 0.0126817 0.00034911)
(0.146044 0.0116155 -0.0050659)
(0.145705 0.00861741 -0.00869253)
(0.144482 0.00497865 -0.00911248)
(0.143206 0.00282872 -0.00629698)
(0.142367 0.00319408 -0.00165135)
(0.141242 0.00473367 0.00285837)
(0.139084 0.00521304 0.00640638)
(0.13687 0.0039114 0.00935374)
(0.150377 0.00104965 0.00709023)
(0.151853 -0.00166338 0.0109872)
(0.152558 -0.00311624 0.012842)
(0.154027 -0.00337544 0.011411)
(0.157076 -0.00213361 0.00701815)
(0.160343 0.00110754 0.00129509)
(0.161597 0.00534453 -0.00393715)