/*--------------------------------*- C++ -*----------------------------------*\
| =========                 |                                                 |
| \\      /  F ield         | OpenFOAM: The Open Source CFD Toolbox           |
|  \\    /   O peration     | Version:  2306                                  |
|   \\  /    A nd           | Website:  www.openfoam.com                      |
|    \\/     M anipulation  |                                                 |
\*---------------------------------------------------------------------------*/
FoamFile
{
    version     2.0;
    format      ascii;
    arch        "LSB;label=32;scalar=64";
    class       volVectorField;
    location    "4";
    object      U_0;
}
// * * * * * * * * * * * * * * * * * * * * * * * * * * * * * * * * * * * * * //

dimensions      [0 1 -1 0 0 0 0];

internalField   nonuniform List<vector> 
60000
(
(0.00973766 5.42774e-05 0.00161944)
(0.00999904 5.7226e-05 0.00230965)
(0.00992523 3.93204e-05 0.0027282)
(0.00963208 1.37452e-05 0.00273224)
(0.0093402 -4.60938e-06 0.00244026)
(0.00914456 -8.24544e-06 0.0020536)
(0.00898841 -3.48397e-06 0.00167574)
(0.00881053 -4.20577e-07 0.00132437)
(0.00855904 -4.3282e-06 0.00104906)
(0.00811282 -9.60786e-06 0.000922987)
(0.0073702 -1.19747e-05 0.000941655)
(0.006479 -1.06386e-05 0.00103234)
(0.00579648 -6.46545e-06 0.00110424)
(0.00551819 -7.57235e-06 0.00112877)
(0.00558087 -1.67288e-05 0.00103033)
(0.00577873 -2.52602e-05 0.000778092)
(0.00592672 -2.00168e-05 0.000483024)
(0.00603024 -6.56277e-06 0.000217934)
(0.00622314 3.50753e-06 2.41907e-06)
(0.00653936 1.37033e-05 -0.000171844)
(0.00687951 2.28951e-05 -0.000332923)
(0.00717683 2.81913e-05 -0.000561985)
(0.00747436 2.03032e-05 -0.000891557)
(0.00786822 3.67645e-06 -0.00135008)
(0.00838012 -8.99476e-06 -0.00189113)
(0.00886011 -1.28039e-05 -0.00233324)
(0.00909794 -1.52517e-05 -0.0025028)
(0.00893513 -9.39083e-06 -0.00249844)
(0.00834518 1.7054e-06 -0.00246921)
(0.00749982 1.38915e-05 -0.00232361)
(0.00673137 6.8032e-06 -0.00210363)
(0.00626062 -5.71336e-06 -0.00201622)
(0.00605666 -2.19627e-06 -0.00200359)
(0.00607807 4.2471e-06 -0.00183414)
(0.0063172 9.15176e-06 -0.00135468)
(0.00670596 2.14275e-05 -0.00064144)
(0.00716027 3.75349e-05 2.24063e-06)
(0.00771064 4.60702e-05 0.000378529)
(0.00840576 4.12721e-05 0.000611879)
(0.0091541 4.21964e-05 0.000993273)
(0.0291914 0.000289262 0.00458031)
(0.0302852 0.000293158 0.00623563)
(0.0304765 0.000191229 0.00711476)
(0.02981 4.7005e-05 0.00693855)
(0.0288473 -4.84536e-05 0.00610965)
(0.0280811 -6.22649e-05 0.00520076)
(0.027533 -3.15493e-05 0.00439741)
(0.0269888 -6.71186e-06 0.0036283)
(0.0261999 -2.66881e-06 0.00294842)
(0.0248542 -5.41028e-06 0.00254464)
(0.0227592 -2.36982e-05 0.00252181)
(0.0202958 -7.4278e-05 0.00277637)
(0.0183268 -0.000143224 0.00301697)
(0.0173507 -0.00020878 0.00301885)
(0.0172143 -0.000247439 0.00263903)
(0.0174087 -0.000229372 0.00195647)
(0.0175894 -0.000147048 0.00123928)
(0.0178621 -5.59519e-05 0.000618574)
(0.0184658 5.13682e-06 0.000100143)
(0.0193746 5.3238e-05 -0.000355512)
(0.0203959 8.87126e-05 -0.000841272)
(0.0214691 7.88474e-05 -0.00151315)
(0.0227012 -8.87855e-06 -0.00244234)
(0.0242041 -0.000122642 -0.00368465)
(0.0258785 -0.0001812 -0.0050894)
(0.0272997 -0.000159621 -0.00619472)
(0.027936 -0.000101562 -0.00661231)
(0.027384 -1.23e-05 -0.0065504)
(0.0256801 7.38192e-05 -0.00627693)
(0.0234201 8.51221e-05 -0.00575127)
(0.021333 -1.43993e-05 -0.00531952)
(0.0197387 -9.86612e-05 -0.00535142)
(0.0186773 -8.89335e-05 -0.00542796)
(0.0183551 -4.54918e-05 -0.00485856)
(0.0188647 1.37653e-05 -0.0034247)
(0.0199639 0.000113176 -0.00154163)
(0.0213728 0.000218562 5.43344e-05)
(0.0231187 0.00025145 0.00103415)
(0.0252271 0.000217443 0.0017867)
(0.0273991 0.000227986 0.00292537)
(0.0488477 0.000578443 0.0065738)
(0.0512634 0.000547599 0.00906913)
(0.0522375 0.000310325 0.0104828)
(0.0514441 1.02981e-05 0.0103112)
(0.0496679 -0.000163634 0.00906691)
(0.0480648 -0.000172198 0.00773369)
(0.0470056 -0.000101913 0.00669945)
(0.0461297 -4.80313e-05 0.00576861)
(0.0449318 -3.01143e-05 0.00482667)
(0.0429532 -2.91864e-05 0.00404956)
(0.0398917 -6.93275e-05 0.00375013)
(0.0360866 -0.000195112 0.00404286)
(0.0326211 -0.000382266 0.00453829)
(0.0304015 -0.000553591 0.00464421)
(0.0295106 -0.000631981 0.00407303)
(0.0293108 -0.000560529 0.00307515)
(0.0293096 -0.000355025 0.00208002)
(0.0296473 -0.000143354 0.0012465)
(0.0305922 -2.14146e-06 0.000546405)
(0.0320419 9.56335e-05 -8.92561e-05)
(0.0337493 0.000144798 -0.000785053)
(0.0356884 7.05842e-05 -0.00173154)
(0.0380133 -0.000182325 -0.00305619)
(0.0408041 -0.000466512 -0.00490139)
(0.0438273 -0.000596459 -0.00710862)
(0.0464094 -0.000524137 -0.0089825)
(0.0477273 -0.000346853 -0.00984767)
(0.0471336 -0.000100326 -0.00984238)
(0.0446831 0.000117419 -0.00929602)
(0.0413058 0.000126502 -0.00831114)
(0.0379966 -0.000100603 -0.00759444)
(0.0350781 -0.000267615 -0.00780658)
(0.0326273 -0.000237859 -0.0082874)
(0.0312295 -0.000138602 -0.00776525)
(0.0314141 -1.80879e-06 -0.00576439)
(0.0329437 0.000226845 -0.00297492)
(0.0352517 0.000469049 -0.000540587)
(0.0382261 0.000539671 0.00103408)
(0.0418167 0.000452443 0.00229101)
(0.0455483 0.000471815 0.00407698)
(0.0677392 0.000768061 0.00680834)
(0.0720449 0.000696783 0.0102108)
(0.0745066 0.000316448 0.0125483)
(0.0740885 -0.000121242 0.0129391)
(0.0714814 -0.000346537 0.0115767)
(0.0687258 -0.000329868 0.00977684)
(0.0669744 -0.00021211 0.00850541)
(0.0658365 -0.000123203 0.00763939)
(0.0644698 -7.95167e-05 0.00672649)
(0.0622888 -6.01427e-05 0.00562006)
(0.0588746 -0.000102242 0.00475333)
(0.0542384 -0.000290053 0.00475526)
(0.0492457 -0.000622617 0.00550552)
(0.0450873 -0.000963911 0.00600297)
(0.0425479 -0.00113356 0.00547107)
(0.0413253 -0.00102186 0.00425731)
(0.040798 -0.000673663 0.00308499)
(0.0409812 -0.000313826 0.00218886)
(0.0420897 -7.13026e-05 0.00148609)
(0.0439299 8.48075e-05 0.000870089)
(0.0462069 0.000129168 0.000215468)
(0.0489128 -6.45222e-05 -0.000670385)
(0.0522533 -0.000584283 -0.0019941)
(0.0563271 -0.00114309 -0.00410075)
(0.0608703 -0.00138397 -0.00704284)
(0.065004 -0.00122531 -0.00999975)
(0.0675895 -0.000854046 -0.011839)
(0.0676772 -0.000346346 -0.0123557)
(0.0651952 8.7005e-05 -0.0118175)
(0.0612225 0.000126462 -0.0103826)
(0.0569494 -0.000233269 -0.00908399)
(0.0527542 -0.000496637 -0.00918617)
(0.0486279 -0.000450792 -0.0102409)
(0.0452687 -0.000313316 -0.0104779)
(0.0439441 -0.000126532 -0.00873566)
(0.0450874 0.000231605 -0.00555311)
(0.0479503 0.000636658 -0.0024655)
(0.0520388 0.000760091 -0.000358119)
(0.0571286 0.000597702 0.00130899)
(0.062578 0.000602771 0.00359224)
(0.0840246 0.000629485 0.00425507)
(0.0907717 0.000590313 0.00864386)
(0.0956381 0.000116887 0.0124165)
(0.0965629 -0.000393887 0.0143215)
(0.0934981 -0.000597397 0.013673)
(0.0893399 -0.000514113 0.0115243)
(0.0866192 -0.0003432 0.0097539)
(0.085275 -0.000226791 0.008953)
(0.0840412 -0.000155047 0.0084799)
(0.0821158 -0.000106265 0.00744713)
(0.0790379 -0.000113565 0.00590794)
(0.0744066 -0.000291094 0.00509617)
(0.0684683 -0.000714277 0.00577841)
(0.0621255 -0.00126181 0.00691488)
(0.0568918 -0.00162515 0.00682473)
(0.053595 -0.00156551 0.00551109)
(0.0518921 -0.00111594 0.00416032)
(0.0515118 -0.000610311 0.00329983)
(0.0524466 -0.000252101 0.002802)
(0.0543609 -2.22849e-05 0.00248259)
(0.0568381 1.39151e-05 0.00222787)
(0.0598251 -0.000368413 0.0018915)
(0.0635659 -0.00130944 0.00121867)
(0.0683643 -0.00236591 -0.000409123)
(0.0743244 -0.00286568 -0.00359065)
(0.0806071 -0.00253262 -0.00784886)
(0.0855162 -0.0017694 -0.0115461)
(0.0875237 -0.000857277 -0.0135972)
(0.0862047 -8.79255e-05 -0.0138645)
(0.0825073 6.65123e-05 -0.0123621)
(0.077747 -0.000393051 -0.0102926)
(0.0726024 -0.000749083 -0.00972923)
(0.0671214 -0.000680632 -0.0109958)
(0.0616083 -0.000523556 -0.012293)
(0.0574979 -0.000373404 -0.0117657)
(0.056522 1.1113e-05 -0.00922706)
(0.0587115 0.000528559 -0.00616192)
(0.0632511 0.000674843 -0.00390929)
(0.0695448 0.00038986 -0.00211055)
(0.0767484 0.00031922 0.000457061)
(0.0943839 -0.000452404 -0.00227466)
(0.103769 -0.000235058 0.00271603)
(0.11234 -0.000526395 0.00823735)
(0.116437 -0.000913688 0.012883)
(0.114146 -0.000957621 0.0146361)
(0.108669 -0.00071573 0.0131176)
(0.104646 -0.000462613 0.010651)
(0.103114 -0.00033901 0.00945018)
(0.102373 -0.000260854 0.00958634)
(0.101088 -0.000180971 0.00940247)
(0.098873 -0.000137048 0.0076381)
(0.0951838 -0.000208256 0.00556987)
(0.0895838 -0.000573917 0.00544047)
(0.0820053 -0.00124646 0.00706937)
(0.0737152 -0.00187758 0.00790865)
(0.0669769 -0.0020372 0.00680964)
(0.0628855 -0.00161948 0.0052007)
(0.0612146 -0.00101913 0.00427945)
(0.0614737 -0.000548882 0.00404133)
(0.0629942 -0.000217429 0.00418313)
(0.0650875 -0.00018032 0.00456784)
(0.0674636 -0.000850894 0.0051279)
(0.07032 -0.00243342 0.00567359)
(0.0742083 -0.00428339 0.00551756)
(0.0799859 -0.00539088 0.00358796)
(0.0881058 -0.00517552 -0.000793431)
(0.097133 -0.00380657 -0.00675802)
(0.103543 -0.00196232 -0.0119794)
(0.105455 -0.000517166 -0.0146263)
(0.103506 -9.16598e-05 -0.0141555)
(0.0990376 -0.000582034 -0.0117303)
(0.0934083 -0.0009971 -0.0101242)
(0.0873094 -0.000874388 -0.0108459)
(0.0806266 -0.000666192 -0.0126567)
(0.0739264 -0.000582287 -0.0135121)
(0.0693551 -0.000317438 -0.0126314)
(0.068513 0.000110127 -0.0109034)
(0.0714615 0.000114764 -0.00956948)
(0.0775486 -0.000468558 -0.00836999)
(0.0855366 -0.000805649 -0.00608456)
(0.0973155 -0.00257076 -0.0116704)
(0.106249 -0.00225705 -0.00743796)
(0.118141 -0.0023935 -0.00142661)
(0.128614 -0.00220226 0.0062491)
(0.13036 -0.00165525 0.0124311)
(0.124687 -0.00104303 0.0139123)
(0.119111 -0.000608016 0.0115972)
(0.117384 -0.000425818 0.00930756)
(0.117685 -0.000383037 0.00942373)
(0.117486 -0.000320349 0.0106988)
(0.116263 -0.00021417 0.00991664)
(0.114047 -0.000127764 0.00680909)
(0.110262 -0.000295711 0.00497691)
(0.103682 -0.000871672 0.00632219)
(0.093873 -0.0016639 0.00826521)
(0.0831634 -0.00214576 0.00799753)
(0.0750026 -0.00198142 0.00629002)
(0.0707643 -0.001429 0.00508237)
(0.0696886 -0.000871903 0.00485089)
(0.0704654 -0.000402601 0.00522266)
(0.0719996 -0.000332611 0.00591294)
(0.0737085 -0.00137855 0.00692434)
(0.0754781 -0.00380803 0.00842873)
(0.0775094 -0.00662551 0.010038)
(0.0806236 -0.00846547 0.0106194)
(0.0865837 -0.00868106 0.00871402)
(0.0970645 -0.00723746 0.00321644)
(0.109747 -0.00448039 -0.00498271)
(0.118668 -0.00171378 -0.011945)
(0.121199 -0.000553421 -0.0145016)
(0.118325 -0.00090279 -0.013168)
(0.112638 -0.00125121 -0.0109582)
(0.106576 -0.000956158 -0.0105637)
(0.100265 -0.000656689 -0.0118905)
(0.0930239 -0.000579198 -0.0132537)
(0.0860012 -0.000413471 -0.0138491)
(0.0812304 -0.000236373 -0.0142992)
(0.0801252 -0.000692551 -0.0152789)
(0.0833405 -0.00189761 -0.0158542)
(0.0897734 -0.00274349 -0.0146197)
(0.0992843 -0.00495132 -0.0203944)
(0.104545 -0.00480605 -0.0168515)
(0.11389 -0.00538861 -0.0117479)
(0.128535 -0.00492719 -0.00386493)
(0.137975 -0.0031236 0.00573959)
(0.134928 -0.0015702 0.0120076)
(0.127335 -0.000938801 0.0122539)
(0.124948 -0.000722567 0.00921694)
(0.127442 -0.000531588 0.00795795)
(0.129495 -0.00048956 0.0100362)
(0.129094 -0.000516453 0.0115269)
(0.127845 -0.000310983 0.00885837)
(0.126653 -6.53429e-05 0.00506948)
(0.123665 -0.000324595 0.00497729)
(0.11596 -0.00101282 0.00751812)
(0.103377 -0.00164991 0.008583)
(0.0903843 -0.00186674 0.00741733)
(0.0817517 -0.00163249 0.0060441)
(0.0782205 -0.00112167 0.00556083)
(0.0779724 -0.00049806 0.00576001)
(0.0794278 -0.000294032 0.00622897)
(0.0817357 -0.00150854 0.00696899)
(0.0840202 -0.00450639 0.00856972)
(0.0853405 -0.00818502 0.011169)
(0.0857159 -0.0109152 0.0138714)
(0.0870134 -0.0117574 0.015189)
(0.0931566 -0.010615 0.0129117)
(0.10601 -0.00774122 0.00559887)
(0.121426 -0.00398914 -0.00425916)
(0.131518 -0.00167413 -0.0111956)
(0.132171 -0.00151976 -0.0131127)
(0.126325 -0.00178047 -0.0118698)
(0.120264 -0.00131428 -0.0104047)
(0.115876 -0.000633593 -0.0103498)
(0.110885 -0.000233391 -0.0111718)
(0.104658 6.53819e-05 -0.0121537)
(0.0985977 8.95831e-05 -0.0140708)
(0.0939324 -0.00103113 -0.0177252)
(0.0921926 -0.0032572 -0.0214464)
(0.0946485 -0.00491872 -0.0223799)
(0.10448 -0.00693192 -0.0264431)
(0.107005 -0.00683672 -0.0231693)
(0.111685 -0.00814933 -0.0179183)
(0.12308 -0.00865726 -0.0109526)
(0.137434 -0.00598569 -0.00158278)
(0.141132 -0.00244972 0.00728408)
(0.133314 -0.0010452 0.0109401)
(0.126439 -0.00132263 0.00904355)
(0.12899 -0.0012739 0.00615503)
(0.135854 -0.00067675 0.00711925)
(0.137633 -0.000565506 0.0103679)
(0.134205 -0.000832375 0.00997228)
(0.132665 -0.000780962 0.00561261)
(0.135037 -0.00051728 0.00351959)
(0.13469 -0.000463958 0.00574232)
(0.12569 -0.000733965 0.00806728)
(0.110377 -0.00103204 0.0080678)
(0.0964356 -0.00126882 0.00714831)
(0.0886192 -0.0011508 0.00668282)
(0.0863432 -0.000576459 0.00667604)
(0.0875536 -0.000237758 0.00678816)
(0.0908054 -0.00140557 0.00696268)
(0.0945068 -0.00445762 0.00789881)
(0.0966996 -0.00834111 0.0102582)
(0.0964281 -0.0116235 0.0136317)
(0.0943478 -0.0133326 0.0171407)
(0.0945873 -0.013029 0.0183625)
(0.102565 -0.0106976 0.013939)
(0.11826 -0.00694401 0.0043191)
(0.133778 -0.00353598 -0.00536398)
(0.137264 -0.00191934 -0.0106687)
(0.127618 -0.00138119 -0.0111399)
(0.11692 -0.0012295 -0.00891269)
(0.113927 -0.00113634 -0.00683142)
(0.116258 -0.000570389 -0.00638412)
(0.117429 0.000516329 -0.00728298)
(0.11554 0.00111245 -0.00974753)
(0.111776 -0.000188203 -0.0148747)
(0.106958 -0.00345592 -0.0216502)
(0.103804 -0.00636775 -0.0262851)
(0.113154 -0.0076345 -0.0282544)
(0.112564 -0.00768791 -0.0269436)
(0.114667 -0.00940566 -0.0216031)
(0.120777 -0.0115461 -0.0145823)
(0.133158 -0.00993078 -0.00654313)
(0.143332 -0.00476484 0.00205839)
(0.141623 -0.00110086 0.00768202)
(0.13254 -0.00113298 0.00778976)
(0.127829 -0.00239184 0.00460225)
(0.133794 -0.00192364 0.00360808)
(0.14207 -0.000285163 0.00679499)
(0.140961 3.63282e-05 0.00894685)
(0.133995 -0.00141091 0.00622362)
(0.133478 -0.0027277 0.00294554)
(0.140923 -0.0022813 0.00388447)
(0.142904 -0.000826028 0.00672132)
(0.132176 1.93724e-05 0.00782306)
(0.115769 -7.80611e-05 0.00768548)
(0.102826 -0.000507178 0.00783315)
(0.0964659 -0.000500532 0.00831448)
(0.0959817 -0.000423764 0.00845742)
(0.0997869 -0.00164414 0.00773439)
(0.10519 -0.00452124 0.00702328)
(0.108822 -0.00803139 0.00805384)
(0.108949 -0.0110737 0.011158)
(0.105771 -0.0129804 0.0156243)
(0.101932 -0.0136026 0.0195077)
(0.103687 -0.0126615 0.0183418)
(0.115068 -0.00990395 0.010147)
(0.130382 -0.00581595 -0.000773155)
(0.135338 -0.00193194 -0.00840545)
(0.124904 0.000352391 -0.01009)
(0.110917 0.000233333 -0.00696613)
(0.104795 -0.00120481 -0.00232523)
(0.108236 -0.00152847 0.00060908)
(0.116296 2.87514e-05 0.000730877)
(0.122989 0.00173467 -0.00181014)
(0.125648 0.00131461 -0.007592)
(0.123482 -0.00204784 -0.0161725)
(0.117632 -0.0060469 -0.0242883)
(0.124925 -0.00659122 -0.0255112)
(0.119708 -0.00724586 -0.0280322)
(0.119327 -0.00901752 -0.0247072)
(0.122979 -0.0123511 -0.0176242)
(0.13074 -0.0130988 -0.00999103)
(0.141318 -0.0087502 -0.00260602)
(0.146683 -0.00288674 0.00341194)
(0.142536 -0.000656218 0.00558517)
(0.133808 -0.00207205 0.0036668)
(0.130425 -0.00330209 0.00143706)
(0.13721 -0.00169749 0.00297328)
(0.144778 0.000907289 0.00632541)
(0.142703 0.000476045 0.00628991)
(0.135713 -0.00336158 0.00349744)
(0.137444 -0.00598629 0.00311831)
(0.147044 -0.00413042 0.00570447)
(0.147848 -0.000545699 0.00737502)
(0.136025 0.00129558 0.00748884)
(0.121024 0.00126453 0.00805757)
(0.109982 0.000508185 0.0096155)
(0.105436 -0.000657496 0.0106818)
(0.107919 -0.00282932 0.00928047)
(0.115 -0.00558421 0.00607508)
(0.121318 -0.00805873 0.00461289)
(0.122814 -0.0101091 0.00676138)
(0.11919 -0.0114912 0.0116208)
(0.112757 -0.0122008 0.0173978)
(0.108867 -0.0125225 0.0195172)
(0.113658 -0.0114932 0.0138723)
(0.125207 -0.00773637 0.00310869)
(0.131178 -0.00203401 -0.00606522)
(0.1241 0.0022789 -0.00931553)
(0.111993 0.00259292 -0.00665956)
(0.104257 -0.000112935 -0.000914244)
(0.104079 -0.00201657 0.00443013)
(0.110561 -0.000991934 0.00712379)
(0.120161 0.00136938 0.00652922)
(0.129257 0.00224438 0.00178742)
(0.134153 6.81955e-05 -0.0073482)
(0.131839 -0.00396054 -0.0178726)
(0.136987 -0.00386932 -0.0197508)
(0.12911 -0.00555646 -0.0256195)
(0.125162 -0.00780358 -0.0260364)
(0.127625 -0.0115056 -0.0208233)
(0.1331 -0.0141632 -0.0133786)
(0.139872 -0.0124356 -0.0065196)
(0.14644 -0.00678614 -0.000802261)
(0.147975 -0.00197595 0.00281077)
(0.142119 -0.00118357 0.00292154)
(0.133802 -0.00276057 0.000880591)
(0.132448 -0.00296899 0.000838687)
(0.140023 -0.000724956 0.00375275)
(0.146771 0.000836391 0.00554936)
(0.144405 -0.00183458 0.00407154)
(0.138729 -0.00695157 0.00266413)
(0.142311 -0.00829327 0.00445339)
(0.150544 -0.00399951 0.00680865)
(0.149427 0.000964463 0.00713347)
(0.138768 0.00317103 0.00741758)
(0.126323 0.00297408 0.00968957)
(0.117625 0.000521935 0.0118477)
(0.115698 -0.00380113 0.00975675)
(0.121157 -0.00774101 0.00394528)
(0.130304 -0.00924928 -5.92217e-05)
(0.13584 -0.00938317 0.00107363)
(0.133622 -0.00959749 0.00602143)
(0.125613 -0.00972574 0.0129161)
(0.117151 -0.0103008 0.0181547)
(0.115089 -0.0108338 0.0161993)
(0.12134 -0.00852831 0.00708028)
(0.127045 -0.00237124 -0.00286813)
(0.124528 0.00346184 -0.00817063)
(0.117513 0.00461939 -0.00799218)
(0.111645 0.00163067 -0.00407228)
(0.108961 -0.00126382 0.00162585)
(0.110652 -0.00127943 0.00675248)
(0.116382 0.000686168 0.00946443)
(0.125519 0.00199405 0.00824158)
(0.136175 0.00140179 0.00131413)
(0.14126 -0.00109722 -0.00974003)
(0.146081 -0.000460632 -0.0136509)
(0.139151 -0.0027009 -0.0212973)
(0.133 -0.00622452 -0.0245768)
(0.133457 -0.0102825 -0.0223793)
(0.138432 -0.0134936 -0.0166034)
(0.142372 -0.014083 -0.0103662)
(0.145103 -0.010718 -0.00457141)
(0.147181 -0.00510789 0.000231397)
(0.145375 -0.00134415 0.00236209)
(0.138973 -0.00123482 0.00134919)
(0.134001 -0.0026204 0.000362017)
(0.136815 -0.00250746 0.00230377)
(0.144621 -0.0011386 0.00510412)
(0.148319 -0.00180654 0.00505556)
(0.144536 -0.00599571 0.00278768)
(0.140908 -0.00975753 0.00245619)
(0.144787 -0.00805048 0.00466968)
(0.149605 -0.0022203 0.00620974)
(0.146841 0.00285146 0.00703315)
(0.137733 0.00500182 0.00934435)
(0.12846 0.00340582 0.0111855)
(0.123004 -0.00177074 0.00760974)
(0.1231 -0.00816706 -0.000301389)
(0.130928 -0.0111104 -0.00572941)
(0.141997 -0.00986199 -0.00469018)
(0.145293 -0.00812455 0.000718821)
(0.138018 -0.00727071 0.0076952)
(0.126717 -0.00720416 0.0146172)
(0.119341 -0.00803085 0.0166465)
(0.120211 -0.00715271 0.0107679)
(0.124411 -0.00203529 0.00111369)
(0.124888 0.00406164 -0.00621102)
(0.122617 0.00584376 -0.00901827)
(0.120351 0.00314064 -0.00804033)
(0.118332 7.23189e-05 -0.0043971)
(0.117145 -0.000417018 0.000537598)
(0.117947 0.000594827 0.00520097)
(0.122752 0.000761742 0.00763251)
(0.133611 0.000446967 0.00503132)
(0.144751 0.000453682 -0.00341856)
(0.151512 0.00135783 -0.00900418)
(0.148614 0.000244924 -0.0170221)
(0.142279 -0.00410981 -0.022081)
(0.140368 -0.00876242 -0.0220389)
(0.144059 -0.0118377 -0.0183653)
(0.147329 -0.0133471 -0.0139199)
(0.146742 -0.0124421 -0.00863292)
(0.145424 -0.00814997 -0.00252198)
(0.144279 -0.00266628 0.00175062)
(0.141118 -2.47954e-05 0.00212361)
(0.137289 -0.00118573 0.000799163)
(0.137494 -0.00314634 0.00181331)
(0.143266 -0.00312704 0.00511713)
(0.149105 -0.00256864 0.00653507)
(0.149125 -0.00459511 0.00401167)
(0.144127 -0.00831081 0.00108069)
(0.140415 -0.00905947 0.00178726)
(0.139774 -0.00510318 0.00511945)
(0.137956 0.000349608 0.00849571)
(0.13394 0.00434965 0.0104232)
(0.130512 0.00524493 0.0089924)
(0.128591 0.00178109 0.00298262)
(0.126716 -0.00563041 -0.00469737)
(0.129111 -0.0118098 -0.00876764)
(0.140362 -0.0118851 -0.00693115)
(0.150346 -0.00848986 -0.00142495)
(0.147435 -0.0058763 0.00451602)
(0.135164 -0.00465607 0.0107649)
(0.124353 -0.00460461 0.0151118)
(0.121452 -0.00404359 0.0130102)
(0.124462 -0.00032409 0.00519619)
(0.127129 0.00462152 -0.00313611)
(0.128091 0.00596875 -0.00848823)
(0.128827 0.00354001 -0.0104014)
(0.129036 0.00114201 -0.00966462)
(0.127962 0.00114936 -0.00689566)
(0.126507 0.00161111 -0.00249057)
(0.127141 -0.000144258 0.00210771)
(0.133368 -0.002139 0.00340407)
(0.144716 -0.000843011 -0.000949543)
(0.150543 0.00115233 -0.0059412)
(0.154099 0.00210004 -0.013106)
(0.150943 -0.00160331 -0.0189504)
(0.147674 -0.00629004 -0.0206131)
(0.149627 -0.00933282 -0.0185532)
(0.153278 -0.0113969 -0.0158121)
(0.152338 -0.0122904 -0.0120925)
(0.147854 -0.00986703 -0.00590253)
(0.144181 -0.0041868 0.0001276)
(0.141581 0.000581869 0.0024334)
(0.139455 0.000855277 0.00200601)
(0.139368 -0.00213136 0.00252126)
(0.143203 -0.00420635 0.00536338)
(0.14896 -0.00383822 0.00754165)
(0.151145 -0.00377881 0.00559083)
(0.146561 -0.00561706 0.00132374)
(0.137928 -0.00688676 5.68603e-05)
(0.130299 -0.00530596 0.00322384)
(0.125981 -0.00183486 0.00687507)
(0.125938 0.00189706 0.00717806)
(0.129534 0.00469551 0.00325978)
(0.133317 0.00417141 -0.00280474)
(0.133944 -0.00154877 -0.00773128)
(0.133756 -0.00974064 -0.00874507)
(0.140182 -0.013639 -0.00521474)
(0.150749 -0.0109574 0.000507804)
(0.152073 -0.00628462 0.00520864)
(0.14128 -0.0032148 0.00933751)
(0.12887 -0.00189468 0.0130975)
(0.123701 -0.000778221 0.0127494)
(0.125727 0.00201026 0.0068901)
(0.129267 0.00515838 -0.000555064)
(0.130615 0.00534725 -0.00555417)
(0.1309 0.00269729 -0.0078974)
(0.132299 0.000602942 -0.00931542)
(0.134429 0.00105942 -0.00935643)
(0.135629 0.0020318 -0.00612408)
(0.135336 8.68748e-05 -0.000667684)
(0.135926 -0.00322446 0.00234862)
(0.141782 -0.00270153 6.53723e-05)
(0.143446 0.000373976 -0.00373189)
(0.15203 0.00206298 -0.00960439)
(0.155297 0.000120529 -0.0150368)
(0.153814 -0.00328235 -0.0180238)
(0.154934 -0.00605199 -0.0176306)
(0.159377 -0.0087316 -0.016096)
(0.159738 -0.0109352 -0.0142068)
(0.153749 -0.00999777 -0.00979159)
(0.146924 -0.00501607 -0.00326166)
(0.142894 0.000663453 0.00166385)
(0.141303 0.0025192 0.00361795)
(0.141458 1.00203e-05 0.0043093)
(0.14362 -0.00321549 0.00556363)
(0.147389 -0.00409056 0.00712241)
(0.149712 -0.00371374 0.00676404)
(0.146993 -0.0039868 0.0035734)
(0.139547 -0.00408878 -0.000102691)
(0.131405 -0.00296599 -0.00098444)
(0.126584 -0.0014185 0.000630644)
(0.127138 6.63879e-05 0.00150588)
(0.131963 0.00218688 -0.000526885)
(0.137195 0.00343254 -0.0046668)
(0.139592 0.00101536 -0.00819997)
(0.13996 -0.00573635 -0.00853299)
(0.143164 -0.0125063 -0.00462062)
(0.150623 -0.0131037 0.00119507)
(0.153287 -0.00795726 0.00555252)
(0.145204 -0.00247055 0.00901104)
(0.133565 0.000377719 0.0123573)
(0.127104 0.00161852 0.0123597)
(0.126516 0.00360246 0.00752495)
(0.127098 0.00594555 0.00203623)
(0.12614 0.00578342 -0.000473236)
(0.125422 0.00265803 -0.0014168)
(0.127476 -0.00018983 -0.00341752)
(0.132171 -0.000112149 -0.00497146)
(0.136472 0.00135765 -0.00270812)
(0.137485 0.000786845 0.00227634)
(0.135996 -0.0016858 0.00458775)
(0.136773 -0.00229458 0.001744)
(0.138299 0.00144949 -0.000813142)
(0.146319 0.00216297 -0.00614106)
(0.153724 0.00112539 -0.0106206)
(0.157148 -0.000672869 -0.0135928)
(0.160145 -0.00258016 -0.0144926)
(0.16519 -0.00547999 -0.0146148)
(0.166625 -0.00857326 -0.0149051)
(0.160347 -0.00866046 -0.0128666)
(0.151166 -0.00453162 -0.00693805)
(0.144959 0.000976919 -0.000417268)
(0.142697 0.00344416 0.00357818)
(0.142756 0.0017173 0.00522971)
(0.144105 -0.00147503 0.00600866)
(0.145877 -0.00316212 0.00661178)
(0.146187 -0.00342569 0.00659109)
(0.143447 -0.00338827 0.00487091)
(0.138794 -0.00261243 0.00121184)
(0.134849 -0.000963474 -0.00215645)
(0.133073 -0.000117663 -0.00249429)
(0.13393 -0.000600409 -0.00066958)
(0.13686 -0.000368391 -0.000191948)
(0.139673 0.00121295 -0.00238008)
(0.140473 0.00155907 -0.0048302)
(0.140507 -0.00225296 -0.00510661)
(0.142814 -0.00901507 -0.00265438)
(0.148415 -0.0124936 0.00161845)
(0.152386 -0.00906725 0.00544669)
(0.148722 -0.00241137 0.00826896)
(0.140057 0.00252195 0.0107622)
(0.13267 0.00489153 0.0111995)
(0.127914 0.00597877 0.00832475)
(0.124289 0.0065254 0.00483353)
(0.122045 0.00528504 0.00337998)
(0.122507 0.00161788 0.00316484)
(0.125803 -0.00226916 0.0018213)
(0.130858 -0.00343686 -0.00017719)
(0.13539 -0.00161908 0.000170992)
(0.136934 0.000415906 0.00355584)
(0.1356 0.000707151 0.00612965)
(0.134714 0.000457116 0.00425498)
(0.137227 0.00459796 0.00282763)
(0.143017 0.00380492 -0.00170101)
(0.149933 0.00192659 -0.00619438)
(0.155908 0.000735759 -0.00969493)
(0.161771 -1.59532e-06 -0.0113397)
(0.167946 -0.00228932 -0.0119503)
(0.170076 -0.00550954 -0.0132909)
(0.164747 -0.00614945 -0.0139975)
(0.155739 -0.002695 -0.0106588)
(0.148594 0.00191963 -0.0041126)
(0.1448 0.00380709 0.00152968)
(0.14314 0.00232701 0.00444632)
(0.142652 -7.77343e-05 0.00563424)
(0.142699 -0.00131112 0.00629448)
(0.142078 -0.00148344 0.00635344)
(0.140128 -0.00160428 0.00501266)
(0.138367 -0.00119967 0.00198812)
(0.138821 -7.34067e-05 -0.00126175)
(0.14104 -0.000206654 -0.00218173)
(0.142593 -0.00237534 -0.000517543)
(0.141783 -0.00357725 0.00123183)
(0.139318 -0.00135969 0.0012761)
(0.137615 0.00141116 0.000954095)
(0.138745 4.16091e-05 0.00176414)
(0.142572 -0.00584019 0.00352517)
(0.147469 -0.0109958 0.00550694)
(0.150693 -0.00961246 0.00655139)
(0.148605 -0.00260034 0.00741357)
(0.14184 0.00411783 0.00897042)
(0.134412 0.00714884 0.0093854)
(0.127887 0.0071416 0.00765326)
(0.122761 0.00641078 0.00612593)
(0.120667 0.00543661 0.00664012)
(0.122162 0.00315633 0.00757724)
(0.126013 -0.000251666 0.00660652)
(0.130594 -0.00265601 0.00443069)
(0.134168 -0.00198028 0.00367661)
(0.135448 0.000786904 0.00528727)
(0.134886 0.00294882 0.00709377)
(0.13468 0.00410708 0.00635201)
(0.138693 0.00651502 0.00593217)
(0.141911 0.00496801 0.00202884)
(0.146821 0.00158876 -0.00279174)
(0.152777 -0.00111467 -0.00661402)
(0.159731 -0.001357 -0.00858502)
(0.166131 -0.000587183 -0.00964245)
(0.168433 -0.00111401 -0.011123)
(0.165452 -0.00203683 -0.0127577)
(0.160243 -0.000595059 -0.0121333)
(0.156054 0.00249073 -0.00810176)
(0.152794 0.0040066 -0.00299963)
(0.14895 0.00292926 0.00060798)
(0.144607 0.000960678 0.00256063)
(0.141043 -0.000528086 0.00389941)
(0.13924 -0.00127069 0.00492477)
(0.139387 -0.00139218 0.00516031)
(0.141872 -0.000834982 0.00418964)
(0.147078 5.16317e-05 0.00204949)
(0.152462 -0.000233721 -3.36733e-05)
(0.1534 -0.0023537 0.000331652)
(0.148925 -0.00374119 0.00390858)
(0.142693 -0.00169897 0.00769509)
(0.139285 0.00204197 0.00806686)
(0.140163 0.0030119 0.0046553)
(0.143554 -0.00100944 0.00163495)
(0.147512 -0.0071142 0.00276453)
(0.149953 -0.00819463 0.00538121)
(0.147864 -0.00195779 0.00593323)
(0.141102 0.00601183 0.00611681)
(0.133251 0.0100739 0.00691077)
(0.12707 0.0100168 0.00716688)
(0.123543 0.00832527 0.00661478)
(0.123015 0.00656067 0.00602562)
(0.124713 0.0046205 0.00576169)
(0.127501 0.00225517 0.00541975)
(0.130935 0.000400755 0.00467392)
(0.134714 0.000503475 0.00420255)
(0.137625 0.00250602 0.00497531)
(0.138398 0.00460276 0.00656541)
(0.137912 0.00605454 0.00739244)
(0.137624 0.00588836 0.00690499)
(0.140813 0.00464975 0.00503852)
(0.145621 0.00100684 0.000823599)
(0.15071 -0.00320846 -0.00404635)
(0.156235 -0.00504649 -0.00737167)
(0.162148 -0.0038663 -0.00862395)
(0.165893 -0.00162615 -0.00902897)
(0.164836 5.54672e-05 -0.00972061)
(0.160312 0.00164261 -0.010043)
(0.156302 0.00358478 -0.00865272)
(0.154686 0.0046827 -0.00581973)
(0.153877 0.00427744 -0.00303531)
(0.151787 0.00299775 -0.00112268)
(0.148116 0.00131291 0.000330139)
(0.144136 -0.00131442 0.001956)
(0.141674 -0.00472066 0.00377749)
(0.142534 -0.00742644 0.00514028)
(0.147637 -0.00822257 0.00500937)
(0.154198 -0.00727385 0.00315424)
(0.156504 -0.00564731 0.00174072)
(0.152623 -0.00376254 0.00328491)
(0.146339 -0.00063417 0.00638317)
(0.141928 0.00377997 0.00647888)
(0.14031 0.00661191 0.00188288)
(0.140433 0.00471549 -0.00348007)
(0.14249 -0.00138996 -0.00401255)
(0.14556 -0.00611486 7.14956e-05)
(0.146214 -0.00384992 0.00358794)
(0.14265 0.00392937 0.00484443)
(0.137412 0.0107045 0.00543579)
(0.134149 0.0132708 0.00510219)
(0.133586 0.012599 0.0031293)
(0.134268 0.0104072 0.000651032)
(0.134852 0.00759832 -0.000574258)
(0.135127 0.00476793 8.11414e-05)
(0.135641 0.00286594 0.00183997)
(0.136745 0.00259629 0.00349166)
(0.137792 0.00352947 0.00460903)
(0.137749 0.00454626 0.00559503)
(0.137026 0.00538969 0.00663641)
(0.13699 0.00139029 0.0117025)
(0.140631 -0.000961423 0.0112039)
(0.146914 -0.00328994 0.00730407)
(0.153372 -0.00487997 0.00129628)
(0.157259 -0.00463157 -0.00432067)
(0.157419 -0.00229365 -0.0079813)
(0.15469 0.000978721 -0.0094682)
(0.150876 0.00357545 -0.00925603)
(0.147565 0.0048461 -0.00818312)
(0.145517 0.00490006 -0.0072224)
(0.145108 0.00401149 -0.00676577)
(0.146501 0.00260999 -0.00630272)
(0.14947 0.00135903 -0.0050914)
(0.152844 0.000591461 -0.00335243)
(0.154728 -0.00021443 -0.00171089)
(0.154074 -0.00202319 7.91763e-05)
(0.151903 -0.0051304 0.002771)
(0.150775 -0.00868998 0.00590234)
(0.151773 -0.0106599 0.00784805)
(0.15294 -0.00907705 0.00770188)
(0.1517 -0.00432008 0.00639453)
(0.14794 0.00104476 0.00514161)
(0.143766 0.00452043 0.00337981)
(0.141054 0.00482909 -9.72723e-06)
(0.140333 0.0020683 -0.00375921)
(0.141768 -0.00222082 -0.00442504)
(0.144528 -0.00553803 -0.000741409)
(0.146168 -0.00478613 0.00421672)
(0.145356 0.000726678 0.00721711)
(0.143883 0.00731714 0.00738731)
(0.144048 0.011495 0.00466912)
(0.145425 0.0126329 -0.000391719)
(0.146173 0.0112796 -0.00569852)
(0.145657 0.00810656 -0.00896421)
(0.144362 0.00453961 -0.00891761)
(0.143112 0.00269612 -0.00575034)
(0.142274 0.0033293 -0.0010085)
(0.141045 0.00486046 0.00340296)
(0.138826 0.00513263 0.00685697)
(0.136782 0.00363298 0.00973324)
(0.150655 0.00062068 0.0076967)
(0.151991 -0.00193134 0.0114088)
(0.152702 -0.00319592 0.0128284)
(0.154386 -0.00326829 0.0109033)
(0.157582 -0.00175951 0.00621338)
(0.160691 0.00172427 0.000490176)
(0.16155 0.00592854 -0.00452834)