/*--------------------------------*- C++ -*----------------------------------*\
| =========                 |                                                 |
| \\      /  F ield         | OpenFOAM: The Open Source CFD Toolbox           |
|  \\    /   O peration     | Version:  2306                                  |
|   \\  /    A nd           | Website:  www.openfoam.com                      |
|    \\/     M anipulation  |                                                 |
\*---------------------------------------------------------------------------*/
FoamFile
{
    version     2.0;
    format      ascii;
    arch        "LSB;label=32;scalar=64";
    class       volVectorField;
    location    "4";
    object      UMean;
}
// * * * * * * * * * * * * * * * * * * * * * * * * * * * * * * * * * * * * * //

dimensions      [0 1 -1 0 0 0 0];

internalField   nonuniform List<vector> 
60000
(
(0.0102995 2.84686e-05 0.00233638)
(0.0102951 1.07009e-05 0.00237784)
(0.010149 -3.36383e-06 0.00226181)
(0.00995712 -9.85035e-06 0.00208031)
(0.00976822 -1.1066e-05 0.00186944)
(0.00951339 -9.66958e-06 0.00161427)
(0.00910094 -7.97552e-06 0.00133544)
(0.00849009 -8.09742e-06 0.00110871)
(0.00773265 -1.09065e-05 0.00100525)
(0.00696302 -1.5258e-05 0.00103225)
(0.0063236 -1.89068e-05 0.00112443)
(0.00592443 -1.9439e-05 0.00117537)
(0.00578729 -1.90571e-05 0.00110605)
(0.00583379 -1.8696e-05 0.000909287)
(0.00596711 -1.58064e-05 0.000636057)
(0.00611328 -8.56791e-06 0.000356595)
(0.00627722 2.58645e-06 0.000112158)
(0.00651217 1.16819e-05 -0.000111076)
(0.00682773 1.6744e-05 -0.000351592)
(0.00719209 1.87081e-05 -0.000645567)
(0.00759756 1.80434e-05 -0.00101572)
(0.00804998 1.32185e-05 -0.00144032)
(0.00852658 5.22314e-06 -0.00185472)
(0.00894126 -1.86625e-06 -0.00219074)
(0.00914124 -5.57926e-06 -0.00238911)
(0.00900506 -5.13969e-06 -0.00243386)
(0.00855366 -3.39902e-06 -0.00237402)
(0.00791186 -1.62449e-06 -0.00228454)
(0.00722824 -6.32353e-08 -0.00219588)
(0.00666312 3.83634e-07 -0.00210653)
(0.00635443 2.85187e-07 -0.00200253)
(0.00633008 4.3509e-06 -0.00179582)
(0.00653891 1.38593e-05 -0.00138459)
(0.00692599 2.45143e-05 -0.000799321)
(0.00743655 3.6321e-05 -0.000176375)
(0.0080114 4.57415e-05 0.000375698)
(0.00860252 5.25045e-05 0.000832746)
(0.00918479 5.41177e-05 0.00125608)
(0.0097119 5.06716e-05 0.00169724)
(0.0101038 4.25723e-05 0.00209211)
(0.0315191 8.35969e-05 0.00608964)
(0.0316723 -8.52696e-06 0.00606608)
(0.0312885 -7.72766e-05 0.00570668)
(0.0306624 -0.000104 0.00527746)
(0.0300038 -9.03161e-05 0.00485384)
(0.0291754 -5.32185e-05 0.00432326)
(0.0279345 -1.93442e-05 0.00366903)
(0.0261668 -1.29576e-05 0.00308273)
(0.0240074 -4.63909e-05 0.00278659)
(0.0217886 -0.000108561 0.00283238)
(0.0198595 -0.000170077 0.00305014)
(0.0185152 -0.00020855 0.00313449)
(0.0178523 -0.000219907 0.00287854)
(0.0177096 -0.000200777 0.00231362)
(0.0178682 -0.000148924 0.0016184)
(0.018165 -7.58351e-05 0.000947831)
(0.0186302 -6.76008e-06 0.000353006)
(0.0193796 3.44952e-05 -0.000223681)
(0.0204022 4.86849e-05 -0.000881998)
(0.0216135 4.17163e-05 -0.00171019)
(0.0230033 1.60404e-05 -0.00275273)
(0.0245528 -2.47458e-05 -0.00393305)
(0.0261346 -6.46603e-05 -0.0050603)
(0.0274704 -8.11824e-05 -0.00592404)
(0.0281413 -6.92086e-05 -0.00635705)
(0.0278291 -4.54201e-05 -0.00635043)
(0.0265835 -3.15404e-05 -0.00609049)
(0.0247192 -3.27367e-05 -0.00580323)
(0.0226506 -4.97008e-05 -0.0055873)
(0.0208318 -7.79027e-05 -0.00544981)
(0.0196548 -8.8121e-05 -0.00528808)
(0.0192768 -4.79383e-05 -0.00477627)
(0.0196617 3.54484e-05 -0.00363812)
(0.0206884 0.000131347 -0.00202114)
(0.0221696 0.000223901 -0.000332364)
(0.0239061 0.00029093 0.0011516)
(0.025741 0.000316842 0.00239328)
(0.0275934 0.000293192 0.00353356)
(0.0293298 0.000239578 0.00466299)
(0.0307102 0.000170246 0.00559702)
(0.0536615 5.9413e-05 0.00898538)
(0.0541738 -0.000138884 0.00892599)
(0.0536259 -0.000271689 0.00833356)
(0.0525133 -0.000308609 0.00768293)
(0.0513116 -0.00025782 0.0071663)
(0.0499529 -0.000160144 0.0065812)
(0.0480968 -7.59593e-05 0.00575438)
(0.0454888 -5.81454e-05 0.00487404)
(0.0421839 -0.000135189 0.00431163)
(0.0385565 -0.000282696 0.00425944)
(0.0351289 -0.000428899 0.00454972)
(0.0324471 -0.000523964 0.00472045)
(0.0307988 -0.000554277 0.00439499)
(0.0300541 -0.000504111 0.00359322)
(0.0299372 -0.000372346 0.00261672)
(0.0302068 -0.000194499 0.00170551)
(0.030885 -4.05237e-05 0.000909586)
(0.032111 3.96523e-05 0.000129876)
(0.0338443 5.23274e-05 -0.000786751)
(0.0359528 1.00189e-05 -0.00198183)
(0.0384271 -8.03301e-05 -0.00354263)
(0.0412188 -0.000197068 -0.00538611)
(0.0440949 -0.000295033 -0.00723092)
(0.0466136 -0.000326172 -0.00870734)
(0.0481259 -0.000284291 -0.00947891)
(0.0480752 -0.000213784 -0.00947113)
(0.0464194 -0.000163281 -0.00897776)
(0.0435548 -0.000146788 -0.00841565)
(0.0401047 -0.000174686 -0.00803971)
(0.0367804 -0.000236008 -0.0079464)
(0.0342452 -0.00025521 -0.00798223)
(0.0329088 -0.000157167 -0.00756024)
(0.0329238 3.98064e-05 -0.00611182)
(0.0342335 0.000268954 -0.0037632)
(0.0365482 0.000486609 -0.00116089)
(0.0394819 0.000644018 0.00119003)
(0.0427095 0.000694023 0.00317744)
(0.0460627 0.00061324 0.00498184)
(0.0492909 0.000455408 0.00674828)
(0.0519611 0.000268878 0.00821565)
(0.0758346 -8.97886e-05 0.0108512)
(0.0769786 -0.000396329 0.0110196)
(0.0764302 -0.000580526 0.0102949)
(0.0748503 -0.00060659 0.00937811)
(0.0730749 -0.000497992 0.00874836)
(0.0712954 -0.000319148 0.00826805)
(0.0691759 -0.000162952 0.00752953)
(0.0662719 -0.000109048 0.00650036)
(0.0623668 -0.000210869 0.00560971)
(0.0576149 -0.000446042 0.00530172)
(0.0525677 -0.000703594 0.00559101)
(0.0480885 -0.000892883 0.00593933)
(0.0448219 -0.000978754 0.00573103)
(0.0428496 -0.000919597 0.00485759)
(0.0419711 -0.000708473 0.00372217)
(0.0418857 -0.000411299 0.00271272)
(0.042542 -0.000155844 0.00191424)
(0.0440432 -3.66585e-05 0.00118617)
(0.0463176 -4.44458e-05 0.000314155)
(0.0492009 -0.000160548 -0.000913508)
(0.052709 -0.00036992 -0.0026771)
(0.0567892 -0.000616562 -0.0049871)
(0.0611285 -0.000805198 -0.00757319)
(0.0651747 -0.000847174 -0.00992864)
(0.0680946 -0.000736566 -0.0114489)
(0.0690321 -0.00056167 -0.0118043)
(0.0676944 -0.000420148 -0.0112482)
(0.064404 -0.000342188 -0.010377)
(0.0598905 -0.000354095 -0.00969588)
(0.055028 -0.000447289 -0.00954187)
(0.0506899 -0.000499059 -0.00990842)
(0.0476081 -0.000376741 -0.0100647)
(0.0463228 -8.95031e-05 -0.00901925)
(0.0471081 0.000270442 -0.00657748)
(0.049779 0.000633813 -0.00343216)
(0.0537871 0.000909421 -0.000350906)
(0.0585033 0.00100363 0.00235453)
(0.0635806 0.00086192 0.004825)
(0.0686058 0.000575763 0.00729301)
(0.0729119 0.00025322 0.00949813)
(0.0963463 -0.000415654 0.0109748)
(0.0984924 -0.000784722 0.012027)
(0.0982438 -0.000985912 0.0116195)
(0.0963677 -0.000966131 0.0105241)
(0.0940844 -0.000775092 0.00964809)
(0.0920199 -0.000507574 0.00925531)
(0.0900075 -0.000275128 0.00885166)
(0.0874571 -0.000163818 0.00796168)
(0.0837875 -0.000242325 0.00680396)
(0.0786632 -0.000516774 0.00607037)
(0.072313 -0.000873923 0.00619773)
(0.0658157 -0.00118919 0.00676183)
(0.0603321 -0.00138796 0.00686129)
(0.0563637 -0.00138349 0.00608765)
(0.0539987 -0.00114233 0.00486342)
(0.052998 -0.000750817 0.00382209)
(0.0531735 -0.00039837 0.00319588)
(0.0544887 -0.000245347 0.00282403)
(0.0567987 -0.000299473 0.00241829)
(0.0599267 -0.000547125 0.00169023)
(0.0639903 -0.000973232 0.000326335)
(0.0690686 -0.00146615 -0.00192091)
(0.0748665 -0.00182365 -0.00501014)
(0.0807849 -0.00187149 -0.0084531)
(0.0858598 -0.00159999 -0.0113549)
(0.088842 -0.00118797 -0.012881)
(0.0889558 -0.000847196 -0.0129025)
(0.0862507 -0.000635473 -0.0120052)
(0.0814668 -0.000572547 -0.0109446)
(0.0755709 -0.000658292 -0.0104257)
(0.0695216 -0.000745013 -0.0108806)
(0.0642401 -0.000654506 -0.01179)
(0.0606444 -0.000375495 -0.0118442)
(0.0595481 6.95645e-06 -0.0102737)
(0.061308 0.000436578 -0.0074457)
(0.065611 0.000799532 -0.00418121)
(0.0715396 0.00094434 -0.00101237)
(0.0783806 0.000773183 0.00203655)
(0.0854479 0.000396952 0.00525209)
(0.0917802 -7.77496e-06 0.00847792)
(0.11221 -0.0011747 0.00770533)
(0.116045 -0.00139022 0.0106689)
(0.116667 -0.00149677 0.0117363)
(0.114947 -0.00137926 0.0111519)
(0.11244 -0.00106336 0.0100799)
(0.110303 -0.000689447 0.00955272)
(0.108695 -0.000396523 0.00952523)
(0.107047 -0.000234383 0.0091403)
(0.104533 -0.000239352 0.00800824)
(0.10025 -0.000459682 0.00678318)
(0.0937039 -0.000834964 0.00645984)
(0.0856848 -0.00126167 0.00711181)
(0.0778141 -0.00162555 0.00766461)
(0.0712089 -0.00176256 0.00720207)
(0.0664909 -0.00158337 0.00594692)
(0.0637715 -0.00116617 0.00479191)
(0.0628115 -0.000749723 0.00429815)
(0.0632882 -0.000572407 0.00438769)
(0.0648222 -0.000699455 0.00471777)
(0.0671276 -0.00115846 0.00496211)
(0.0704335 -0.00196577 0.00473473)
(0.075214 -0.00293689 0.0035265)
(0.0815932 -0.00369353 0.000918678)
(0.0892556 -0.00387567 -0.00304651)
(0.0972459 -0.00338119 -0.00753035)
(0.103806 -0.00249208 -0.0111771)
(0.107206 -0.00165154 -0.0130448)
(0.106688 -0.00110248 -0.0131174)
(0.102915 -0.000861008 -0.0121019)
(0.0970576 -0.000856098 -0.011065)
(0.0902177 -0.000911857 -0.011073)
(0.0833222 -0.00084156 -0.0122781)
(0.0773016 -0.000648184 -0.0135448)
(0.073276 -0.000405752 -0.0136308)
(0.0722805 -0.000132082 -0.0122864)
(0.0748733 0.000121611 -0.00999192)
(0.080435 0.000202043 -0.00724442)
(0.0880371 -4.89763e-05 -0.00420989)
(0.0967655 -0.000511366 -0.000612492)
(0.105359 -0.000900702 0.0035863)
(0.119273 -0.00280831 1.22831e-05)
(0.125585 -0.00255976 0.00523595)
(0.128106 -0.00226557 0.00909912)
(0.127373 -0.00192718 0.0106095)
(0.125342 -0.0014502 0.0101658)
(0.123657 -0.000900771 0.00941161)
(0.122793 -0.000508268 0.00943819)
(0.122302 -0.000342646 0.00972673)
(0.121569 -0.000295666 0.00912016)
(0.119427 -0.000342643 0.00765008)
(0.11452 -0.000570753 0.00662072)
(0.106681 -0.00100228 0.00696904)
(0.0973066 -0.00152304 0.00793422)
(0.088068 -0.0018666 0.0080512)
(0.0803501 -0.0018502 0.00698177)
(0.0750248 -0.00151118 0.00564281)
(0.0722245 -0.00109251 0.00499151)
(0.0714078 -0.000896586 0.00519399)
(0.0717537 -0.00109584 0.00591762)
(0.0726454 -0.001834 0.006895)
(0.0741945 -0.00319911 0.0078894)
(0.0772037 -0.00488563 0.00835936)
(0.0822955 -0.00625742 0.00751456)
(0.0896628 -0.00675998 0.00473344)
(0.0991596 -0.00619185 0.00011411)
(0.109355 -0.00481063 -0.00523017)
(0.117578 -0.00326884 -0.00975109)
(0.121468 -0.00207839 -0.0123245)
(0.120618 -0.00141746 -0.0126784)
(0.116307 -0.00115392 -0.0116933)
(0.11011 -0.000995826 -0.0109907)
(0.103187 -0.000801911 -0.0116603)
(0.0962182 -0.000641914 -0.0133837)
(0.0899491 -0.000598177 -0.0150674)
(0.0856104 -0.000684802 -0.0159485)
(0.084684 -0.000853429 -0.0157851)
(0.0874885 -0.00111278 -0.014633)
(0.0932818 -0.0016389 -0.0126293)
(0.101203 -0.00233558 -0.0095737)
(0.110398 -0.00278924 -0.00526078)
(0.119531 -0.00526079 -0.00883854)
(0.127181 -0.00449833 -0.00236532)
(0.131776 -0.0034745 0.00372649)
(0.13245 -0.00260762 0.00793263)
(0.130847 -0.00194699 0.00936205)
(0.129718 -0.00129716 0.00895337)
(0.130064 -0.000738658 0.00866434)
(0.130829 -0.000487368 0.00919541)
(0.131249 -0.000518299 0.00948365)
(0.131592 -0.000534416 0.00842386)
(0.130343 -0.00042888 0.00687711)
(0.125641 -0.000517355 0.00651898)
(0.117418 -0.000983472 0.00751684)
(0.107013 -0.00152043 0.00834392)
(0.0964967 -0.00174233 0.00789324)
(0.0879288 -0.00159699 0.00664832)
(0.0825604 -0.001289 0.00571553)
(0.0802547 -0.00110968 0.00555971)
(0.079846 -0.00132424 0.00600468)
(0.0801864 -0.00223883 0.00694562)
(0.0808157 -0.00408313 0.00846066)
(0.0821492 -0.00648416 0.0103252)
(0.0850008 -0.00853745 0.0116004)
(0.0900703 -0.00951512 0.0110418)
(0.0979815 -0.00912433 0.00801681)
(0.108525 -0.00751477 0.00289628)
(0.119296 -0.00541322 -0.00304563)
(0.126757 -0.00359352 -0.0081435)
(0.129038 -0.00242446 -0.0110007)
(0.126937 -0.00183982 -0.0113685)
(0.122827 -0.00142163 -0.0104996)
(0.118339 -0.000868485 -0.0101541)
(0.113487 -0.000377458 -0.0112452)
(0.107855 -0.000223407 -0.0135717)
(0.102036 -0.000584729 -0.0164403)
(0.0979468 -0.00138702 -0.0189354)
(0.0971036 -0.00233346 -0.0202399)
(0.0995078 -0.00338784 -0.0200322)
(0.104369 -0.00450964 -0.0181195)
(0.111218 -0.00528402 -0.0143313)
(0.120261 -0.00777746 -0.0151711)
(0.12715 -0.00688058 -0.00834375)
(0.132638 -0.00520363 -0.00138769)
(0.134804 -0.00352909 0.0041421)
(0.133581 -0.00241305 0.00711958)
(0.131754 -0.00174756 0.00757244)
(0.132071 -0.0011653 0.00713604)
(0.13398 -0.000746678 0.00733569)
(0.135153 -0.000770558 0.00806198)
(0.135241 -0.00110837 0.00798741)
(0.135771 -0.00113733 0.00671685)
(0.135877 -0.000804433 0.00582977)
(0.133025 -0.000665682 0.00647873)
(0.125703 -0.000875871 0.00781325)
(0.114836 -0.00113538 0.00831994)
(0.103499 -0.00122826 0.00775203)
(0.0949122 -0.00120445 0.00694361)
(0.0905161 -0.00122471 0.00647472)
(0.0895141 -0.00149047 0.00636209)
(0.0901597 -0.00239977 0.00673286)
(0.0910976 -0.00438206 0.00796696)
(0.0918688 -0.00717256 0.0102174)
(0.092941 -0.00974217 0.0127846)
(0.0952995 -0.0112332 0.0141833)
(0.1002 -0.0112917 0.0130946)
(0.108302 -0.00989432 0.00923317)
(0.118155 -0.00750594 0.00332092)
(0.125866 -0.00504494 -0.00288951)
(0.128219 -0.00319552 -0.00730623)
(0.125247 -0.00216274 -0.00878105)
(0.120153 -0.00162065 -0.00796496)
(0.117227 -0.0010732 -0.00662972)
(0.11741 -0.000405956 -0.00650808)
(0.117882 0.000161812 -0.00854784)
(0.116204 0.000110497 -0.0125785)
(0.112813 -0.000954584 -0.0173936)
(0.10998 -0.00265371 -0.0214066)
(0.109316 -0.00445894 -0.0235396)
(0.110916 -0.00616588 -0.0232823)
(0.114532 -0.00744891 -0.0204319)
(0.123465 -0.00950383 -0.0187614)
(0.128423 -0.00901306 -0.012363)
(0.133778 -0.00719965 -0.00541913)
(0.137154 -0.00489092 0.000430059)
(0.137181 -0.00304254 0.00410679)
(0.134829 -0.00208671 0.00531095)
(0.133482 -0.0016275 0.00501864)
(0.134889 -0.00117844 0.00488414)
(0.137139 -0.000965059 0.00556416)
(0.137848 -0.00139816 0.00626834)
(0.137319 -0.00212519 0.00597235)
(0.13791 -0.00235986 0.00523756)
(0.139321 -0.0019728 0.0055035)
(0.138207 -0.00131059 0.00682483)
(0.131858 -0.000712663 0.00802276)
(0.121053 -0.000449392 0.00838411)
(0.109999 -0.000619516 0.00826342)
(0.102678 -0.00109074 0.00810589)
(0.100111 -0.00171407 0.00784283)
(0.100824 -0.00268619 0.00754708)
(0.102602 -0.00456639 0.00780093)
(0.103762 -0.00733737 0.0092944)
(0.103943 -0.0100601 0.0119483)
(0.10414 -0.0118428 0.0144168)
(0.10596 -0.012318 0.0149301)
(0.110575 -0.011355 0.0125043)
(0.117368 -0.00905696 0.00728694)
(0.123321 -0.00611469 0.000836408)
(0.125055 -0.00338439 -0.00432145)
(0.121214 -0.00157449 -0.00619369)
(0.114384 -0.000909237 -0.00485026)
(0.110193 -0.000861008 -0.00211329)
(0.111821 -0.000620406 -0.000231519)
(0.117016 0.000131183 -0.00101249)
(0.121525 0.00071608 -0.00505283)
(0.123137 7.83644e-05 -0.0112338)
(0.122354 -0.00185157 -0.0175058)
(0.120827 -0.00427717 -0.0221578)
(0.120017 -0.00663403 -0.0241336)
(0.120642 -0.00855185 -0.0229681)
(0.128188 -0.00998967 -0.0203647)
(0.130798 -0.0103433 -0.0152124)
(0.135227 -0.00905598 -0.00892997)
(0.139198 -0.00668311 -0.00323073)
(0.140735 -0.00422701 0.000802238)
(0.139198 -0.00260997 0.00271232)
(0.136512 -0.00193707 0.00294976)
(0.135692 -0.00162669 0.00280952)
(0.137485 -0.00133656 0.00330049)
(0.13975 -0.00150425 0.00428391)
(0.140514 -0.0023869 0.00487082)
(0.140501 -0.00347225 0.00482986)
(0.141676 -0.00394627 0.00508915)
(0.143284 -0.00329891 0.00615285)
(0.142353 -0.0016835 0.00746247)
(0.136321 -8.06976e-05 0.00835211)
(0.126281 0.000430419 0.00886087)
(0.116866 -0.000295776 0.00932052)
(0.111758 -0.00166878 0.00948354)
(0.111427 -0.003246 0.008941)
(0.113828 -0.00519931 0.00801444)
(0.116135 -0.00764076 0.00789582)
(0.116539 -0.00995797 0.00958689)
(0.115309 -0.0115404 0.0123711)
(0.114194 -0.0121428 0.0141918)
(0.114949 -0.0114857 0.0133831)
(0.117897 -0.00942727 0.0094773)
(0.121439 -0.00641246 0.00347673)
(0.12289 -0.00315353 -0.0021479)
(0.120305 -0.0005409 -0.00481528)
(0.114252 0.000504709 -0.00365824)
(0.109141 8.66958e-05 -9.49352e-05)
(0.109232 -0.000495798 0.00337887)
(0.11435 -8.57288e-05 0.00456867)
(0.12138 0.000927761 0.00219719)
(0.127191 0.00103855 -0.00339978)
(0.130462 -0.000484987 -0.0104754)
(0.131067 -0.00296249 -0.0171017)
(0.129803 -0.00567442 -0.0216167)
(0.128207 -0.00820948 -0.0227765)
(0.134317 -0.00913164 -0.020419)
(0.134769 -0.010591 -0.0169597)
(0.137633 -0.0103456 -0.0118438)
(0.141053 -0.00852549 -0.00660308)
(0.142962 -0.00597406 -0.00234306)
(0.142425 -0.00371624 0.000294513)
(0.139875 -0.00237766 0.00128917)
(0.137444 -0.00191482 0.00151484)
(0.137357 -0.00185035 0.00193978)
(0.139599 -0.00206857 0.00286058)
(0.141897 -0.0028683 0.00378218)
(0.142944 -0.00415315 0.00422483)
(0.14361 -0.00519913 0.00459088)
(0.144778 -0.00516389 0.00541385)
(0.145752 -0.00356465 0.00654534)
(0.14443 -0.000919307 0.0076304)
(0.138871 0.00109094 0.00847713)
(0.130576 0.0010874 0.00913647)
(0.123766 -0.00072667 0.00940882)
(0.121611 -0.00334758 0.00870777)
(0.123821 -0.00597289 0.00684337)
(0.127245 -0.00828687 0.00511354)
(0.128829 -0.00992632 0.00560158)
(0.127578 -0.0107358 0.00843353)
(0.124447 -0.0109061 0.0114602)
(0.12151 -0.0102715 0.0124766)
(0.120445 -0.00851296 0.0104679)
(0.121214 -0.00579796 0.00563912)
(0.122221 -0.00260247 -0.000198647)
(0.12135 0.000335825 -0.00415786)
(0.117827 0.00184128 -0.00446358)
(0.113899 0.0014052 -0.00172765)
(0.112741 0.000227612 0.00200778)
(0.115488 1.48946e-05 0.00474517)
(0.121247 0.000921879 0.00492768)
(0.128131 0.00153405 0.00179594)
(0.134211 0.000642055 -0.0039433)
(0.137965 -0.00135128 -0.010803)
(0.138424 -0.00379114 -0.0170448)
(0.136327 -0.00656077 -0.0206462)
(0.141384 -0.00740765 -0.0192872)
(0.140491 -0.009977 -0.0175833)
(0.141609 -0.0109298 -0.0138239)
(0.143349 -0.00994959 -0.00935409)
(0.144249 -0.00766969 -0.0050381)
(0.143676 -0.00509032 -0.00162881)
(0.141826 -0.00306117 0.000312029)
(0.139563 -0.00210469 0.00107001)
(0.13857 -0.00216223 0.00152668)
(0.139806 -0.00280526 0.00228069)
(0.142136 -0.00379566 0.00319329)
(0.14369 -0.00509196 0.00371782)
(0.144243 -0.00623127 0.00390777)
(0.144486 -0.00649299 0.00427368)
(0.144573 -0.00522725 0.00512049)
(0.143988 -0.00241569 0.00638466)
(0.141609 0.000674806 0.00754892)
(0.136812 0.00207737 0.00795942)
(0.131252 0.000866931 0.00730036)
(0.128269 -0.00226716 0.00555244)
(0.129912 -0.00568437 0.00278552)
(0.134123 -0.0082971 0.000202062)
(0.137222 -0.00971379 0.000244062)
(0.137333 -0.00983974 0.00352177)
(0.134185 -0.0091914 0.00778291)
(0.129079 -0.00808954 0.0104427)
(0.124736 -0.00635313 0.0103306)
(0.122842 -0.00395942 0.00722278)
(0.122924 -0.00121442 0.00185819)
(0.123177 0.00144162 -0.00337433)
(0.122112 0.00296075 -0.00588136)
(0.120376 0.00259298 -0.00514717)
(0.119578 0.00121331 -0.00252595)
(0.120494 0.000463837 0.000443463)
(0.123637 0.00081658 0.00238748)
(0.129125 0.0012537 0.00200507)
(0.135803 0.000724227 -0.00116929)
(0.141558 -0.000543366 -0.00653988)
(0.14437 -0.00208624 -0.0127223)
(0.14365 -0.00438843 -0.0176111)
(0.148728 -0.00551752 -0.0176379)
(0.147461 -0.00853806 -0.0174795)
(0.146781 -0.0103426 -0.0151848)
(0.146362 -0.0101735 -0.0116486)
(0.145557 -0.00847182 -0.0074802)
(0.144115 -0.00605687 -0.0033875)
(0.142331 -0.00373365 -0.000406978)
(0.140774 -0.00224421 0.00106377)
(0.14019 -0.00210028 0.00169311)
(0.141181 -0.00298619 0.00238936)
(0.143189 -0.0042282 0.00325997)
(0.144672 -0.00544278 0.00368935)
(0.144519 -0.00640568 0.00350272)
(0.142778 -0.00668164 0.00336757)
(0.14002 -0.00580095 0.00401337)
(0.136995 -0.00354219 0.00553285)
(0.134495 -0.000497561 0.00696102)
(0.132531 0.00177708 0.00682303)
(0.130766 0.00171327 0.00464472)
(0.129936 -0.000907744 0.00130078)
(0.131936 -0.00472488 -0.00199373)
(0.13667 -0.00783951 -0.00408325)
(0.140997 -0.00943576 -0.00341857)
(0.142586 -0.00928172 0.000340796)
(0.140616 -0.00781752 0.00522038)
(0.135332 -0.00584058 0.00872756)
(0.129396 -0.00371207 0.00972404)
(0.125949 -0.00151496 0.00800981)
(0.12572 0.000638342 0.00364955)
(0.127038 0.00257736 -0.00201762)
(0.128045 0.00364199 -0.00643573)
(0.128431 0.00321777 -0.008153)
(0.128803 0.0019852 -0.00750586)
(0.129388 0.0011347 -0.00540843)
(0.130655 0.000858002 -0.00290135)
(0.133679 0.000483194 -0.0014223)
(0.138694 -0.00031994 -0.00212907)
(0.144161 -0.00113048 -0.00530302)
(0.148147 -0.00165351 -0.0102125)
(0.149545 -0.00288185 -0.0149847)
(0.154167 -0.0036982 -0.015428)
(0.154111 -0.00629812 -0.0164446)
(0.152798 -0.00840171 -0.0156176)
(0.15094 -0.00904255 -0.0131833)
(0.148781 -0.0082021 -0.00945665)
(0.146217 -0.00629985 -0.00512841)
(0.143615 -0.00398311 -0.00132696)
(0.141837 -0.00214735 0.00108469)
(0.141464 -0.00165645 0.00225073)
(0.142516 -0.00253512 0.00307475)
(0.144287 -0.0038896 0.00389242)
(0.145382 -0.00497029 0.00406831)
(0.144415 -0.00551489 0.00334792)
(0.140882 -0.00546437 0.00242138)
(0.135623 -0.0047801 0.00219315)
(0.130439 -0.00331871 0.0028758)
(0.127344 -0.00116575 0.00359613)
(0.127113 0.000873914 0.00290588)
(0.128881 0.00150661 0.000362)
(0.131375 -0.00015375 -0.0027352)
(0.134582 -0.00374788 -0.00468004)
(0.139142 -0.00742485 -0.00474142)
(0.143535 -0.00951341 -0.00275021)
(0.145447 -0.00947911 0.00116379)
(0.14396 -0.00753347 0.00564817)
(0.139159 -0.00460714 0.00873445)
(0.132947 -0.00175171 0.00952556)
(0.128492 0.000505216 0.00818484)
(0.12741 0.00214343 0.00484669)
(0.12859 0.00322453 0.000142722)
(0.130226 0.00348594 -0.00415023)
(0.131674 0.00266888 -0.00667404)
(0.133157 0.00145171 -0.00726943)
(0.13484 0.000763915 -0.00629362)
(0.136589 0.000439319 -0.00434904)
(0.138587 -0.000187242 -0.00257304)
(0.141399 -0.00107895 -0.0022699)
(0.145081 -0.00164229 -0.0042171)
(0.149044 -0.00163411 -0.00812813)
(0.152389 -0.00200333 -0.0124315)
(0.155438 -0.0024316 -0.012616)
(0.158066 -0.00413071 -0.0144303)
(0.158253 -0.00587337 -0.014903)
(0.156575 -0.00696004 -0.013834)
(0.153843 -0.00697797 -0.0111077)
(0.150313 -0.00574842 -0.00714579)
(0.146546 -0.00363277 -0.00284061)
(0.143789 -0.00164042 0.000738811)
(0.142827 -0.000818917 0.00293114)
(0.143446 -0.00144475 0.00405545)
(0.144725 -0.0027712 0.0047298)
(0.145464 -0.0038268 0.00477706)
(0.144515 -0.00415752 0.0038175)
(0.141382 -0.00378814 0.00213256)
(0.13671 -0.00297748 0.000471275)
(0.132131 -0.00191707 -0.000616687)
(0.129424 -0.000678331 -0.00114238)
(0.129459 0.000471046 -0.00168029)
(0.131998 0.000920396 -0.00293576)
(0.135761 -0.000164395 -0.00452268)
(0.139499 -0.00306854 -0.00517413)
(0.143213 -0.00671089 -0.00421231)
(0.146419 -0.00910748 -0.00177514)
(0.147654 -0.00938829 0.0018732)
(0.146071 -0.00744762 0.00595844)
(0.141686 -0.00395557 0.00896596)
(0.135551 -0.000400441 0.00999006)
(0.130026 0.00210049 0.00916601)
(0.126962 0.00345024 0.0068571)
(0.126153 0.00394588 0.00363548)
(0.126498 0.0036026 0.000697313)
(0.127677 0.00235937 -0.00112844)
(0.129864 0.000844157 -0.0018797)
(0.132794 4.11313e-05 -0.00156349)
(0.135632 -7.49061e-05 -0.000384259)
(0.137713 -0.00026298 0.000708638)
(0.139426 -0.000782659 0.000501053)
(0.141918 -0.00122998 -0.00164809)
(0.145919 -0.0013285 -0.00539764)
(0.150897 -0.00149886 -0.00946901)
(0.153901 -0.00100969 -0.00908049)
(0.158888 -0.00208143 -0.011399)
(0.16173 -0.0032888 -0.0128219)
(0.161713 -0.00435061 -0.013157)
(0.1592 -0.00485453 -0.0119324)
(0.154947 -0.00429459 -0.0090113)
(0.149994 -0.00263499 -0.00489277)
(0.145989 -0.000761967 -0.000564049)
(0.144031 0.000152536 0.00270836)
(0.143832 -0.000324069 0.00444858)
(0.144277 -0.00163311 0.00519136)
(0.144291 -0.00272692 0.00523473)
(0.143139 -0.00300809 0.00438785)
(0.140719 -0.00254536 0.00265176)
(0.137816 -0.00173127 0.00056004)
(0.135534 -0.000871303 -0.00119914)
(0.134585 -0.000159197 -0.00217607)
(0.13505 0.000249744 -0.00239946)
(0.136864 0.000290947 -0.00257982)
(0.139517 -0.000360168 -0.00319319)
(0.142014 -0.00222293 -0.00355811)
(0.144247 -0.00503917 -0.00278125)
(0.146415 -0.00736869 -0.000734486)
(0.147782 -0.00796474 0.00227038)
(0.147254 -0.00630078 0.00562511)
(0.144285 -0.0027221 0.00826513)
(0.139167 0.00118926 0.00949158)
(0.133257 0.00384426 0.00944969)
(0.128408 0.00477111 0.00834603)
(0.125527 0.00436126 0.00637248)
(0.124635 0.00298169 0.00431993)
(0.125687 0.000945264 0.00293205)
(0.12834 -0.00101812 0.00216701)
(0.131685 -0.00187433 0.00199228)
(0.134681 -0.00141171 0.00246355)
(0.136677 -0.000432192 0.00302846)
(0.137894 0.000220829 0.00267653)
(0.139576 0.000328922 0.000833668)
(0.142968 8.31654e-05 -0.00228699)
(0.148105 -0.0003131 -0.00589448)
(0.152174 0.000642754 -0.00571108)
(0.157672 -0.00043566 -0.00830085)
(0.161975 -0.00131201 -0.0103117)
(0.163816 -0.00193159 -0.0116368)
(0.16263 -0.00224179 -0.0118148)
(0.158847 -0.00196223 -0.0103336)
(0.153576 -0.000910468 -0.0071945)
(0.148544 0.000391068 -0.00296964)
(0.145148 0.00105209 0.00106323)
(0.143474 0.000677483 0.00375315)
(0.142693 -0.000326006 0.00503145)
(0.14204 -0.00119649 0.00529158)
(0.141151 -0.00144211 0.00462206)
(0.140153 -0.00116432 0.00311193)
(0.139517 -0.000817555 0.00124601)
(0.139491 -0.000720588 -0.000293926)
(0.139832 -0.000885913 -0.000995045)
(0.14005 -0.00116483 -0.000691115)
(0.14013 -0.00132546 0.000158168)
(0.140416 -0.00143334 0.000850596)
(0.141069 -0.00217283 0.00144744)
(0.142422 -0.00390805 0.00243706)
(0.144501 -0.00578878 0.00381435)
(0.146206 -0.00632029 0.0052713)
(0.146091 -0.00472571 0.00674107)
(0.143551 -0.00131223 0.00792457)
(0.138991 0.00251161 0.00852783)
(0.133534 0.00505025 0.00864016)
(0.128675 0.00568792 0.00830959)
(0.125423 0.00504359 0.00754423)
(0.124179 0.00373872 0.00672315)
(0.125193 0.00199311 0.00619434)
(0.127999 0.000207849 0.00583109)
(0.131375 -0.000794947 0.00549534)
(0.134264 -0.000478717 0.00539656)
(0.136267 0.000768373 0.00542083)
(0.137672 0.00206716 0.00487356)
(0.139325 0.00266477 0.00321446)
(0.14221 0.0024162 0.000523681)
(0.14668 0.00166974 -0.00265198)
(0.150883 0.00086771 -0.00332656)
(0.155876 -0.000243567 -0.00610389)
(0.160136 -0.000755178 -0.00819328)
(0.162811 -0.00063695 -0.00963216)
(0.163362 -0.000122931 -0.0104742)
(0.161724 0.000572802 -0.0103606)
(0.158344 0.00131046 -0.00884198)
(0.15417 0.00186282 -0.00594683)
(0.150164 0.00187311 -0.00241734)
(0.146744 0.00117188 0.000672244)
(0.14396 0.000135724 0.00276738)
(0.142122 -0.000693648 0.00393592)
(0.141695 -0.00100363 0.00430965)
(0.142792 -0.000848628 0.0038993)
(0.144944 -0.00058439 0.00293283)
(0.147067 -0.000597223 0.00206323)
(0.148146 -0.000867004 0.00193105)
(0.147664 -0.00105609 0.00269654)
(0.145924 -0.00089848 0.00391754)
(0.144051 -0.000471098 0.00471338)
(0.143051 -0.000390955 0.00475484)
(0.143376 -0.0013178 0.00449978)
(0.144808 -0.00284356 0.0044246)
(0.146099 -0.00349353 0.00466352)
(0.14582 -0.00224236 0.00539182)
(0.143406 0.000830757 0.00623566)
(0.139306 0.00470853 0.00660504)
(0.134552 0.00759733 0.00661147)
(0.130393 0.00830953 0.00649445)
(0.12773 0.00725522 0.0060533)
(0.126809 0.00553396 0.00536566)
(0.127629 0.0038156 0.00487286)
(0.129827 0.00242575 0.00475213)
(0.132673 0.00165953 0.00488743)
(0.135567 0.00176802 0.00524788)
(0.137996 0.00261223 0.00573638)
(0.139765 0.00359711 0.0058061)
(0.141158 0.00394754 0.00482145)
(0.143038 0.00336181 0.00268116)
(0.146287 0.0022037 -0.000217365)
(0.149403 -0.000823693 -0.00123106)
(0.153901 -0.00208199 -0.00400201)
(0.157556 -0.00233694 -0.00621696)
(0.159771 -0.00163539 -0.007712)
(0.160396 -0.000322997 -0.00851401)
(0.159639 0.00119581 -0.00865632)
(0.157889 0.00253427 -0.00810728)
(0.155667 0.00336306 -0.00676921)
(0.153394 0.00338777 -0.00471881)
(0.151118 0.00244658 -0.00239243)
(0.148676 0.000728388 -0.000260375)
(0.146273 -0.00138068 0.00149162)
(0.144756 -0.00351107 0.0028107)
(0.144929 -0.00518005 0.00358447)
(0.146817 -0.00598521 0.00374224)
(0.149378 -0.00579687 0.00346019)
(0.15113 -0.00478076 0.00321757)
(0.151027 -0.00309445 0.00326541)
(0.148933 -0.000966063 0.0033601)
(0.145909 0.00102434 0.00299199)
(0.143429 0.0022223 0.00190645)
(0.142425 0.00219547 0.000559529)
(0.142849 0.000995922 -0.000293531)
(0.143742 -0.000445116 -7.62693e-05)
(0.144167 -0.000738706 0.00132845)
(0.143789 0.000967783 0.00320736)
(0.142597 0.00442716 0.00427844)
(0.140797 0.00816184 0.0039932)
(0.138819 0.010294 0.00293299)
(0.137329 0.0101343 0.00177743)
(0.136611 0.00849925 0.000891778)
(0.136493 0.00645375 0.00063128)
(0.136736 0.00466399 0.00118121)
(0.137102 0.00349041 0.00234945)
(0.137565 0.00304924 0.00378642)
(0.138153 0.00318922 0.00511534)
(0.138913 0.00353642 0.00582442)
(0.140014 0.00349972 0.00545766)
(0.14193 0.00260576 0.00397214)
(0.145117 0.000972144 0.00160557)
(0.14917 -0.00275403 0.00285252)
(0.152135 -0.00256027 -0.000733397)
(0.153507 -0.00134489 -0.00402242)
(0.153095 0.000372857 -0.00640451)
(0.151315 0.00201897 -0.00768371)
(0.149064 0.00322057 -0.00806193)
(0.147312 0.0037912 -0.00787261)
(0.146712 0.00371479 -0.00729955)
(0.14737 0.00307797 -0.00637877)
(0.148886 0.00198163 -0.00511162)
(0.150532 0.000574313 -0.00354503)
(0.151614 -0.00109239 -0.00171729)
(0.151935 -0.00302121 0.000272081)
(0.151729 -0.005017 0.00224276)
(0.151441 -0.00660509 0.0040102)
(0.151309 -0.00731853 0.00533729)
(0.151104 -0.00686741 0.0059498)
(0.15033 -0.00510015 0.00572101)
(0.148615 -0.00230125 0.00471969)
(0.146226 0.000431621 0.00308151)
(0.143892 0.00182681 0.00110781)
(0.142489 0.00149515 -0.00055593)
(0.142541 5.9018e-05 -0.00127832)
(0.143651 -0.00134493 -0.000710526)
(0.144949 -0.00162603 0.00108054)
(0.145956 -0.000231309 0.00326239)
(0.146541 0.00260902 0.00440412)
(0.146712 0.00601006 0.00352922)
(0.146607 0.00859984 0.000958361)
(0.146441 0.00928903 -0.00217653)
(0.146178 0.00821332 -0.00473746)
(0.145563 0.00637749 -0.00582237)
(0.144556 0.00473731 -0.00501281)
(0.143349 0.00376908 -0.00255109)
(0.142142 0.00341473 0.000898653)
(0.141142 0.00322794 0.00454545)
(0.140573 0.0026902 0.00743133)
(0.140827 0.00150674 0.00870841)
(0.142464 -0.000192622 0.00812894)
(0.145519 -0.00183944 0.00599837)
(0.155017 -0.000810533 0.0079575)
(0.156888 0.000203832 0.00589489)
(0.158325 0.00205253 0.00260166)