/*--------------------------------*- C++ -*----------------------------------*\
| =========                 |                                                 |
| \\      /  F ield         | OpenFOAM: The Open Source CFD Toolbox           |
|  \\    /   O peration     | Version:  2306                                  |
|   \\  /    A nd           | Website:  www.openfoam.com                      |
|    \\/     M anipulation  |                                                 |
\*---------------------------------------------------------------------------*/
FoamFile
{
    version     2.0;
    format      ascii;
    arch        "LSB;label=32;scalar=64";
    class       volScalarField;
    location    "2.5";
    object      nut;
}
// * * * * * * * * * * * * * * * * * * * * * * * * * * * * * * * * * * * * * //

dimensions      [0 2 -1 0 0 0 0];

internalField   nonuniform List<scalar> 
60000
(
9.72061e-05
9.77059e-05
9.57064e-05
9.3055e-05
9.10155e-05
8.927e-05
8.69706e-05
8.33186e-05
7.75145e-05
6.96176e-05
6.15292e-05
5.60075e-05
5.39823e-05
5.40235e-05
5.45322e-05
5.4862e-05
5.56204e-05
5.7567e-05
6.04848e-05
6.37908e-05
6.7503e-05
7.20534e-05
7.76812e-05
8.36172e-05
8.81185e-05
8.93552e-05
8.65182e-05
8.01515e-05
7.24382e-05
6.60045e-05
6.17167e-05
5.93573e-05
5.87987e-05
6.02821e-05
6.38866e-05
6.89649e-05
7.49455e-05
8.16359e-05
8.82927e-05
9.37845e-05
9.86781e-05
0.000100674
9.91197e-05
9.59133e-05
9.33158e-05
9.16176e-05
8.97026e-05
8.65037e-05
8.16141e-05
7.51482e-05
6.78004e-05
6.12701e-05
5.71659e-05
5.51849e-05
5.42964e-05
5.39965e-05
5.45882e-05
5.64133e-05
5.91933e-05
6.25981e-05
6.68779e-05
7.22867e-05
7.85751e-05
8.47979e-05
8.96223e-05
9.15296e-05
8.96391e-05
8.44612e-05
7.80212e-05
7.17386e-05
6.59635e-05
6.12891e-05
5.8776e-05
5.92493e-05
6.25011e-05
6.75849e-05
7.3755e-05
8.04804e-05
8.7302e-05
9.36567e-05
9.68099e-05
0.000100959
0.000100327
9.6507e-05
9.30421e-05
9.1308e-05
9.02555e-05
8.85553e-05
8.58952e-05
8.20811e-05
7.60871e-05
6.80161e-05
6.06094e-05
5.58026e-05
5.32465e-05
5.20048e-05
5.18721e-05
5.30305e-05
5.52584e-05
5.82253e-05
6.21701e-05
6.74536e-05
7.38672e-05
8.06597e-05
8.68626e-05
9.10287e-05
9.19319e-05
8.93861e-05
8.46962e-05
7.89177e-05
7.22413e-05
6.51245e-05
5.91946e-05
5.65429e-05
5.78083e-05
6.20737e-05
6.80721e-05
7.4967e-05
8.22356e-05
8.97647e-05
8.95433e-05
9.65222e-05
9.79315e-05
9.39343e-05
8.93818e-05
8.7461e-05
8.74883e-05
8.77627e-05
8.7777e-05
8.7364e-05
8.45205e-05
7.68627e-05
6.63178e-05
5.74436e-05
5.21041e-05
4.92494e-05
4.78575e-05
4.77817e-05
4.882e-05
5.04994e-05
5.29076e-05
5.68254e-05
6.25102e-05
6.95265e-05
7.73867e-05
8.48938e-05
9.02214e-05
9.18081e-05
8.99143e-05
8.57765e-05
7.99458e-05
7.21402e-05
6.28959e-05
5.52571e-05
5.20639e-05
5.3571e-05
5.8289e-05
6.50088e-05
7.24349e-05
8.06109e-05
7.3447e-05
8.36204e-05
8.89868e-05
8.62612e-05
8.04779e-05
7.80809e-05
7.93876e-05
8.17914e-05
8.41731e-05
8.69529e-05
8.88094e-05
8.54811e-05
7.51183e-05
6.22415e-05
5.24872e-05
4.68353e-05
4.35607e-05
4.17073e-05
4.08407e-05
4.02878e-05
3.98717e-05
4.0844e-05
4.41973e-05
4.9592e-05
5.75483e-05
6.85984e-05
7.97856e-05
8.73694e-05
8.97658e-05
8.8224e-05
8.48124e-05
7.96447e-05
7.09629e-05
5.9405e-05
4.98459e-05
4.58883e-05
4.68916e-05
5.12164e-05
5.70998e-05
6.41199e-05
4.93837e-05
5.90991e-05
6.98327e-05
7.115e-05
6.4604e-05
6.08951e-05
6.38647e-05
6.88929e-05
7.30023e-05
7.74092e-05
8.35023e-05
8.80062e-05
8.43536e-05
7.17555e-05
5.71952e-05
4.69342e-05
4.098e-05
3.72523e-05
3.45386e-05
3.19593e-05
2.91918e-05
2.83694e-05
3.15944e-05
3.61474e-05
3.84507e-05
4.22095e-05
5.5745e-05
7.12185e-05
8.00908e-05
8.20089e-05
8.10472e-05
8.01824e-05
7.7623e-05
6.91679e-05
5.58896e-05
4.50984e-05
4.12014e-05
4.18737e-05
4.36402e-05
4.55313e-05
4.0101e-05
3.94763e-05
4.33795e-05
4.91708e-05
4.30757e-05
3.49751e-05
3.8578e-05
4.86306e-05
5.44374e-05
5.73351e-05
6.40704e-05
7.61988e-05
8.54682e-05
8.25499e-05
6.80981e-05
5.23441e-05
4.20924e-05
3.65027e-05
3.32108e-05
3.08755e-05
2.86579e-05
2.60728e-05
2.56154e-05
3.09348e-05
3.81681e-05
3.88251e-05
3.2468e-05
4.27965e-05
5.79607e-05
6.26601e-05
6.18546e-05
6.47845e-05
7.11566e-05
7.35284e-05
6.70142e-05
5.39273e-05
4.28255e-05
3.95721e-05
3.90963e-05
3.87399e-05
3.28622e-05
3.72344e-05
3.20017e-05
3.10019e-05
3.02085e-05
1.67195e-05
1.13044e-05
2.28575e-05
3.47187e-05
3.44558e-05
3.13162e-05
4.20181e-05
6.5866e-05
8.28413e-05
8.07376e-05
6.44787e-05
4.83812e-05
3.91465e-05
3.52769e-05
3.45465e-05
3.5915e-05
3.69201e-05
3.33222e-05
2.61824e-05
2.62816e-05
3.5677e-05
3.63589e-05
2.55598e-05
2.93258e-05
3.0969e-05
2.41194e-05
2.4174e-05
3.65114e-05
5.48321e-05
6.57011e-05
6.3846e-05
5.23955e-05
4.04877e-05
3.54148e-05
3.24314e-05
2.45487e-05
2.66092e-05
3.08007e-05
2.44779e-05
2.93601e-05
2.3479e-05
4.87011e-06
1.27699e-05
1.60776e-05
2.3915e-05
1.58805e-05
1.24984e-05
2.57014e-05
5.84866e-05
8.07385e-05
7.76424e-05
6.03601e-05
4.52531e-05
3.78545e-05
3.65716e-05
3.97502e-05
4.4909e-05
4.66041e-05
4.01883e-05
2.74192e-05
2.21172e-05
2.99882e-05
2.63017e-05
1.35904e-05
2.17483e-05
2.9386e-05
3.45862e-05
3.57482e-05
3.22714e-05
4.29836e-05
5.58114e-05
5.77552e-05
4.80525e-05
3.52255e-05
2.79436e-05
2.30227e-05
2.17517e-05
2.47878e-05
2.61337e-05
2.57681e-05
3.26012e-05
2.05171e-05
8.85199e-06
1.83507e-05
1.22458e-05
2.29357e-05
1.22512e-05
2.01673e-05
2.50584e-05
5.54328e-05
7.64355e-05
7.15171e-05
5.50552e-05
4.15324e-05
3.63806e-05
3.89049e-05
4.69746e-05
5.40216e-05
5.28867e-05
4.21189e-05
2.53321e-05
1.97016e-05
2.36367e-05
1.84962e-05
2.75815e-05
3.30015e-05
2.7584e-05
3.2663e-05
3.84599e-05
3.36784e-05
3.54823e-05
4.57013e-05
5.05315e-05
4.3334e-05
3.00431e-05
2.57783e-05
2.32324e-05
2.30432e-05
2.52063e-05
2.56861e-05
2.66433e-05
2.90679e-05
1.28801e-05
1.42521e-05
2.00408e-05
1.17743e-05
2.48086e-05
1.20902e-05
2.58578e-05
2.54108e-05
5.10031e-05
6.75264e-05
6.18242e-05
4.65021e-05
3.41168e-05
3.30298e-05
4.21455e-05
5.59825e-05
6.23101e-05
5.57778e-05
3.85816e-05
2.00955e-05
1.92439e-05
2.05621e-05
2.59534e-05
3.27433e-05
2.78488e-05
1.78708e-05
1.90282e-05
2.69362e-05
2.75097e-05
2.88811e-05
3.95317e-05
4.69806e-05
3.90967e-05
3.29481e-05
2.61105e-05
2.78162e-05
2.50109e-05
2.60992e-05
2.31646e-05
1.95705e-05
2.05048e-05
5.919e-06
1.68498e-05
1.86411e-05
1.34295e-05
1.89171e-05
1.37286e-05
2.74945e-05
2.26106e-05
3.97964e-05
4.90066e-05
4.27018e-05
2.96287e-05
2.19766e-05
3.0076e-05
4.50723e-05
6.18725e-05
6.43901e-05
5.10057e-05
3.06978e-05
2.07147e-05
2.05111e-05
2.14391e-05
2.81641e-05
3.25769e-05
3.31728e-05
2.74065e-05
1.89835e-05
2.01454e-05
2.30466e-05
2.42066e-05
3.84479e-05
4.33182e-05
3.65002e-05
2.96183e-05
3.07325e-05
2.91096e-05
2.3241e-05
2.29075e-05
1.52615e-05
1.31623e-05
1.48206e-05
7.00979e-06
1.78205e-05
1.65791e-05
1.55991e-05
1.38076e-05
1.93691e-05
2.69261e-05
1.86684e-05
1.81045e-05
2.10727e-05
2.55528e-05
2.57517e-05
2.70317e-05
3.00694e-05
4.3282e-05
5.97282e-05
5.64034e-05
3.97751e-05
2.76742e-05
2.41962e-05
1.99235e-05
2.22015e-05
2.86001e-05
3.71987e-05
4.20964e-05
3.65346e-05
2.52662e-05
2.26101e-05
2.05099e-05
2.21193e-05
3.68306e-05
3.14785e-05
3.14812e-05
3.28921e-05
3.34957e-05
2.66677e-05
2.14539e-05
1.62948e-05
8.18826e-06
1.2872e-05
1.12659e-05
1.17401e-05
1.71866e-05
1.67331e-05
1.81989e-05
1.55213e-05
2.54181e-05
3.4318e-05
2.90167e-05
1.33317e-05
2.14069e-05
3.10878e-05
2.52403e-05
2.41458e-05
2.14959e-05
3.88096e-05
5.05954e-05
4.22289e-05
3.10158e-05
2.76637e-05
2.11921e-05
1.65806e-05
1.7219e-05
2.38659e-05
3.5348e-05
4.02998e-05
3.4034e-05
2.45209e-05
2.34784e-05
1.42417e-05
2.07919e-05
1.91353e-05
2.82508e-05
3.31974e-05
3.50162e-05
3.16225e-05
2.78353e-05
2.00587e-05
8.97723e-06
1.04352e-05
1.50849e-05
1.27744e-05
1.40812e-05
1.60101e-05
1.92582e-05
2.17475e-05
2.05411e-05
2.13099e-05
1.87015e-05
1.70888e-05
2.09854e-05
2.7353e-05
2.89377e-05
1.95301e-05
1.77882e-05
2.09349e-05
3.8855e-05
4.00672e-05
3.01835e-05
2.54167e-05
1.9642e-05
1.3333e-05
1.44655e-05
1.3749e-05
1.44356e-05
2.19522e-05
2.39413e-05
1.85998e-05
1.9126e-05
2.19186e-05
1.33774e-05
2.02068e-05
2.27811e-05
2.97354e-05
3.15031e-05
2.9722e-05
3.20247e-05
2.70811e-05
1.40979e-05
6.68989e-06
1.46964e-05
1.68026e-05
1.37573e-05
1.23987e-05
1.41581e-05
1.92663e-05
2.1233e-05
1.9941e-05
1.8754e-05
2.01546e-05
2.18643e-05
2.32147e-05
2.99067e-05
2.77768e-05
1.4094e-05
1.4722e-05
3.24519e-05
3.94698e-05
3.21349e-05
2.21037e-05
1.59557e-05
2.07088e-05
2.38208e-05
2.03394e-05
1.66151e-05
1.58163e-05
1.77932e-05
1.81619e-05
2.01105e-05
2.54985e-05
2.65261e-05
3.09266e-05
2.82177e-05
2.66618e-05
2.44972e-05
2.12586e-05
2.87754e-05
3.1526e-05
2.12756e-05
8.45185e-06
8.22356e-06
1.34925e-05
1.38177e-05
1.26417e-05
1.33025e-05
1.30084e-05
1.48794e-05
2.07499e-05
2.31727e-05
2.14607e-05
1.90137e-05
1.79187e-05
2.64326e-05
3.18929e-05
2.0896e-05
4.9555e-06
2.08513e-05
3.34386e-05
3.39859e-05
2.57468e-05
1.8495e-05
1.854e-05
1.72972e-05
1.64228e-05
1.46607e-05
1.13581e-05
1.34481e-05
2.16602e-05
2.61608e-05
2.71996e-05
2.99492e-05
2.73798e-05
3.05481e-05
3.18416e-05
2.54889e-05
1.52563e-05
2.02646e-05
3.04301e-05
2.98832e-05
2.11418e-05
1.00575e-05
7.28435e-06
1.06883e-05
1.13742e-05
1.33276e-05
1.61734e-05
2.25929e-05
2.74851e-05
2.52452e-05
2.04382e-05
1.58241e-05
1.36187e-05
2.2657e-05
3.13452e-05
2.5681e-05
7.9965e-06
1.175e-05
2.49261e-05
2.9625e-05
2.75616e-05
2.26804e-05
1.69208e-05
1.31372e-05
1.8371e-05
2.26603e-05
1.63403e-05
1.37551e-05
2.37692e-05
2.93225e-05
2.85727e-05
2.64422e-05
2.12097e-05
2.32089e-05
2.4685e-05
2.24966e-05
1.60145e-05
1.47727e-05
1.76763e-05
2.13265e-05
2.34898e-05
2.30174e-05
1.9749e-05
1.22681e-05
3.46637e-06
1.33086e-05
2.50014e-05
3.12131e-05
2.88047e-05
2.25093e-05
2.23294e-05
1.93292e-05
1.20382e-05
1.81707e-05
3.32588e-05
3.7015e-05
2.02678e-05
1.30913e-05
3.0197e-05
3.58134e-05
3.70215e-05
3.81702e-05
3.72398e-05
3.19799e-05
2.40637e-05
2.12407e-05
2.15761e-05
1.7163e-05
1.87536e-05
2.3212e-05
2.24546e-05
2.04101e-05
1.97475e-05
1.76735e-05
1.68407e-05
1.58414e-05
1.80085e-05
2.31416e-05
2.2565e-05
1.53347e-05
1.34769e-05
1.67666e-05
1.97582e-05
2.25564e-05
2.10693e-05
1.67841e-05
2.05234e-05
2.8912e-05
2.99745e-05
2.42611e-05
2.41268e-05
2.60656e-05
2.18137e-05
1.3874e-05
1.47774e-05
2.40501e-05
2.07113e-05
6.36893e-06
2.81181e-05
4.10528e-05
4.7052e-05
5.14835e-05
5.01533e-05
4.20693e-05
3.09398e-05
2.08818e-05
1.57314e-05
1.43005e-05
1.59134e-05
2.12121e-05
2.42279e-05
2.29818e-05
2.03801e-05
1.87679e-05
1.72655e-05
1.66436e-05
1.84586e-05
1.8456e-05
1.48646e-05
9.77993e-06
1.15325e-05
1.76917e-05
1.91705e-05
1.65554e-05
1.64067e-05
1.97419e-05
1.98157e-05
1.33817e-05
8.11441e-06
1.07982e-05
1.58056e-05
2.42649e-05
2.74487e-05
2.28595e-05
1.46541e-05
1.01545e-05
1.28723e-05
7.88763e-06
2.06292e-05
3.67763e-05
4.41786e-05
4.3874e-05
3.80391e-05
3.10754e-05
2.67867e-05
2.55189e-05
2.45833e-05
2.26648e-05
2.1003e-05
2.11971e-05
2.28401e-05
2.27852e-05
1.47069e-05
1.65276e-05
2.23219e-05
2.29253e-05
2.23775e-05
2.29479e-05
2.13017e-05
1.67259e-05
1.10881e-05
6.93749e-06
7.50279e-06
1.19984e-05
1.43148e-05
1.21327e-05
1.22872e-05
1.7786e-05
1.96713e-05
1.52254e-05
1.43669e-05
2.40945e-05
3.23111e-05
3.2986e-05
2.55411e-05
1.69192e-05
1.36839e-05
1.23143e-05
1.8441e-05
2.89253e-05
3.23349e-05
2.82586e-05
2.18043e-05
1.80508e-05
1.80692e-05
2.25698e-05
2.8304e-05
3.00161e-05
2.81734e-05
2.53928e-05
2.26992e-05
1.93589e-05
1.15036e-05
1.25795e-05
1.25762e-05
9.93579e-06
9.11906e-06
1.38676e-05
1.58276e-05
1.49969e-05
1.76955e-05
2.01017e-05
1.82662e-05
1.33105e-05
1.03398e-05
1.38871e-05
1.49143e-05
1.18037e-05
1.3977e-05
1.90075e-05
1.83485e-05
1.89656e-05
2.81549e-05
3.50156e-05
3.29344e-05
2.33008e-05
1.49832e-05
1.37359e-05
1.52361e-05
1.82778e-05
2.03471e-05
2.16529e-05
2.20015e-05
1.92746e-05
1.42175e-05
1.19423e-05
1.87974e-05
2.39545e-05
2.2671e-05
1.7712e-05
1.31901e-05
1.12147e-05
1.21242e-05
1.09734e-05
9.53033e-06
9.89964e-06
1.31119e-05
1.59618e-05
1.6639e-05
1.80163e-05
2.21098e-05
2.37003e-05
1.96915e-05
1.38403e-05
1.20868e-05
1.19538e-05
1.05076e-05
8.23188e-06
8.83171e-06
1.31345e-05
1.64564e-05
1.82534e-05
1.81215e-05
1.53593e-05
1.09601e-05
9.10918e-06
1.03613e-05
1.1901e-05
1.3676e-05
1.5279e-05
1.69201e-05
1.89814e-05
1.91144e-05
1.55275e-05
1.01898e-05
7.14215e-06
7.51031e-06
9.4739e-06
1.10747e-05
1.22518e-05
1.27239e-05
1.25341e-05
1.52163e-05
1.33207e-05
1.02078e-05
9.85208e-06
1.15954e-05
1.28646e-05
1.19879e-05
8.77255e-06
7.55296e-06
9.72071e-06
9.95469e-06
9.82321e-06
1.26543e-05
1.71712e-05
2.13799e-05
2.36326e-05
2.20491e-05
1.8329e-05
1.84579e-05
2.14689e-05
2.42641e-05
2.63658e-05
2.40994e-05
1.57262e-05
5.71654e-06
5.26309e-06
1.02521e-05
1.41559e-05
1.90276e-05
2.30402e-05
2.39128e-05
2.09682e-05
1.52026e-05
1.14793e-05
1.18441e-05
9.67063e-06
6.07604e-06
1.02777e-05
1.38445e-05
1.49351e-05
7.90794e-05
8.36333e-05
8.81393e-05
9.12179e-05
9.18429e-05
9.02776e-05
8.76778e-05
8.4707e-05
8.1023e-05
7.62869e-05
7.14625e-05
6.8019e-05
6.61683e-05
6.49066e-05
6.36638e-05
6.29632e-05
6.36681e-05
6.5903e-05
6.89884e-05
7.22025e-05
7.56325e-05
7.97496e-05
8.46755e-05
8.95884e-05
9.24806e-05
9.15747e-05
8.70339e-05
8.05572e-05
7.40628e-05
6.87323e-05
6.41094e-05
5.95402e-05
5.58116e-05
5.39997e-05
5.41019e-05
5.55323e-05
5.86178e-05
6.36528e-05
6.95263e-05
7.46345e-05
7.82145e-05
8.41164e-05
8.97004e-05
9.37206e-05
9.51858e-05
9.40539e-05
9.13648e-05
8.81042e-05
8.46971e-05
8.10237e-05
7.69691e-05
7.30816e-05
7.00065e-05
6.74473e-05
6.51683e-05
6.38126e-05
6.40562e-05
6.57376e-05
6.82654e-05
7.12311e-05
7.49641e-05
7.99404e-05
8.59915e-05
9.18687e-05
9.54696e-05
9.53439e-05
9.16753e-05
8.56066e-05
7.91134e-05
7.40353e-05
6.97802e-05
6.46253e-05
5.87842e-05
5.44817e-05
5.30564e-05
5.42173e-05
5.74552e-05
6.2135e-05
6.73828e-05
7.2666e-05
7.46927e-05
8.11671e-05
8.73416e-05
9.23497e-05
9.51646e-05
9.52119e-05
9.31972e-05
9.04526e-05
8.81463e-05
8.62579e-05
8.33801e-05
7.89877e-05
7.45318e-05
7.07847e-05
6.73291e-05
6.44208e-05
6.29644e-05
6.31514e-05
6.45677e-05
6.6815e-05
7.0033e-05
7.47974e-05
8.11944e-05
8.81507e-05
9.36414e-05
9.61422e-05
9.5348e-05
9.13226e-05
8.53876e-05
8.05197e-05
7.72763e-05
7.27436e-05
6.48747e-05
5.64226e-05
5.15275e-05
5.09286e-05
5.33439e-05
5.75215e-05
6.27479e-05
6.85154e-05
6.83183e-05
7.46509e-05
8.05759e-05
8.59017e-05
9.00788e-05
9.19852e-05
9.15173e-05
8.99064e-05
8.89572e-05
8.92932e-05
8.88144e-05
8.51937e-05
7.97685e-05
7.49174e-05
7.0417e-05
6.56389e-05
6.15757e-05
5.91789e-05
5.84234e-05
5.88925e-05
6.03709e-05
6.34765e-05
6.8952e-05
7.63592e-05
8.39567e-05
9.0139e-05
9.40801e-05
9.44396e-05
9.05995e-05
8.60897e-05
8.40941e-05
8.20035e-05
7.46909e-05
6.24525e-05
5.19534e-05
4.73757e-05
4.76877e-05
5.0933e-05
5.59781e-05
6.20203e-05
5.85248e-05
6.4009e-05
6.87666e-05
7.29428e-05
7.74551e-05
8.13876e-05
8.33891e-05
8.36221e-05
8.38406e-05
8.59268e-05
8.88112e-05
8.84754e-05
8.39487e-05
7.85473e-05
7.35886e-05
6.76691e-05
6.10802e-05
5.54274e-05
5.1411e-05
4.86499e-05
4.66791e-05
4.62229e-05
4.88801e-05
5.47915e-05
6.30475e-05
7.25865e-05
8.228e-05
8.97381e-05
9.10467e-05
8.78205e-05
8.65123e-05
8.77676e-05
8.50477e-05
7.36246e-05
5.80897e-05
4.69796e-05
4.27104e-05
4.35594e-05
4.738e-05
5.27488e-05
4.53421e-05
4.97174e-05
5.33733e-05
5.48648e-05
5.66424e-05
6.09605e-05
6.58363e-05
6.88284e-05
7.00824e-05
7.24022e-05
7.77055e-05
8.28674e-05
8.31171e-05
7.93003e-05
7.47731e-05
6.91193e-05
6.16075e-05
5.35957e-05
4.6429e-05
4.01361e-05
3.46652e-05
3.16621e-05
3.2614e-05
3.53242e-05
3.8028e-05
4.37395e-05
5.57713e-05
7.13193e-05
8.16987e-05
8.25445e-05
8.11762e-05
8.473e-05
8.88929e-05
8.48371e-05
7.08851e-05
5.44647e-05
4.29313e-05
3.85243e-05
3.88773e-05
4.14949e-05
3.24341e-05
3.46238e-05
3.83017e-05
3.94613e-05
3.5962e-05
3.41905e-05
3.85979e-05
4.46172e-05
4.68439e-05
4.65775e-05
5.02509e-05
6.04312e-05
7.00325e-05
7.30709e-05
7.14305e-05
6.73202e-05
6.08844e-05
5.30091e-05
4.49137e-05
3.70971e-05
3.01534e-05
2.54614e-05
2.4955e-05
2.82537e-05
2.92119e-05
2.64624e-05
2.73145e-05
4.01644e-05
5.84556e-05
6.69667e-05
6.5996e-05
6.91115e-05
7.89223e-05
8.57925e-05
8.21638e-05
6.95399e-05
5.34669e-05
4.06085e-05
3.4794e-05
3.28026e-05
2.71607e-05
2.6054e-05
2.739e-05
3.02282e-05
2.90673e-05
2.06485e-05
1.53582e-05
1.90289e-05
2.38106e-05
2.28605e-05
1.96091e-05
2.36186e-05
3.79148e-05
5.34367e-05
6.11102e-05
6.13399e-05
5.69162e-05
5.05756e-05
4.40315e-05
3.81731e-05
3.44856e-05
3.34379e-05
3.11155e-05
2.72926e-05
2.67926e-05
2.37556e-05
1.92126e-05
2.06506e-05
3.11309e-05
4.28917e-05
3.94464e-05
3.45105e-05
4.60024e-05
6.6198e-05
7.85725e-05
7.96733e-05
7.04294e-05
5.28879e-05
3.79907e-05
3.09933e-05
2.79204e-05
2.57756e-05
2.54265e-05
2.37459e-05
2.63574e-05
2.44668e-05
1.30394e-05
1.23507e-05
1.4424e-05
1.62211e-05
1.13146e-05
7.36227e-06
1.30287e-05
2.2449e-05
4.14585e-05
5.21858e-05
5.24042e-05
4.67973e-05
4.06324e-05
3.69829e-05
3.74158e-05
4.22852e-05
4.6184e-05
4.15081e-05
3.2557e-05
2.71592e-05
1.95879e-05
1.62279e-05
1.85518e-05
2.20357e-05
1.8438e-05
1.49506e-05
2.12148e-05
2.26014e-05
4.94763e-05
7.04526e-05
7.84678e-05
6.88667e-05
4.81287e-05
3.36542e-05
2.82567e-05
2.52132e-05
2.7794e-05
2.67966e-05
2.12203e-05
2.40899e-05
2.02944e-05
1.12081e-05
2.02327e-05
2.08313e-05
1.74877e-05
1.10046e-05
1.36173e-05
1.8495e-05
1.64404e-05
3.54162e-05
4.6641e-05
4.47057e-05
3.69542e-05
3.16118e-05
3.16153e-05
3.74137e-05
4.59927e-05
4.91666e-05
4.06909e-05
3.08211e-05
2.30647e-05
1.46211e-05
1.46901e-05
1.43521e-05
1.88433e-05
1.83895e-05
2.87681e-05
3.35179e-05
1.76245e-05
3.86521e-05
6.68283e-05
7.63773e-05
6.1339e-05
3.98867e-05
2.98268e-05
2.1759e-05
2.44625e-05
3.0112e-05
2.6532e-05
1.89377e-05
2.10583e-05
1.59252e-05
1.68938e-05
2.68923e-05
2.31507e-05
1.52911e-05
1.27782e-05
2.21399e-05
2.46051e-05
1.45169e-05
2.90627e-05
3.77352e-05
3.30125e-05
2.44989e-05
2.04291e-05
2.41858e-05
3.46624e-05
4.49209e-05
4.37792e-05
3.26617e-05
2.45993e-05
1.56862e-05
9.05395e-06
1.37387e-05
2.20307e-05
2.85417e-05
2.31426e-05
2.34234e-05
3.21156e-05
1.97197e-05
3.67681e-05
6.82331e-05
7.02301e-05
4.93059e-05
3.62833e-05
2.2016e-05
1.96347e-05
2.50986e-05
2.8745e-05
2.27725e-05
1.77383e-05
2.00222e-05
1.51427e-05
1.74633e-05
2.35533e-05
2.14806e-05
1.72748e-05
1.68532e-05
2.66212e-05
2.54069e-05
1.16075e-05
1.76035e-05
2.29436e-05
2.04233e-05
1.57689e-05
1.70845e-05
2.33108e-05
3.21769e-05
3.81703e-05
3.10012e-05
2.24834e-05
1.72704e-05
1.03325e-05
9.69351e-06
1.9067e-05
2.75298e-05
3.56876e-05
3.13981e-05
2.04826e-05
3.11351e-05
1.85785e-05
4.341e-05
6.8911e-05
5.84898e-05
4.65284e-05
2.89686e-05
2.19665e-05
2.21281e-05
2.41013e-05
2.30593e-05
1.7407e-05
1.84395e-05
1.85379e-05
1.309e-05
1.674e-05
2.29571e-05
2.23649e-05
1.63257e-05
1.62359e-05
2.51612e-05
2.61967e-05
1.90502e-05
1.06837e-05
1.82958e-05
2.22281e-05
1.64734e-05
1.94921e-05
2.06546e-05
2.33413e-05
2.53807e-05
1.87767e-05
1.79727e-05
1.55776e-05
1.1934e-05
1.42441e-05
2.05375e-05
2.50109e-05
3.22934e-05
2.9239e-05
2.23562e-05
2.9931e-05
1.43105e-05
5.35434e-05
6.37393e-05
5.6506e-05
4.15203e-05
3.14039e-05
2.79333e-05
2.34578e-05
1.94353e-05
1.55128e-05
1.63509e-05
1.96533e-05
1.73392e-05
1.65927e-05
2.2873e-05
2.53198e-05
1.93525e-05
9.94023e-06
1.57871e-05
2.73426e-05
2.69587e-05
1.90795e-05
2.32371e-05
2.50708e-05
1.89466e-05
9.41627e-06
1.39272e-05
1.11001e-05
1.76189e-05
1.6625e-05
1.61086e-05
1.95324e-05
1.66907e-05
1.26687e-05
1.24041e-05
1.79118e-05
1.84186e-05
2.35609e-05
2.18606e-05
2.47218e-05
1.73571e-05
2.74182e-05
5.75537e-05
5.90647e-05
5.70585e-05
4.62848e-05
3.8943e-05
3.22714e-05
2.46892e-05
1.81778e-05
1.64204e-05
2.03172e-05
2.20512e-05
2.16031e-05
2.33629e-05
2.45164e-05
2.0503e-05
1.46486e-05
1.35327e-05
1.8107e-05
2.03876e-05
2.40572e-05
2.67137e-05
2.07664e-05
1.53776e-05
1.37158e-05
8.77402e-06
9.60555e-06
1.6646e-05
1.89081e-05
1.51161e-05
1.9637e-05
1.86649e-05
1.27866e-05
8.14618e-06
8.3933e-06
1.3767e-05
1.82966e-05
2.06531e-05
1.7432e-05
1.93337e-05
6.34457e-06
3.88132e-05
4.27174e-05
6.33201e-05
6.43608e-05
5.47513e-05
4.31871e-05
3.15609e-05
2.25696e-05
1.67398e-05
1.85849e-05
2.39476e-05
2.66435e-05
2.48532e-05
2.16561e-05
1.86621e-05
1.49309e-05
1.26378e-05
1.64186e-05
2.35037e-05
2.70372e-05
2.3428e-05
1.35929e-05
7.97686e-06
1.26483e-05
1.10327e-05
1.17009e-05
1.72273e-05
2.28889e-05
1.9348e-05
1.66725e-05
1.59668e-05
1.35511e-05
1.237e-05
1.49623e-05
1.54046e-05
1.51434e-05
2.17187e-05
2.3696e-05
2.02776e-05
1.70541e-05
1.36447e-05
2.07037e-05
3.87443e-05
5.8733e-05
6.29398e-05
5.23805e-05
3.41482e-05
1.86944e-05
1.13992e-05
1.11858e-05
1.68031e-05
2.4207e-05
2.72325e-05
2.41034e-05
2.10731e-05
1.7729e-05
1.11834e-05
1.06269e-05
1.63792e-05
1.85122e-05
1.53392e-05
1.04694e-05
1.34031e-05
1.87224e-05
1.78656e-05
1.43987e-05
1.44381e-05
1.88721e-05
2.10239e-05
1.87875e-05
1.57753e-05
1.42042e-05
1.50892e-05
1.70431e-05
1.79843e-05
1.84847e-05
2.24588e-05
2.69202e-05
2.42146e-05
2.03288e-05
2.05049e-05
2.31354e-05
2.38443e-05
2.64491e-05
4.20975e-05
5.04102e-05
4.23376e-05
2.43857e-05
9.24224e-06
1.14642e-05
1.52343e-05
1.33679e-05
1.63118e-05
2.39306e-05
2.71475e-05
2.46648e-05
1.98436e-05
1.88074e-05
1.71588e-05
1.09357e-05
8.46744e-06
1.13945e-05
1.70528e-05
2.59358e-05
3.0392e-05
2.49752e-05
1.54311e-05
1.54903e-05
2.03331e-05
2.30983e-05
2.32601e-05
1.97706e-05
1.51146e-05
1.63905e-05
1.91623e-05
2.17865e-05
2.69195e-05
3.01647e-05
2.72168e-05
2.0952e-05
1.75011e-05
1.38648e-05
2.10969e-05
2.30738e-05
1.85709e-05
3.00196e-05
4.23204e-05
3.9162e-05
2.64656e-05
1.30921e-05
5.9389e-06
1.01509e-05
1.34965e-05
1.59004e-05
2.07359e-05
2.92956e-05
3.60634e-05
3.60201e-05
2.7224e-05
1.62393e-05
1.43995e-05
1.59343e-05
1.52216e-05
1.74238e-05
2.64008e-05
3.09215e-05
2.39234e-05
1.97486e-05
2.56119e-05
3.04505e-05
3.20157e-05
2.91904e-05
2.18551e-05
1.40834e-05
1.74309e-05
2.54041e-05
2.89934e-05
2.77843e-05
2.32767e-05
1.76291e-05
1.27805e-05
1.4481e-05
1.33925e-05
1.83418e-05
2.15538e-05
1.62545e-05
1.4023e-05
2.0585e-05
2.00529e-05
1.75808e-05
1.81874e-05
1.58308e-05
1.13234e-05
1.48337e-05
2.28851e-05
3.10878e-05
3.89857e-05
3.86651e-05
2.59571e-05
1.17441e-05
1.50579e-05
1.79313e-05
1.80813e-05
1.73703e-05
1.30111e-05
1.5045e-05
2.13618e-05
2.40863e-05
2.76264e-05
2.85004e-05
2.68928e-05
2.67262e-05
2.6172e-05
2.13637e-05
1.43095e-05
1.47046e-05
1.78534e-05
1.86012e-05
2.08064e-05
2.21105e-05
1.9387e-05
1.52092e-05
1.41566e-05
1.33544e-05
1.06405e-05
1.24971e-05
1.60221e-05
1.45072e-05
8.35257e-06
6.91055e-06
1.32282e-05
1.56575e-05
1.69353e-05
2.12583e-05
2.60083e-05
2.70009e-05
2.52843e-05
2.56474e-05
2.38461e-05
1.52231e-05
1.45193e-05
2.20404e-05
2.60925e-05
2.631e-05
2.31873e-05
1.85073e-05
1.8664e-05
2.21696e-05
2.43561e-05
2.08621e-05
1.69921e-05
2.28923e-05
2.99015e-05
3.15456e-05
2.71833e-05
1.97089e-05
1.30896e-05
1.17905e-05
1.63583e-05
1.94967e-05
1.8596e-05
1.46209e-05
1.4943e-05
1.27187e-05
1.57044e-05
2.29536e-05
2.74399e-05
2.67033e-05
2.15769e-05
1.4225e-05
6.63573e-06
8.75557e-06
1.41893e-05
1.59405e-05
1.70584e-05
1.92891e-05
1.88172e-05
1.37395e-05
9.26312e-06
6.83005e-06
3.68798e-06
1.43507e-05
2.46209e-05
2.83117e-05
2.59229e-05
2.13217e-05
1.89358e-05
1.97154e-05
2.01795e-05
1.74631e-05
1.50462e-05
1.79712e-05
2.3041e-05
2.67857e-05
2.86986e-05
2.87246e-05
2.55962e-05
2.0492e-05
1.60511e-05
1.31588e-05
1.25505e-05
9.61578e-06
1.13819e-05
1.31839e-05
1.28741e-05
1.36298e-05
1.8358e-05
2.34148e-05
2.39883e-05
2.03325e-05
1.88469e-05
2.13463e-05
2.36127e-05
2.4496e-05
2.37617e-05
2.07163e-05
1.69689e-05
1.3814e-05
1.02817e-05
6.87187e-06
5.33595e-06
6.68982e-06
1.17776e-05
1.89631e-05
2.2388e-05
2.00572e-05
1.78483e-05
1.85512e-05
1.61191e-05
1.27162e-05
1.31178e-05
1.18783e-05
7.37345e-06
6.96526e-06
9.94393e-06
1.41644e-05
1.7524e-05
1.62031e-05
1.26728e-05
1.10141e-05
9.9254e-06
1.00377e-05
1.34146e-05
1.41979e-05
1.1335e-05
9.42628e-06
1.30636e-05
1.58913e-05
1.51176e-05
1.38652e-05
1.3602e-05
1.18327e-05
9.48992e-06
9.20688e-06
1.14154e-05
1.50278e-05
1.60689e-05
1.37253e-05
1.18923e-05
1.1665e-05
1.3513e-05
1.90658e-05
2.33659e-05
2.30926e-05
1.98682e-05
1.58947e-05
1.19869e-05
1.08533e-05
1.41618e-05
1.83369e-05
2.0149e-05
1.74987e-05
1.12726e-05
7.88314e-06
9.42054e-06
9.94361e-06
9.47715e-06
9.30275e-06
1.03345e-05
1.04262e-05
8.98087e-06
1.78774e-05
1.95359e-05
2.30228e-05
2.45016e-05
2.39954e-05
2.35721e-05
2.18031e-05
1.65445e-05
1.04318e-05
1.13334e-05
1.41542e-05
1.25923e-05
9.77679e-06
1.23424e-05
1.7004e-05
1.894e-05
1.78814e-05
1.62244e-05
1.48435e-05
1.47504e-05
2.04742e-05
2.63494e-05
2.54436e-05
2.00024e-05
1.66573e-05
1.55317e-05
1.62981e-05
2.1585e-05
2.73384e-05
2.73743e-05
2.20538e-05
1.83017e-05
1.46985e-05
9.4437e-06
8.14273e-06
6.97735e-06
7.67979e-06
1.46122e-05
1.87817e-05
1.89698e-05
5.8761e-05
6.28447e-05
6.67279e-05
6.98164e-05
7.1254e-05
7.0813e-05
6.92289e-05
6.72683e-05
6.50907e-05
6.29264e-05
6.1588e-05
6.15493e-05
6.246e-05
6.37304e-05
6.51238e-05
6.68923e-05
6.94338e-05
7.25791e-05
7.54358e-05
7.72771e-05
7.82742e-05
7.92129e-05
8.09255e-05
8.37171e-05
8.63987e-05
8.72574e-05
8.58929e-05
8.28791e-05
7.842e-05
7.22031e-05
6.39145e-05
5.51448e-05
4.87887e-05
4.56493e-05
4.43784e-05
4.38599e-05
4.44228e-05
4.66152e-05
5.01516e-05
5.44248e-05
5.70064e-05
6.27216e-05
6.8385e-05
7.29312e-05
7.54203e-05
7.56825e-05
7.42159e-05
7.17081e-05
6.89747e-05
6.68181e-05
6.56207e-05
6.51615e-05
6.50909e-05
6.52924e-05
6.59436e-05
6.73467e-05
6.96654e-05
7.2553e-05
7.52792e-05
7.72904e-05
7.87067e-05
8.03159e-05
8.28538e-05
8.62457e-05
8.92902e-05
9.05933e-05
8.96946e-05
8.7092e-05
8.36396e-05
7.92409e-05
7.24978e-05
6.31732e-05
5.36926e-05
4.72352e-05
4.40557e-05
4.29459e-05
4.3249e-05
4.49529e-05
4.79272e-05
5.19673e-05
5.39748e-05
6.07008e-05
6.76293e-05
7.37453e-05
7.79189e-05
7.96978e-05
7.92144e-05
7.70255e-05
7.43273e-05
7.22409e-05
7.08622e-05
6.96596e-05
6.84397e-05
6.72998e-05
6.64252e-05
6.62124e-05
6.7134e-05
6.91231e-05
7.15219e-05
7.36347e-05
7.53347e-05
7.72717e-05
8.02353e-05
8.42098e-05
8.82636e-05
9.11088e-05
9.18199e-05
9.04685e-05
8.86095e-05
8.69528e-05
8.33387e-05
7.47935e-05
6.16734e-05
4.99669e-05
4.35365e-05
4.1064e-05
4.0505e-05
4.15501e-05
4.41825e-05
4.83082e-05
4.93791e-05
5.62903e-05
6.37414e-05
7.1061e-05
7.71037e-05
8.10825e-05
8.26204e-05
8.17955e-05
7.98196e-05
7.82483e-05
7.71882e-05
7.57122e-05
7.36194e-05
7.11762e-05
6.8306e-05
6.52877e-05
6.32232e-05
6.28979e-05
6.39338e-05
6.5411e-05
6.6851e-05
6.86784e-05
7.17885e-05
7.63518e-05
8.17011e-05
8.67627e-05
9.01301e-05
9.06243e-05
9.01203e-05
9.11019e-05
9.19288e-05
8.74296e-05
7.36218e-05
5.61077e-05
4.43498e-05
3.92219e-05
3.73314e-05
3.76199e-05
3.98239e-05
4.37534e-05
4.34084e-05
4.93341e-05
5.58593e-05
6.29913e-05
7.01288e-05
7.64177e-05
8.09341e-05
8.27983e-05
8.25073e-05
8.20682e-05
8.22836e-05
8.18344e-05
7.99561e-05
7.70761e-05
7.28735e-05
6.68996e-05
6.05014e-05
5.58526e-05
5.34708e-05
5.25108e-05
5.21862e-05
5.27801e-05
5.54726e-05
6.04628e-05
6.69486e-05
7.43168e-05
8.14124e-05
8.48883e-05
8.50817e-05
8.74224e-05
9.29543e-05
9.5994e-05
8.7635e-05
6.76107e-05
4.89387e-05
3.91337e-05
3.48984e-05
3.38433e-05
3.52507e-05
3.85935e-05
3.74471e-05
4.15599e-05
4.5682e-05
4.99528e-05
5.5375e-05
6.2289e-05
6.98306e-05
7.56551e-05
7.82726e-05
7.95041e-05
8.16449e-05
8.38904e-05
8.42681e-05
8.26837e-05
7.90346e-05
7.19118e-05
6.17228e-05
5.17892e-05
4.42588e-05
3.8849e-05
3.50027e-05
3.34838e-05
3.56035e-05
4.04142e-05
4.57254e-05
5.20977e-05
6.22902e-05
7.09967e-05
7.20196e-05
7.28323e-05
8.12122e-05
9.3683e-05
9.7487e-05
8.29199e-05
5.93583e-05
4.27554e-05
3.46271e-05
3.11369e-05
3.10909e-05
3.36658e-05
3.28834e-05
3.56478e-05
3.77316e-05
3.83015e-05
3.86107e-05
4.10325e-05
4.71406e-05
5.55617e-05
6.2062e-05
6.55745e-05
6.93591e-05
7.49368e-05
7.97431e-05
8.20889e-05
8.17498e-05
7.65807e-05
6.56262e-05
5.22436e-05
4.04752e-05
3.11215e-05
2.44026e-05
2.24316e-05
2.56321e-05
3.10594e-05
3.54219e-05
3.49397e-05
3.53986e-05
4.78035e-05
5.25517e-05
4.71453e-05
5.25067e-05
7.32734e-05
9.38806e-05
9.48293e-05
7.47586e-05
5.18092e-05
3.80539e-05
3.10053e-05
2.8241e-05
2.96665e-05
2.95152e-05
3.19257e-05
3.34081e-05
3.33056e-05
3.08196e-05
2.83832e-05
2.96092e-05
3.25152e-05
3.64848e-05
3.98372e-05
4.25234e-05
4.82865e-05
5.71155e-05
6.61174e-05
7.25262e-05
7.31258e-05
6.56418e-05
5.25033e-05
3.99233e-05
3.13882e-05
2.58509e-05
2.14551e-05
2.02588e-05
2.46622e-05
3.03343e-05
3.23056e-05
2.84751e-05
2.42813e-05
3.48425e-05
2.59177e-05
1.61704e-05
2.99889e-05
6.68851e-05
9.2149e-05
8.84835e-05
6.67691e-05
4.66372e-05
3.51047e-05
2.8428e-05
2.68155e-05
2.65472e-05
2.91756e-05
3.1468e-05
3.27846e-05
3.16765e-05
2.76597e-05
2.43949e-05
2.56441e-05
2.49533e-05
2.24945e-05
2.04002e-05
2.15967e-05
2.66851e-05
3.13889e-05
4.12452e-05
5.2743e-05
5.52854e-05
4.72781e-05
3.62921e-05
3.11941e-05
3.27804e-05
3.49273e-05
3.24558e-05
2.80439e-05
2.96168e-05
3.19123e-05
2.67702e-05
2.45366e-05
2.06839e-05
2.75916e-05
6.30026e-06
2.54174e-05
2.21333e-05
6.42225e-05
8.87419e-05
8.28428e-05
6.17075e-05
4.40873e-05
3.38914e-05
2.70636e-05
2.6587e-05
2.63895e-05
2.99038e-05
3.41334e-05
3.55093e-05
3.26007e-05
2.63481e-05
2.16741e-05
2.20142e-05
2.1054e-05
2.00222e-05
2.23305e-05
3.01182e-05
3.45169e-05
2.52444e-05
1.73319e-05
3.163e-05
3.68012e-05
3.13345e-05
2.72231e-05
3.2095e-05
4.1044e-05
4.59122e-05
3.97128e-05
3.01505e-05
3.16627e-05
3.12733e-05
2.03847e-05
2.1758e-05
2.04359e-05
2.77785e-05
1.05116e-05
3.61411e-05
2.20877e-05
6.3497e-05
8.71999e-05
7.99983e-05
5.81108e-05
4.29753e-05
3.30852e-05
3.0944e-05
2.46639e-05
2.60188e-05
3.28509e-05
3.84101e-05
3.86431e-05
3.26655e-05
2.22564e-05
1.62074e-05
1.83783e-05
1.91776e-05
1.82789e-05
2.00989e-05
2.8728e-05
3.44623e-05
2.5038e-05
1.0871e-05
2.30548e-05
2.81618e-05
2.64259e-05
2.81653e-05
3.36805e-05
4.05867e-05
4.28961e-05
3.16473e-05
2.22956e-05
2.70107e-05
2.18529e-05
1.70081e-05
1.90967e-05
2.04182e-05
2.7019e-05
1.76457e-05
3.85371e-05
2.24337e-05
6.41999e-05
8.71084e-05
7.50364e-05
5.33026e-05
4.07112e-05
3.42027e-05
2.40817e-05
2.09464e-05
2.71181e-05
3.47864e-05
3.8923e-05
3.79325e-05