/*--------------------------------*- C++ -*----------------------------------*\
| =========                 |                                                 |
| \\      /  F ield         | OpenFOAM: The Open Source CFD Toolbox           |
|  \\    /   O peration     | Version:  2306                                  |
|   \\  /    A nd           | Website:  www.openfoam.com                      |
|    \\/     M anipulation  |                                                 |
\*---------------------------------------------------------------------------*/
FoamFile
{
    version     2.0;
    format      ascii;
    arch        "LSB;label=32;scalar=64";
    class       surfaceScalarField;
    location    "2.5";
    object      phi_0;
}
// * * * * * * * * * * * * * * * * * * * * * * * * * * * * * * * * * * * * * //

dimensions      [0 3 -1 0 0 0 0];

oriented        oriented;

internalField   nonuniform List<scalar> 
175300
(
6.53892e-06
7.63018e-07
1.61074e-06
6.44766e-06
1.88649e-07
2.13018e-06
6.33958e-06
-2.69979e-07
2.30916e-06
6.24639e-06
-4.3067e-07
2.22937e-06
6.14551e-06
-3.25528e-07
2.00049e-06
6.01046e-06
-1.66522e-07
1.69444e-06
5.81632e-06
-7.99922e-08
1.39037e-06
5.494e-06
-4.35546e-08
1.19479e-06
4.97496e-06
-3.54459e-08
1.18024e-06
4.34732e-06
-1.27231e-07
1.30776e-06
3.84672e-06
-3.8482e-07
1.44158e-06
3.62517e-06
-6.75336e-07
1.50383e-06
3.64434e-06
-8.49611e-07
1.49183e-06
3.76617e-06
-8.52965e-07
1.35047e-06
3.85916e-06
-6.62288e-07
1.03853e-06
3.90587e-06
-3.42594e-07
6.17997e-07
4.00069e-06
-5.40021e-08
2.06132e-07
4.18567e-06
1.30113e-07
-1.27848e-07
4.40695e-06
2.42393e-07
-3.82819e-07
4.62413e-06
2.79802e-07
-5.85468e-07
4.84049e-06
1.6874e-07
-7.63161e-07
5.10514e-06
-9.26216e-08
-9.52647e-07
5.44813e-06
-3.36991e-07
-1.22241e-06
5.77589e-06
-3.65133e-07
-1.56931e-06
5.94864e-06
-2.61119e-07
-1.82421e-06
5.877e-06
-1.33535e-07
-1.9105e-06
5.53758e-06
4.16521e-08
-1.95037e-06
4.98597e-06
2.12676e-07
-1.97612e-06
4.45159e-06
6.23963e-08
-1.87402e-06
4.12348e-06
-3.06552e-07
-1.76969e-06
3.98031e-06
-4.50597e-07
-1.83447e-06
3.97001e-06
-3.10095e-07
-1.95003e-06
4.09821e-06
-8.35493e-08
-1.85065e-06
4.36873e-06
1.97937e-07
-1.46247e-06
4.71793e-06
5.8932e-07
-9.46724e-07
5.09483e-06
9.27214e-07
-5.16904e-07
5.52389e-06
1.00556e-06
-2.21338e-07
5.98904e-06
9.44474e-07
7.41477e-08
6.3643e-06
1.02035e-06
4.15858e-07
1.07159e-06
9.46694e-07
2.21917e-05
1.69186e-06
5.16439e-06
2.20281e-05
-4.10622e-08
6.26877e-06
2.16046e-05
-1.28306e-06
6.50693e-06
2.11663e-05
-1.61815e-06
6.23629e-06
2.07786e-05
-1.23669e-06
5.7596e-06
2.03329e-05
-7.39388e-07
5.11352e-06
1.966e-05
-4.13526e-07
4.3518e-06
1.85611e-05
-2.08336e-07
3.74043e-06
1.69353e-05
-1.63144e-07
3.58481e-06
1.50457e-05
-5.19139e-07
3.90357e-06
1.34706e-05
-1.42641e-06
4.36232e-06
1.26196e-05
-2.44855e-06
4.60896e-06
1.24166e-05
-3.03011e-06
4.47279e-06
1.25096e-05
-2.9226e-06
3.8779e-06
1.2621e-05
-2.16408e-06
2.89427e-06
1.27559e-05
-1.07777e-06
1.74504e-06
1.31035e-05
-1.81597e-07
6.71201e-07
1.37107e-05
3.38422e-07
-2.15832e-07
1.44572e-05
5.82426e-07
-9.45455e-07
1.52797e-05
5.60176e-07
-1.5604e-06
1.62011e-05
-2.28553e-09
-2.1273e-06
1.7291e-05
-9.52559e-07
-2.76052e-06
1.85115e-05
-1.71288e-06
-3.60447e-06
1.95812e-05
-1.73132e-06
-4.58023e-06
2.01319e-05
-1.30202e-06
-5.25441e-06
1.98956e-05
-7.56466e-07
-5.43173e-06
1.88354e-05
-1.3549e-07
-5.36107e-06
1.72211e-05
2.9499e-07
-5.20042e-06
1.55986e-05
-2.02614e-07
-4.95636e-06
1.43386e-05
-1.18517e-06
-4.97381e-06
1.35141e-05
-1.48981e-06
-5.43382e-06
1.32193e-05
-1.06945e-06
-5.79035e-06
1.35383e-05
-4.02752e-07
-5.35478e-06
1.43843e-05
5.22511e-07
-4.08624e-06
1.55245e-05
1.8106e-06
-2.55197e-06
1.68141e-05
2.92314e-06
-1.28788e-06
1.8251e-05
3.15366e-06
-2.98813e-07
1.97597e-05
3.01829e-06
5.86083e-07
2.10511e-05
3.05418e-06
1.80734e-06
2.87956e-06
3.43761e-06
4.19053e-05
2.05131e-06
8.71517e-06
4.18005e-05
-1.03231e-06
1.04227e-05
4.09214e-05
-3.0471e-06
1.0648e-05
3.9918e-05
-3.45518e-06
1.00853e-05
3.91193e-05
-2.66587e-06
9.42374e-06
3.83439e-05
-1.72325e-06
8.68629e-06
3.72177e-05
-1.0407e-06
7.68218e-06
3.54117e-05
-5.28992e-07
6.61956e-06
3.2777e-05
-3.68408e-07
6.05223e-06
2.95708e-05
-9.68645e-07
6.30346e-06
2.65367e-05
-2.62571e-06
7.10583e-06
2.44721e-05
-4.70708e-06
7.78064e-06
2.35381e-05
-6.06162e-06
7.71371e-06
2.32749e-05
-5.94829e-06
6.75419e-06
2.32296e-05
-4.45116e-06
5.18708e-06
2.33788e-05
-2.3246e-06
3.41022e-06
2.39683e-05
-6.08425e-07
1.72777e-06
2.50419e-05
2.89525e-07
3.4046e-07
2.64201e-05
6.60477e-07
-8.80679e-07
2.80205e-05
3.72274e-07
-1.89909e-06
2.98956e-05
-1.0759e-06
-2.79328e-06
3.21116e-05
-3.26378e-06
-3.7997e-06
3.45242e-05
-4.89954e-06
-5.2257e-06
3.66515e-05
-4.88674e-06
-6.98404e-06
3.78905e-05
-3.80433e-06
-8.34577e-06
3.77659e-05
-2.37417e-06
-8.81835e-06
3.61805e-05
-9.00877e-07
-8.61442e-06
3.35613e-05
-1.95034e-08
-8.07467e-06
3.07031e-05
-8.7902e-07
-7.51064e-06
2.81247e-05
-2.52016e-06
-7.59371e-06
2.60345e-05
-2.97536e-06
-8.57606e-06
2.48256e-05
-2.27318e-06
-9.54241e-06
2.48978e-05
-1.22985e-06
-9.21495e-06
2.61824e-05
3.41589e-07
-7.32238e-06
2.82108e-05
2.74624e-06
-4.78589e-06
3.06396e-05
4.93288e-06
-2.57435e-06
3.3379e-05
5.44558e-06
-7.75186e-07
3.62763e-05
5.19115e-06
9.13594e-07
3.89169e-05
5.07946e-06
3.09004e-06
4.44634e-06
5.88654e-06
6.5758e-05
1.16197e-06
1.15957e-05
6.60166e-05
-3.05846e-06
1.43598e-05
6.45823e-05
-5.46854e-06
1.47896e-05
6.2726e-05
-5.72424e-06
1.37548e-05
6.13396e-05
-4.43601e-06
1.2693e-05
6.02703e-05
-2.98852e-06
1.20192e-05
5.88752e-05
-1.90099e-06
1.11911e-05
5.66595e-05
-9.98463e-07
9.8916e-06
5.33942e-05
-6.23779e-07
8.64126e-06
4.90935e-05
-1.24837e-06
8.2933e-06
4.42964e-05
-3.33675e-06
9.17939e-06
4.01664e-05
-6.48217e-06
1.0607e-05
3.75724e-05
-9.11096e-06
1.11756e-05
3.63214e-05
-9.54473e-06
1.02101e-05
3.57692e-05
-7.54377e-06
8.2377e-06
3.57273e-05
-4.33876e-06
5.98674e-06
3.64297e-05
-1.67442e-06
3.82573e-06
3.79052e-05
-2.97753e-07
1.97009e-06
3.9904e-05
7.24631e-08
5.01888e-07
4.23175e-05
-7.7224e-07
-7.89041e-07
4.52611e-05
-3.59651e-06
-1.77843e-06
4.88502e-05
-7.88489e-06
-2.84235e-06
5.28536e-05
-1.1086e-05
-4.71492e-06
5.65593e-05
-1.11543e-05
-7.53153e-06
5.90988e-05
-8.95371e-06
-1.02392e-05
5.97359e-05
-5.84037e-06
-1.17209e-05
5.81896e-05
-2.72274e-06
-1.18087e-05
5.4891e-05
-8.88932e-07
-1.08745e-05
5.08393e-05
-1.95636e-06
-9.59446e-06
4.6725e-05
-4.19401e-06
-9.2555e-06
4.28124e-05
-4.69891e-06
-1.05678e-05
3.97184e-05
-3.69676e-06
-1.25376e-05
3.8464e-05
-2.583e-06
-1.32428e-05
3.94974e-05
-9.24247e-07
-1.16342e-05
4.22399e-05
2.20293e-06
-8.50553e-06
4.59671e-05
5.26093e-06
-5.36725e-06
5.0358e-05
6.24666e-06
-2.69273e-06
5.51114e-05
5.69017e-06
1.55227e-07
5.9673e-05
5.67827e-06
3.23962e-06
4.73307e-06
7.30886e-06
9.2869e-05
-2.18328e-06
1.25102e-05
9.41881e-05
-6.79127e-06
1.72685e-05
9.22846e-05
-8.59301e-06
1.87872e-05
8.92372e-05
-8.10071e-06
1.74303e-05
8.70065e-05
-6.25933e-06
1.54673e-05
8.57278e-05
-4.33289e-06
1.45876e-05
8.44039e-05
-2.85513e-06
1.43628e-05
8.22517e-05
-1.56599e-06
1.35119e-05
7.8984e-05
-9.3955e-07
1.17088e-05
7.42784e-05
-1.3262e-06
1.0107e-05
6.80016e-05
-3.15452e-06
1.02621e-05
6.11723e-05
-6.75125e-06
1.23877e-05
5.56079e-05
-1.08876e-05
1.4404e-05
5.21804e-05
-1.27952e-05
1.41799e-05
5.03991e-05
-1.11105e-05
1.20646e-05
4.97345e-05
-7.14796e-06
9.4733e-06
5.02197e-05
-3.5511e-06
7.07114e-06
5.17928e-05
-1.61945e-06
5.04932e-06
5.4091e-05
-1.15878e-06
3.469e-06
5.6935e-05
-2.76231e-06
2.42478e-06
6.05689e-05
-7.78715e-06
1.99837e-06
6.53922e-05
-1.55353e-05
1.69052e-06
7.13178e-05
-2.17576e-05
3.68406e-08
7.74177e-05
-2.25576e-05
-3.92365e-06
8.23797e-05
-1.8781e-05
-9.01397e-06
8.5004e-05
-1.27254e-05
-1.29855e-05
8.46222e-05
-6.49757e-06
-1.46236e-05
8.14254e-05
-2.60659e-06
-1.38992e-05
7.65604e-05
-3.45983e-06
-1.16856e-05
7.10457e-05
-6.18092e-06
-1.01661e-05
6.5244e-05
-6.50993e-06
-1.11096e-05
5.96431e-05
-4.93077e-06
-1.39168e-05
5.56027e-05
-3.80253e-06
-1.63408e-05
5.46424e-05
-2.78609e-06
-1.6436e-05
5.6915e-05
-1.53984e-07
-1.40727e-05
6.15287e-05
2.72324e-06
-1.07576e-05
6.77217e-05
3.27589e-06
-7.48889e-06
7.48128e-05
2.0321e-06
-3.77664e-06
8.19335e-05
2.24661e-06
8.86815e-07
1.99417e-06
6.20656e-06
0.000120226
-1.05108e-05
8.89143e-06
0.000124318
-1.41364e-05
1.69735e-05
0.000122692
-1.32544e-05
2.15469e-05
0.000118167
-1.03865e-05
2.12889e-05
0.000114698
-7.78081e-06
1.8279e-05
0.000113352
-5.68782e-06
1.62629e-05
0.000112636
-3.88589e-06
1.64146e-05
0.000111121
-2.17232e-06
1.6951e-05
0.000108532
-1.34535e-06
1.56301e-05
0.000104504
-1.46835e-06
1.25882e-05
9.80315e-05
-2.35468e-06
1.07083e-05
8.9044e-05
-5.14154e-06
1.25086e-05
7.95535e-05
-1.0082e-05
1.64097e-05
7.2148e-05
-1.40573e-05
1.81458e-05
6.76885e-05
-1.40185e-05
1.64827e-05
6.55706e-05
-1.02034e-05
1.35545e-05
6.52857e-05
-5.9301e-06
1.09725e-05
6.64092e-05
-3.3702e-06
9.06366e-06
6.8297e-05
-2.61797e-06
7.80042e-06
7.0522e-05
-4.92568e-06
7.49478e-06
7.33976e-05
-1.28291e-05
8.58515e-06
7.79409e-05
-2.56411e-05
1.03064e-05
8.48844e-05
-3.69143e-05
1.03505e-05
9.3869e-05
-4.07349e-05
6.53691e-06
0.000103306
-3.62019e-05
-1.33814e-06
0.000110548
-2.59325e-05
-9.93558e-06
0.000113582
-1.41283e-05
-1.55489e-05
0.00011204
-5.98454e-06
-1.67902e-05
0.000107205
-5.61444e-06
-1.43094e-05
0.000100783
-8.6321e-06
-1.1124e-05
9.36739e-05
-8.54883e-06
-1.06539e-05
8.61269e-05
-5.89671e-06
-1.33748e-05
7.89625e-05
-4.20543e-06
-1.71781e-05
7.41407e-05
-3.58968e-06
-1.97172e-05
7.32864e-05
-2.28209e-06
-1.99788e-05
7.65971e-05
-1.65192e-06
-1.85215e-05
8.33468e-05
-3.81011e-06
-1.60708e-05
9.23155e-05
-7.28756e-06
-1.22978e-05
0.000102072
-7.75439e-06
-6.68409e-06
-7.29485e-06
5.37524e-07
0.000140523
-2.62309e-05
-1.74352e-06
0.000150881
-2.89169e-05
9.98908e-06
0.000152465
-2.24111e-05
2.00171e-05
0.000146799
-1.3162e-05
2.41919e-05
0.000141395
-8.50414e-06
2.19575e-05
0.000140175
-7.25648e-06
1.80111e-05
0.000141082
-5.63735e-06
1.70003e-05
0.000141008
-3.05816e-06
1.89548e-05
0.00013951
-1.82065e-06
2.00066e-05
0.000137097
-2.16833e-06
1.68771e-05
0.000132479
-2.16982e-06
1.19821e-05
0.000123832
-2.92389e-06
1.13444e-05
0.000111485
-6.73886e-06
1.62079e-05
9.87544e-05
-1.18115e-05
2.09776e-05
8.92742e-05
-1.42493e-05
2.1103e-05
8.40605e-05
-1.21768e-05
1.81013e-05
8.22273e-05
-8.10925e-06
1.50546e-05
8.24914e-05
-4.98956e-06
1.30407e-05
8.36268e-05
-3.61322e-06
1.19684e-05
8.47466e-05
-6.21663e-06
1.22472e-05
8.5824e-05
-1.68434e-05
1.47974e-05
8.8141e-05
-3.53219e-05
1.90444e-05
9.32676e-05
-5.3018e-05
2.20085e-05
0.000102028
-6.11583e-05
2.02397e-05
0.000114703
-5.823e-05
1.25775e-05
0.000129068
-4.66055e-05
4.2395e-07
0.000139864
-2.84773e-05
-1.1503e-05
0.000143276
-1.30046e-05
-1.75612e-05
0.0001401
-9.09534e-06
-1.69308e-05
0.000133493
-1.16156e-05
-1.28584e-05
0.000125979
-1.08577e-05
-1.02801e-05
0.000118097
-6.78065e-06
-1.1528e-05
0.000109667
-3.95881e-06
-1.54256e-05
0.000101603
-2.47409e-06
-1.96577e-05
9.59167e-05
-1.1697e-06
-2.3079e-05
9.46616e-05
-3.51982e-06
-2.55493e-05
9.87472e-05
-1.11888e-05
-2.65367e-05
0.000106984
-1.98651e-05
-2.45804e-05
0.000116766
-2.2286e-05
-1.938e-05
-2.17038e-05
-1.17332e-05
0.000152274
-4.26477e-05
-1.61433e-05
0.00016807
-4.97284e-05
-2.74163e-06
0.000176943
-3.9757e-05
1.24239e-05
0.000172618
-1.89955e-05
2.32667e-05
0.000163696
-7.18152e-06
2.54781e-05
0.00016128
-7.76556e-06
2.10238e-05
0.000165496
-9.52429e-06
1.69808e-05
0.000168881
-5.77563e-06
1.81341e-05
0.000168195
-1.94537e-06
2.23923e-05
0.000166701
-3.12921e-06
2.2654e-05
0.000165756
-4.99417e-06
1.63531e-05
0.000161747
-4.25406e-06
1.12019e-05
0.000151107
-4.38362e-06
1.42882e-05
0.000134806
-7.15252e-06
2.15732e-05
0.000118467
-1.0198e-05
2.49283e-05
0.00010732
-1.08057e-05
2.30132e-05
0.000102335
-8.8277e-06
1.95536e-05
0.000101488
-6.21842e-06
1.69542e-05
0.000102547
-4.43371e-06
1.54195e-05
0.000104059
-6.9475e-06
1.51656e-05
0.000104992
-1.89383e-05
1.74473e-05
0.000105331
-4.0795e-05
2.28516e-05
0.000106719
-6.377e-05
2.9176e-05
0.000111522
-7.70057e-05
3.16123e-05
0.000121957
-7.72418e-05
2.65493e-05
0.00013879
-6.70118e-05
1.44477e-05
0.000157569
-4.71319e-05
-1.30471e-06
0.000169393
-2.52264e-05
-1.34141e-05
0.000169662
-1.43684e-05
-1.71447e-05
0.000162284
-1.32404e-05
-1.46401e-05
0.000154527
-1.22554e-05
-1.07089e-05
0.000149095
-8.69245e-06
-9.16218e-06
0.000143672
-4.7154e-06
-1.13686e-05
0.000136436
-3.56353e-07
-1.58402e-05
0.00012825
3.82227e-06
-2.12824e-05
0.000121649
9.063e-07
-2.77797e-05
0.000119823
-1.25731e-05
-3.43245e-05
0.000124145
-2.93936e-05
-3.7232e-05
0.000131618
-3.63429e-05
-3.42189e-05
-3.59724e-05
-2.67347e-05
0.000166577
-5.38249e-05
-3.0697e-05
0.00018142
-6.78685e-05
-1.51266e-05
0.000196281
-6.28517e-05
2.42896e-06
0.000198326
-3.29173e-05
1.86364e-05
0.000187836
-7.09911e-06
2.63503e-05
0.000179392
-3.92598e-06
2.38564e-05
0.000183004
-1.23368e-05
1.69877e-05
0.000192465
-1.25545e-05
1.44178e-05
0.000195156
-3.53205e-06
1.90859e-05
0.000190182
1.23635e-07
2.43077e-05
0.000187852
-6.72436e-06
2.1581e-05
0.000191436
-1.35927e-05
1.40294e-05
0.000191376
-1.27109e-05
1.32755e-05
0.000179317
-7.70325e-06
2.06607e-05
0.000158663
-4.6031e-06
2.70235e-05
0.000139346
-4.50613e-06
2.73446e-05
0.000128028
-5.41008e-06
2.43933e-05
0.000124556
-5.81238e-06
2.15141e-05
0.000125734
-5.60001e-06
1.93617e-05
0.000128882
-8.59853e-06
1.77894e-05
0.000131737
-2.06182e-05
1.80761e-05
0.000132526
-4.23203e-05
2.20566e-05
0.000131313
-6.65037e-05
2.99667e-05
0.00013082
-8.34616e-05
3.74286e-05
0.000135537
-8.80582e-05
3.78963e-05
0.000149245
-8.18448e-05
2.82073e-05
0.000170516
-6.51593e-05
1.11879e-05
0.000188455
-4.06345e-05
-5.59788e-06
0.000190551
-1.9667e-05
-1.43302e-05
0.000177569
-7.93196e-06
-1.45411e-05
0.000163548
-5.1329e-06
-1.04382e-05
0.000159567
-8.28002e-06
-5.88979e-06
0.000163975
-1.01772e-05
-4.56758e-06
0.000167718
-3.63669e-06
-7.65131e-06
0.000165354
8.0459e-06
-1.4071e-05
0.000158435
9.98366e-06
-2.33097e-05
0.000151346
-5.21269e-06
-3.50758e-05
0.000149044
-2.9784e-05
-4.52126e-05
0.000152384
-4.44339e-05
-4.79742e-05
-4.60772e-05
-4.23899e-05
0.000187635
-5.74306e-05
-4.62334e-05
0.000198449
-7.68674e-05
-2.84475e-05
0.000214118
-8.2718e-05
-8.55211e-06
0.000223889
-5.5542e-05
1.10727e-05
0.000219018
-1.64751e-05
2.3769e-05
0.000206148
-2.39158e-07
2.51214e-05
0.000200621
-9.02577e-06
1.7631e-05
0.00020896
-1.87191e-05
1.04793e-05
0.000219929
-1.14089e-05
1.1407e-05
0.00021912
2.19995e-06
1.80234e-05
0.000209769
4.65299e-07
2.04728e-05
0.000208727
-1.81134e-05
1.5567e-05
0.000218921
-3.1667e-05
1.28904e-05
0.000222292
-2.47149e-05
1.92859e-05
0.000207527
-7.80695e-06
2.7602e-05
0.000183341
2.68605e-06
3.00352e-05
0.00016348
3.83044e-06
2.81326e-05
0.00015377
-5.46506e-08
2.61156e-05
0.000152864
-5.02575e-06
2.46917e-05
0.000157509
-1.22824e-05
2.22489e-05
0.000163529
-2.54953e-05
1.92133e-05
0.000166525
-4.40699e-05
1.88655e-05
0.000164707
-6.43259e-05
2.54866e-05
0.000160274
-8.09885e-05
3.65128e-05
0.000158524
-8.86949e-05
4.33524e-05
0.000165782
-8.75135e-05
3.87332e-05
0.000183729
-7.72775e-05
2.23586e-05
0.000202568
-5.51482e-05
2.90596e-06
0.000206321
-2.46351e-05
-1.11794e-05
0.000190977
1.30237e-06
-1.43572e-05
0.000171163
9.99663e-06
-1.01275e-05
0.000162417
8.28289e-07
-2.22862e-06
0.000168719
-1.23646e-05
4.37286e-06
0.000183169
-1.11408e-05
4.89094e-06
0.000194243
5.11673e-06
-8.27197e-07
0.000196113
1.68304e-05
-1.19852e-05
0.000190734
7.21904e-06
-2.75959e-05
0.000183917
-1.97757e-05
-4.46122e-05
0.000180892
-4.19649e-05
-5.60353e-05
-4.86837e-05
-5.67158e-05
0.000213821
-5.31066e-05
-6.15632e-05
0.000221213
-7.60545e-05
-4.39939e-05
0.000234338
-9.30717e-05
-2.11365e-05
0.00024764
-7.83095e-05
2.35683e-07
0.000251283
-3.73951e-05
1.69139e-05
0.000242216
-6.00541e-06
2.33356e-05
0.000229169
-3.28572e-06
1.85174e-05
0.000225807
-1.59828e-05
8.58859e-06
0.000236073
-1.88069e-05
4.19682e-06
0.000247196
-5.45755e-06
8.82942e-06
0.000245107
3.29408e-06
1.50489e-05
0.000235615
-1.20395e-05
1.45898e-05
0.000238112
-4.09153e-05
1.15938e-05
0.000251534
-4.96734e-05
1.61517e-05
0.000253109
-2.75391e-05
2.58577e-05
0.000234984
4.72461e-07
3.04756e-05
0.000210696
1.3881e-05
2.93702e-05
0.000192883
1.28028e-05
2.84598e-05
0.000185588
2.73423e-06
2.95122e-05
0.0001888
-1.45817e-05
2.82222e-05
0.000198615
-3.55164e-05
2.17056e-05
0.00020664
-5.16614e-05
1.38926e-05
0.000206448
-6.22761e-05
1.52305e-05
0.000199099
-7.24841e-05
2.81636e-05
0.000190816
-8.04585e-05
4.22745e-05
0.000189441
-8.25599e-05
4.47713e-05
0.000199821
-7.85843e-05
3.12458e-05
0.000215565
-6.24433e-05
1.03029e-05
0.0002216
-2.85719e-05
-7.18142e-06
0.000210296
8.49491e-06
-1.40304e-05
0.000191419
2.51024e-05
-1.19029e-05
0.00017898
1.38538e-05
-2.38623e-06
0.000179824
-7.63918e-06
8.77035e-06
0.000193198
-1.48276e-05
1.55155e-05
0.000211478
-1.08923e-06
1.43269e-05
0.000225148
1.63081e-05
5.07731e-06
0.000229369
1.66599e-05
-1.26443e-05
0.000225585
-4.52771e-06
-3.48797e-05
0.000218609
-2.88906e-05
-5.50724e-05
-4.12724e-05
-6.56021e-05
0.000246779
-4.19786e-05
-7.24148e-05
0.000250857
-6.89851e-05
-6.01421e-05
0.000261474
-9.29812e-05
-3.64164e-05
0.000272942
-9.23165e-05
-1.30069e-05
0.000279885
-6.19749e-05
6.40242e-06
0.000277404
-2.34933e-05
1.76534e-05
0.000265572
-3.66651e-06
1.77204e-05
0.000253316
-6.99081e-06
8.30689e-06
0.000253119
-1.67219e-05
3.24258e-08
0.000266091
-1.53885e-05
2.13593e-06
0.000277044
-7.06781e-06
1.1071e-05
0.000273603
-1.20543e-05
1.48946e-05
0.000265891
-3.84124e-05
1.1235e-05
0.000271782
-6.22183e-05
1.15395e-05
0.000283963
-5.23418e-05
2.05673e-05
0.000281613
-1.64616e-05
2.78374e-05
0.000263216
1.46906e-05
2.79022e-05
0.000241739
2.59367e-05
2.78113e-05
0.000226553
1.92084e-05
3.08174e-05
0.000223046
-6.2226e-06
3.04275e-05
0.000233049
-4.16956e-05
2.01852e-05
0.000248368
-6.36625e-05
4.63984e-06
0.00025496
-6.47865e-05
-1.45383e-06
0.000247769
-6.20898e-05
1.14998e-05
0.000233373
-6.57252e-05
3.32705e-05
0.000221949
-6.82971e-05
4.60389e-05
0.000221715
-6.72083e-05
3.87415e-05
0.000231447
-5.76069e-05
1.80141e-05
0.000238985
-2.79412e-05
-1.68956e-06
0.000234516
1.25341e-05
-1.28318e-05
0.000221911
3.50574e-05
-1.54726e-05
0.000210774
2.55104e-05
-9.44504e-06
0.000207011
1.74118e-06
2.4314e-06
0.000212928
-1.09628e-05
1.44848e-05
0.000227222
-3.07115e-06
2.07723e-05
0.000245452
1.12755e-05
1.87845e-05
0.000261168
1.51124e-05
6.10116e-06
0.000267599
5.34531e-06
-1.85847e-05
0.000262954
-1.13132e-05
-4.57749e-05
-2.48555e-05
-6.63592e-05
0.000288008
-2.68962e-05
-7.6799e-05
0.000288816
-5.97426e-05
-7.20849e-05
0.000297623
-8.66749e-05
-5.14911e-05
0.000304875
-9.43017e-05
-2.74266e-05
0.000307544
-7.77576e-05
-7.31158e-06
0.000306334
-4.44131e-05
8.38466e-06
0.000299769
-1.26545e-05
1.40564e-05
0.000288674
3.45768e-08
8.16846e-06
0.000282038
-6.905e-06
-1.26465e-06
0.000288831
-1.8373e-05
-1.57924e-06
0.000303028
-2.06156e-05
8.24451e-06
0.000308518
-2.04602e-05
1.58252e-05
0.000301462
-3.49607e-05
1.22942e-05
0.000296669
-5.97256e-05
6.6499e-06
0.000303767
-6.48312e-05
1.12608e-05
0.000310229
-3.66969e-05
2.10053e-05
0.000302785
2.34534e-06
2.62832e-05
0.000284995
2.75623e-05
2.89241e-05
0.000267961
3.24301e-05
3.08623e-05
0.000258475
1.303e-05
2.4598e-05
0.000262459
-2.95477e-05
7.42907e-06
0.000281172
-6.86903e-05
-1.01977e-05
0.000300022
-7.51152e-05
-1.8123e-05
0.00030079
-5.91233e-05
-7.3137e-06
0.000283732
-5.0503e-05
1.97898e-05
0.000262812
-4.98794e-05
4.27756e-05
0.000251495
-4.7397e-05
4.4543e-05
0.000253436
-3.97461e-05
2.63698e-05
0.00026033
-1.73632e-05
5.06749e-06
0.000261611
1.75498e-05
-1.00125e-05
0.000256429
3.94566e-05
-1.86669e-05
0.000250337
3.16548e-05
-1.94508e-05
0.0002467
9.07129e-06
-1.06848e-05
0.000247068
-3.14946e-06
2.53786e-06
0.000252827
1.71153e-06
1.36813e-05
0.000266193
8.0367e-06
1.9426e-05
0.000287119
4.00041e-06
1.59046e-05
0.000305312
-9.19482e-07
-2.83876e-06
0.000308537
-9.37486e-07
-3.28673e-05
-5.83605e-06
-6.1347e-05
0.000337045
-1.15694e-05
-7.62489e-05
0.000335154
-4.7412e-05
-7.92274e-05
0.000341747
-7.44773e-05
-6.37329e-05
0.000345045
-8.43782e-05
-4.245e-05
0.000340494
-7.95783e-05
-2.237e-05
0.00033424
-5.79436e-05
-4.17294e-06
0.000329367
-2.51109e-05
9.03387e-06
0.000323516
1.46208e-06
8.60151e-06
0.000318336
4.6474e-06
-1.61031e-07
0.000321306
-1.24298e-05
-3.37284e-06
0.000333503
-2.77927e-05
5.65137e-06
0.000343455
-2.9606e-05
1.64801e-05
0.000340601
-3.2022e-05
1.50678e-05
0.000329307
-4.72348e-05
4.69906e-06
0.000321558
-5.86412e-05
2.21476e-06
0.000318474
-4.43471e-05
1.26059e-05
0.000312858
-1.2189e-05
2.59866e-05
0.000304516
1.57313e-05
3.22415e-05
0.000299102
3.08664e-05
2.68035e-05
0.000296093
2.6805e-05
9.64883e-06
0.000295086
-7.30961e-06
-1.12542e-05
0.000306901
-5.91669e-05
-2.57855e-05
0.000332439
-8.69485e-05
-2.75299e-05
0.000347882
-7.20408e-05
-1.43801e-05
0.000336114
-4.72177e-05
1.27606e-05
0.000308546
-3.48073e-05
3.96025e-05
0.000287079
-2.71022e-05
4.94672e-05
0.0002824
-1.72262e-05
3.62212e-05
0.000289369
3.19447e-07
1.30009e-05
0.000296275
2.46162e-05
-6.07145e-06
0.000298016
3.87626e-05
-1.94844e-05
0.000297454
2.94738e-05
-2.72449e-05
0.000297114
9.39274e-06
-2.55777e-05
0.000296556
5.96348e-07
-1.54253e-05
0.000296639
6.69849e-06
-2.70653e-06
0.000301929
8.42345e-06
7.193e-06
0.000317842
-6.42542e-06
1.17023e-05
0.000339813
-1.56659e-05
3.00649e-06
0.000352412
-3.03272e-06
-2.28306e-05
6.69703e-06
-5.37147e-05
0.000390982
-1.01242e-06
-7.09543e-05
0.000387983
-3.16561e-05
-8.06056e-05
0.000392557
-5.59522e-05
-7.23455e-05
0.000394877
-6.64999e-05
-5.55406e-05
0.000386089
-7.04263e-05
-3.73855e-05
0.00037233
-6.14887e-05
-1.73122e-05
0.000362739
-3.34441e-05
8.24991e-07
0.000357976
5.50238e-07
7.55666e-06
0.000356156
1.48263e-05
2.57015e-06
0.000359363
-6.49821e-07
-1.28714e-06
0.000369496
-2.51987e-05
5.25519e-06
0.000380253
-3.37958e-05
1.74419e-05
0.000380068
-3.00799e-05
2.05937e-05
0.000364947
-3.24019e-05
9.46498e-06
0.000343219
-3.90532e-05
-1.45774e-06
0.000325847
-3.30217e-05
1.12115e-06
0.000317853
-1.34818e-05
1.19097e-05
0.000320116
5.24932e-06
1.63443e-05
0.000329907
1.94221e-05
6.69652e-06
0.000338539
2.56278e-05
-1.20242e-05
0.000340823
8.69307e-06
-3.09911e-05
0.000345679
-3.89099e-05
-3.86039e-05
0.0003652
-8.60789e-05
-3.07894e-05
0.000386564
-8.99946e-05
-1.09312e-05
0.000383382
-5.85513e-05
1.5816e-05
0.000355374
-2.85238e-05
4.0616e-05
0.000327057
-1.11013e-05
5.27848e-05
0.000316699
1.27905e-06
4.42488e-05
0.00032229
1.55165e-05
2.15907e-05
0.000330936
3.1341e-05
-3.52556e-07
0.000334282
3.81487e-05
-1.54482e-05
0.000334846
2.62097e-05
-2.5462e-05
0.000338307
5.06899e-06
-3.04595e-05
0.000344029
-3.5793e-06
-2.82984e-05
0.000348135
3.72498e-06
-1.80773e-05
0.000350016
7.58934e-06
-3.97926e-06
0.000355375
-6.36075e-06
5.1603e-06
0.000369674
-1.93257e-05
4.85956e-07
0.000387451
-7.87032e-06
-1.96149e-05
8.60098e-06
-4.69723e-05
0.000441934
2.75299e-06
-6.29905e-05
0.000443753
-1.60794e-05
-7.62435e-05
0.000448337
-3.38912e-05
-7.70041e-05
0.000453123
-4.54579e-05
-6.70461e-05
0.000444793
-5.55139e-05
-5.17205e-05
0.000424354
-5.5527e-05
-3.26916e-05
0.000406044
-3.38198e-05
-1.22864e-05
0.000397544
3.67787e-07
2.95851e-06
0.000396849
2.12508e-05
7.26269e-06
0.00040076
1.1821e-05
5.98103e-06
0.000408193
-1.43927e-05
8.00959e-06
0.000416354
-2.99381e-05
1.66059e-05
0.000417634
-2.89544e-05
2.40492e-05
0.000405656
-2.49232e-05
1.94039e-05
0.000383787
-2.26471e-05
3.90545e-06
0.000363584
-1.54131e-05
-8.6896e-06
0.000354852
-4.18431e-06
-1.07724e-05
0.000359612
1.96169e-06
-6.82034e-06
0.000372694
5.53292e-06
-6.95322e-06
0.000385707
1.25699e-05
-1.74507e-05
0.000393467
1.18677e-05
-3.32052e-05
0.000399092
-1.76567e-05
-4.12289e-05
0.0004109
-6.67395e-05
-3.31985e-05
0.000426817
-9.2334e-05
-1.06899e-05
0.000427038
-7.0039e-05
1.60021e-05
0.000402771
-2.77125e-05
3.8352e-05
0.000372655
3.8233e-06
5.2473e-05
0.000356573
2.00949e-05
5.13701e-05
0.000354562
2.90135e-05
3.3804e-05
0.000355744
3.63396e-05
1.20479e-05
0.000354552
3.7082e-05
-1.54338e-06
0.000354826
2.18744e-05
-7.97274e-06
0.000362118
-2.80355e-06
-1.5842e-05
0.000375252
-1.60661e-05
-2.3731e-05
0.000386315
-8.86738e-06
-2.03718e-05
0.000389443
3.47055e-06
-3.73962e-06
0.000388435
1.91988e-06
9.22825e-06
0.000393255
-6.87344e-06
3.11091e-06
0.000410347
-3.48698e-06
-1.85584e-05
6.66679e-06
-4.24912e-05
0.000484086
6.68258e-06
-5.46428e-05
0.000497529
-6.51692e-06
-6.62678e-05
0.000508433
-1.66435e-05
-7.21399e-05
0.000517272
-2.5323e-05
-7.13829e-05
0.000510992
-3.69551e-05
-6.3304e-05
0.000486207
-4.10456e-05
-4.86283e-05
0.000458658
-2.43444e-05
-2.87728e-05
0.000443077
5.76158e-06
-8.95026e-06
0.000440401
2.46196e-05
5.02365e-06
0.000444351
1.78772e-05
1.1053e-05
0.000449733
-4.74769e-06
1.44371e-05
0.000453362
-2.03773e-05
1.95234e-05
0.000451354
-2.21018e-05
2.47382e-05
0.000441012
-1.8749e-05
2.26426e-05
0.000426219
-1.42774e-05
9.32979e-06
0.000415334
-6.03006e-06
-9.07504e-06
0.000413095
9.9006e-07
-1.94936e-05
0.000417875
-2.0699e-06
-1.50673e-05
0.000425851
-8.54648e-06
-5.35749e-06
0.000433504
-3.68118e-06
-6.09085e-06
0.000439061
7.56923e-06
-1.73541e-05
0.000444356
-1.24643e-06
-2.61861e-05
0.000453581
-4.15176e-05
-2.4701e-05
0.000466897
-8.00201e-05
-9.87247e-06
0.000471835
-7.36093e-05
1.33919e-05
0.000456603
-2.88219e-05
3.58037e-05
0.000429995
1.67745e-05
4.89788e-05
0.000407824
4.1175e-05
5.01183e-05
0.0003936
4.50117e-05
4.06241e-05
0.00038425
3.97164e-05
2.74345e-05
0.000380397
3.26278e-05
1.59569e-05
0.000384767
1.92985e-05
7.27781e-06
0.000396763
-2.96004e-06
-9.25962e-07
0.000411947
-2.17955e-05
-8.71548e-06
0.000423878
-2.047e-05
-1.10793e-05
0.000427911
-2.15303e-06
-1.61277e-06
0.000425992
1.32792e-05
1.22863e-05
0.000426358
1.55764e-05
1.17877e-05
0.000438652
1.51717e-05
-9.20624e-06
1.47675e-05
-3.56259e-05
0.000525108
8.88181e-06
-3.85463e-05
0.000545763
-6.23935e-06
-5.33808e-05
0.000564418
-1.14481e-05
-6.3145e-05
0.000578364
-1.19136e-05
-6.83926e-05
0.000575646
-1.68753e-05
-6.74057e-05
0.000552046
-2.05198e-05
-5.94303e-05
0.000521677
-9.62115e-06
-4.3987e-05
0.000500135
1.35271e-05
-2.27788e-05
0.000490661
2.82737e-05
-2.77064e-06
0.000488195
2.13179e-05
1.01545e-05
0.000488507
2.62308e-06
1.69561e-05
0.000488475
-1.06663e-05
2.34895e-05
0.000485795
-1.3952e-05
2.85423e-05
0.000480075
-1.21496e-05
2.32149e-05
0.000475663
-8.26809e-06
5.45201e-06
0.000477424
-1.79474e-06
-1.39782e-05
0.000483444
4.99041e-07
-2.0518e-05
0.000485947
-8.80547e-06
-9.43339e-06
0.000481496
-1.94693e-05
7.54756e-06
0.000475272
-1.38915e-05
1.3365e-05
0.00047524
5.96575e-06
5.98955e-06
0.000483941
1.22442e-05
-2.25617e-06
0.00049765
-1.57691e-05
-3.67768e-06
0.00051038
-5.84081e-05
4.43426e-06
0.000514612
-6.78648e-05
1.92104e-05
0.000501906
-2.74826e-05
3.40633e-05
0.000477409
2.70962e-05
4.48247e-05
0.000452405
5.90861e-05
4.64862e-05
0.00043297
6.09551e-05
3.85163e-05
0.000420477
4.8351e-05
2.96908e-05
0.000417335
3.64085e-05
2.70011e-05
0.000424302
2.59153e-05
2.57272e-05
0.00043813
1.08653e-05
1.77375e-05
0.000453448
-5.68592e-06
5.63167e-06
0.000464475
-9.93809e-06
4.04142e-07
0.0004689
4.04413e-06
7.41953e-06
0.000469261
2.2514e-05
2.06716e-05
0.000471613
3.19732e-05
2.34123e-05
0.00048201
3.22774e-05
8.59897e-06
2.49624e-05
-1.71644e-05
0.000569301
6.21715e-06
-2.10235e-05
0.000593433
-1.70544e-05
-4.09859e-05
0.000616787
-2.60102e-05
-4.86576e-05
0.00063228
-1.70023e-05
-5.4277e-05
0.000632524
-4.86953e-06
-6.24258e-05
0.000618023
7.39253e-07
-6.74148e-05
0.000598996
6.07573e-06
-6.16655e-05
0.000583103
1.9156e-05
-4.25392e-05
0.000569248
3.00221e-05
-1.71822e-05
0.000554467
2.65492e-05
2.61306e-06
0.000539816
1.19329e-05
1.38938e-05
0.00052982
-2.30816e-06
2.24224e-05
0.000527433
-1.29565e-05
3.12099e-05
0.000533606
-2.17335e-05
3.38522e-05
0.000547729
-2.75191e-05
2.38865e-05
0.000565538
-2.65217e-05
8.04608e-06
0.000577031
-2.11939e-05
-7.21348e-07
0.000571546
-1.93318e-05
7.535e-06
0.000552161
-1.83372e-05
3.00951e-05
0.000533688
-7.22508e-06
4.83121e-05
0.000528768
1.56535e-05
4.32871e-05
0.000537392
3.05487e-05
1.6998e-05
0.000551094
1.59784e-05
-8.31051e-06
0.000562259
-2.30211e-05
-1.02006e-05
0.00056451
-4.85861e-05
1.14031e-05
0.000551045
-2.79962e-05
3.45913e-05
0.000525031
2.44431e-05
4.47279e-05
0.000498898
6.70157e-05
4.38334e-05
0.000481372
7.99671e-05
3.6265e-05
0.000473894
7.11497e-05
2.78847e-05
0.000474491
5.5154e-05
2.29949e-05
0.000480598
3.94852e-05
2.03242e-05
0.00049044
2.43689e-05
1.63205e-05
0.000503007
1.15808e-05
9.93026e-06
0.000516018
7.80113e-06
4.74509e-06
0.000525693
1.58888e-05
8.98878e-06
0.0005296
2.79597e-05
2.41973e-05
0.000530515
3.49309e-05
3.80893e-05
0.000535263
3.50874e-05
3.43558e-05
2.64318e-05
1.03157e-05
0.000622381
-8.70413e-06
1.41009e-06
0.000645951
-2.76456e-05
-3.07489e-05
0.000668441
-3.44027e-05
-4.91409e-05
0.000685173
-2.11818e-05
-5.37675e-05
0.000688123
1.58991e-06
-5.41919e-05
0.000675388
1.85927e-05
-5.71295e-05
0.000656862
2.55823e-05
-5.96079e-05
0.000644764
2.86239e-05
-5.32565e-05
0.000640684
2.94884e-05
-3.75982e-05
0.000636694
2.47196e-05
-2.00224e-05
0.000625856
1.45537e-05
-6.1404e-06
0.000609378
2.97465e-06
6.08455e-06
0.000595179
-9.91204e-06
1.97449e-05
0.000591753
-2.69314e-05
3.29203e-05
0.000604141
-4.63426e-05
3.83719e-05
0.000628495
-5.91397e-05
3.27269e-05
0.00064918
-5.8002e-05
2.25934e-05
0.000649125
-4.38922e-05
2.07585e-05
0.000628071
-2.22091e-05
3.42033e-05
0.000602701
3.53511e-06
5.17079e-05
0.000588247
2.71745e-05
4.99872e-05
0.000586389
3.77451e-05
2.04983e-05
0.000591776
2.4212e-05
-1.6819e-05
0.000602325
-8.41035e-06
-3.48889e-05
0.000610957
-3.67492e-05
-1.69435e-05
0.00060805
-3.20373e-05
1.62455e-05
0.000593027
8.38303e-06
3.94884e-05
0.000577721
5.536e-05
4.3786e-05
0.000571044
8.25875e-05
3.26606e-05
0.000571253
8.48958e-05
1.34686e-05
0.000572294
7.13044e-05
-4.05947e-06
0.000571337
5.04602e-05
-9.93178e-06
0.000570624
2.93187e-05
-3.62225e-06
0.000572438
1.62562e-05
7.02767e-06
0.000575866
1.55779e-05
1.68614e-05
0.000578469
2.30991e-05