/*--------------------------------*- C++ -*----------------------------------*\
| =========                 |                                                 |
| \\      /  F ield         | OpenFOAM: The Open Source CFD Toolbox           |
|  \\    /   O peration     | Version:  2306                                  |
|   \\  /    A nd           | Website:  www.openfoam.com                      |
|    \\/     M anipulation  |                                                 |
\*---------------------------------------------------------------------------*/
FoamFile
{
    version     2.0;
    format      ascii;
    arch        "LSB;label=32;scalar=64";
    class       volScalarField;
    location    "2.5";
    object      pPrime2Mean;
}
// * * * * * * * * * * * * * * * * * * * * * * * * * * * * * * * * * * * * * //

dimensions      [0 4 -4 0 0 0 0];

internalField   nonuniform List<scalar> 
60000
(
9.43728e-11
6.08309e-10
5.17343e-10
4.31992e-10
4.54331e-10
8.60784e-10
2.11654e-09
3.12924e-09
1.71085e-09
2.01891e-10
5.14871e-10
7.6038e-10
1.53825e-09
3.74943e-09
4.90123e-09
4.36435e-09
4.09284e-09
4.14489e-09
3.17841e-09
1.30665e-09
1.77607e-10
5.55175e-10
7.19981e-10
1.0068e-09
2.06925e-09
2.65515e-09
1.07516e-09
2.7808e-10
8.1689e-10
1.00623e-09
1.77345e-09
1.83128e-09
1.37411e-09
1.58738e-09
2.37431e-09
3.5566e-09
6.27957e-09
9.4262e-09
6.92517e-09
1.39484e-09
8.62852e-11
6.03771e-10
5.20455e-10
4.35366e-10
4.60721e-10
8.76647e-10
2.15713e-09
3.1819e-09
1.74226e-09
2.00515e-10
5.17142e-10
7.64345e-10
1.52191e-09
3.7283e-09
4.89205e-09
4.3526e-09
4.09037e-09
4.15522e-09
3.1974e-09
1.31092e-09
1.74746e-10
5.61735e-10
7.2698e-10
1.02137e-09
2.09871e-09
2.70139e-09
1.10612e-09
2.74101e-10
8.28401e-10
9.98547e-10
1.74543e-09
1.79734e-09
1.34814e-09
1.55884e-09
2.35012e-09
3.49966e-09
6.25285e-09
9.55668e-09
7.1592e-09
1.5002e-09
9.10365e-11
6.3233e-10
5.37754e-10
4.42062e-10
4.64592e-10
8.73971e-10
2.16932e-09
3.27306e-09
1.85298e-09
2.14801e-10
5.2664e-10
7.82586e-10
1.49607e-09
3.71314e-09
4.92309e-09
4.3823e-09
4.11269e-09
4.18671e-09
3.22371e-09
1.30427e-09
1.68169e-10
5.77873e-10
7.39847e-10
1.03455e-09
2.12285e-09
2.77261e-09
1.17284e-09
2.73376e-10
8.49198e-10
9.98308e-10
1.71572e-09
1.74335e-09
1.30108e-09
1.54068e-09
2.34244e-09
3.47466e-09
6.28273e-09
9.78083e-09
7.46861e-09
1.59529e-09
1.04936e-10
6.97418e-10
5.70119e-10
4.4849e-10
4.60389e-10
8.53223e-10
2.15329e-09
3.37109e-09
2.02247e-09
2.42556e-10
5.2728e-10
8.09814e-10
1.45349e-09
3.70146e-09
5.00925e-09
4.47061e-09
4.17406e-09
4.25765e-09
3.25991e-09
1.27478e-09
1.56134e-10
6.07543e-10
7.60517e-10
1.05715e-09
2.1547e-09
2.85927e-09
1.25434e-09
2.72121e-10
8.83506e-10
1.01366e-09
1.70511e-09
1.67588e-09
1.23792e-09
1.54522e-09
2.37353e-09
3.49472e-09
6.40336e-09
1.01366e-08
7.85054e-09
1.6562e-09
1.2926e-10
7.89867e-10
6.15742e-10
4.54437e-10
4.53779e-10
8.24035e-10
2.09396e-09
3.38636e-09
2.18148e-09
2.92185e-10
5.00864e-10
8.28037e-10
1.38025e-09
3.65415e-09
5.12696e-09
4.61707e-09
4.29373e-09
4.36154e-09
3.32665e-09
1.23968e-09
1.42563e-10
6.51972e-10
7.86178e-10
1.07736e-09
2.18467e-09
2.93624e-09
1.32012e-09
2.78343e-10
9.48664e-10
1.05325e-09
1.74297e-09
1.61647e-09
1.1399e-09
1.53208e-09
2.43542e-09
3.52469e-09
6.60849e-09
1.07397e-08
8.34443e-09
1.68801e-09
1.72904e-10
9.02605e-10
6.70052e-10
4.57903e-10
4.43588e-10
8.06815e-10
2.02919e-09
3.25506e-09
2.20983e-09
3.41274e-10
4.44873e-10
8.12707e-10
1.28126e-09
3.5309e-09
5.22647e-09
4.80411e-09
4.4782e-09
4.55709e-09
3.45208e-09
1.21e-09
1.27599e-10
7.21267e-10
8.19199e-10
1.08079e-09
2.06386e-09
2.85371e-09
1.33397e-09
3.03377e-10
1.06583e-09
1.10489e-09
1.83407e-09
1.61731e-09
1.03421e-09
1.47723e-09
2.45575e-09
3.46283e-09
6.80311e-09
1.18402e-08
9.26578e-09
1.70349e-09
2.50254e-10
1.14527e-09
7.75305e-10
4.80061e-10
4.28237e-10
7.94109e-10
2.03353e-09
3.12735e-09
2.03077e-09
3.47885e-10
4.09195e-10
7.73463e-10
1.20077e-09
3.36207e-09
5.26898e-09
5.00656e-09
4.72947e-09
4.87793e-09
3.72203e-09
1.24949e-09
1.11396e-10
8.61888e-10
9.0586e-10
1.24575e-09
2.06573e-09
2.5917e-09
1.17216e-09
3.66731e-10
1.27758e-09
1.1398e-09
1.865e-09
1.66654e-09
1.01632e-09
1.44814e-09
2.36154e-09
3.14128e-09
6.58411e-09
1.30068e-08
1.13684e-08
2.31393e-09
2.53728e-10
1.52085e-09
1.02326e-09
5.54072e-10
4.37104e-10
7.60898e-10
2.0328e-09
3.09959e-09
1.89656e-09
2.99534e-10
4.60599e-10
7.58746e-10
1.20277e-09
3.2566e-09
5.27116e-09
5.22209e-09
5.05728e-09
5.32641e-09
4.14688e-09
1.37786e-09
9.92761e-11
1.11904e-09
1.08827e-09
1.58652e-09
2.57012e-09
2.76621e-09
1.02217e-09
4.84183e-10
1.57137e-09
1.19258e-09
1.75544e-09
1.49184e-09
1.07847e-09
1.66963e-09
2.39829e-09
2.4839e-09
5.51636e-09
1.36699e-08
1.43487e-08
3.74436e-09
2.67754e-10
2.0004e-09
1.47464e-09
6.80836e-10
4.90657e-10
7.22329e-10
1.93281e-09
3.02631e-09
1.89766e-09
3.30617e-10
4.80131e-10
8.78102e-10
1.28737e-09
3.29426e-09
5.26991e-09
5.41586e-09
5.49201e-09
5.87887e-09
4.5413e-09
1.46435e-09
1.0949e-10
1.45822e-09
1.3139e-09
2.12195e-09
3.93852e-09
3.83744e-09
1.10909e-09
7.81075e-10
2.15691e-09
1.31875e-09
1.81218e-09
1.3875e-09
9.3626e-10
1.86627e-09
2.70158e-09
1.93e-09
3.81424e-09
1.30687e-08
1.78544e-08
6.33474e-09
5.03375e-10
2.32455e-09
2.26597e-09
9.05971e-10
5.66452e-10
6.93122e-10
1.78738e-09
2.90924e-09
1.93545e-09
4.17007e-10
3.4387e-10
8.21588e-10
1.1882e-09
3.14956e-09
5.19658e-09
5.46927e-09
5.95132e-09
6.57731e-09
4.82019e-09
1.31723e-09
2.05393e-10
1.99848e-09
1.65364e-09
2.95843e-09
6.46669e-09
6.14753e-09
1.64603e-09
1.07891e-09
2.84806e-09
1.46567e-09
1.78228e-09
1.24284e-09
8.54429e-10
1.94385e-09
3.11119e-09
1.71988e-09
2.23389e-09
1.10945e-08
2.09288e-08
1.04528e-08
1.50728e-09
1.97905e-09
3.02673e-09
1.15679e-09
6.68765e-10
6.96731e-10
1.63505e-09
2.78997e-09
2.08035e-09
5.44785e-10
2.73181e-10
6.44113e-10
1.03498e-09
2.64938e-09
4.48515e-09
4.9823e-09
6.10008e-09
7.31069e-09
5.12461e-09
1.06825e-09
4.73886e-10
2.93035e-09
2.2787e-09
3.88217e-09
1.02027e-08
9.89537e-09
2.81816e-09
9.68089e-10
3.04337e-09
1.48437e-09
1.44667e-09
8.23832e-10
7.36e-10
2.01256e-09
3.5874e-09
1.97896e-09
1.22279e-09
8.34957e-09
2.20398e-08
1.5721e-08
3.75153e-09
1.0286e-09
2.99335e-09
1.63136e-09
7.56392e-10
7.40874e-10
1.53575e-09
2.71691e-09
2.16602e-09
7.06721e-10
2.14095e-10
4.95575e-10
1.02433e-09
2.48969e-09
3.53841e-09
3.82506e-09
5.1314e-09
7.03996e-09
5.17207e-09
9.44345e-10
7.2547e-10
3.8177e-09
3.23123e-09
3.91804e-09
1.30716e-08
1.44604e-08
4.88778e-09
4.42209e-10
2.26962e-09
1.29109e-09
9.5452e-10
4.17264e-10
5.89892e-10
1.98215e-09
3.92932e-09
2.59977e-09
8.68993e-10
5.70966e-09
2.02707e-08
2.01356e-08
6.74773e-09
2.99691e-10
2.00406e-09
1.73141e-09
9.03322e-10
7.57344e-10
1.41393e-09
2.6318e-09
2.33575e-09
7.90527e-10
2.3191e-10
4.59717e-10
1.27152e-09
3.0679e-09
3.281e-09
2.36932e-09
3.50536e-09
5.47959e-09
4.30588e-09
8.88144e-10
5.85324e-10
3.49146e-09
4.11748e-09
3.0749e-09
1.21735e-08
1.72642e-08
7.61224e-09
4.93813e-10
8.94613e-10
8.73656e-10
5.36011e-10
2.48279e-10
5.44585e-10
1.76533e-09
3.81259e-09
3.25124e-09
1.05499e-09
3.64279e-09
1.59485e-08
2.13279e-08
8.92091e-09
4.85609e-10
7.86104e-10
1.29082e-09
9.93926e-10
8.5134e-10
1.30425e-09
2.39326e-09
2.39191e-09
8.57903e-10
2.21192e-10
4.44886e-10
1.48348e-09
3.93811e-09
3.81345e-09
1.83041e-09
2.48996e-09
4.29603e-09
3.22053e-09
8.12662e-10
3.41236e-10
2.19116e-09
4.03216e-09
2.51641e-09
8.27583e-09
1.62893e-08
1.00126e-08
1.87918e-09
2.16158e-10
4.9702e-10
3.43981e-10
3.45252e-10
5.73019e-10
1.45046e-09
3.2072e-09
3.5585e-09
1.67055e-09
2.37361e-09
1.0701e-08
1.84556e-08
9.16098e-09
1.53086e-09
1.14057e-10
6.81138e-10
9.80592e-10
1.08837e-09
1.48153e-09
2.14734e-09
2.27622e-09
9.28221e-10
2.15248e-10
4.49388e-10
1.23135e-09
3.56453e-09
4.21253e-09
2.26847e-09
2.49318e-09
4.31542e-09
3.05664e-09
5.45209e-10
2.76698e-10
9.97736e-10
2.96444e-09
2.54975e-09
4.90327e-09
1.33928e-08
1.17323e-08
4.22929e-09
5.72398e-10
3.11665e-10
3.58501e-10
4.22209e-10
5.59468e-10
1.17529e-09
2.63657e-09
3.45339e-09
2.45986e-09
1.8611e-09
6.11112e-09
1.31311e-08
7.59479e-09
2.83671e-09
4.12892e-10
2.19189e-10
8.96823e-10
1.46573e-09
2.0665e-09
2.06669e-09
1.751e-09
8.63429e-10
2.17175e-10
3.64291e-10
8.71251e-10
2.46495e-09
3.68462e-09
2.87545e-09
3.06371e-09
4.9966e-09
3.58108e-09
3.60062e-10
4.7603e-10
4.40365e-10
1.30934e-09
2.38795e-09
2.83445e-09
9.18289e-09
1.16773e-08
6.74197e-09
1.61307e-09
1.80337e-10
3.40676e-10
3.9263e-10
4.83129e-10
7.8977e-10
2.16251e-09
3.65644e-09
3.27095e-09
1.86661e-09
3.57061e-09
8.13882e-09
5.71847e-09
3.47406e-09
1.17818e-09
1.54921e-10
7.60201e-10
1.86076e-09
2.87652e-09
2.57962e-09
1.44883e-09
6.64816e-10
2.28674e-10
3.0452e-10
7.12531e-10
1.90225e-09
3.06642e-09
2.90252e-09
3.24542e-09
5.12092e-09
3.80779e-09
4.34218e-10
6.50538e-10
6.03853e-10
2.66787e-10
1.16679e-09
1.70082e-09
5.30196e-09
9.08993e-09
7.53684e-09
2.96363e-09
3.65838e-10
2.41912e-10
3.85111e-10
4.50268e-10
6.1302e-10
1.29221e-09
3.31588e-09
4.0265e-09
2.25645e-09
2.43518e-09
4.97196e-09
3.40038e-09
2.95724e-09
1.82242e-09
5.27152e-10
7.60269e-10
2.27219e-09
3.67121e-09
3.11116e-09
1.48508e-09
5.58112e-10
2.32135e-10
2.87392e-10
5.81679e-10
1.72687e-09
3.32768e-09
3.2442e-09
3.06446e-09
4.55259e-09
3.35265e-09
3.91368e-10
5.71102e-10
7.49072e-10
2.46606e-10
4.13839e-10
1.12141e-09
3.28855e-09
7.1338e-09
7.0222e-09
3.11119e-09
4.97035e-10
3.12054e-10
5.18705e-10
4.78573e-10
6.39613e-10
1.63303e-09
3.97052e-09
4.8768e-09
2.77491e-09
1.69433e-09
2.69218e-09
2.2925e-09
2.01736e-09
1.24681e-09
8.0301e-10
1.42803e-09
3.12685e-09
4.43791e-09
3.77754e-09
2.01788e-09
7.26955e-10
2.51475e-10
2.45426e-10
5.5584e-10
1.18098e-09
2.69844e-09
3.13091e-09
2.88514e-09
3.82259e-09
3.54859e-09
9.13272e-10
2.95688e-10
6.57427e-10
2.91405e-10
3.21711e-10
1.15583e-09
3.49073e-09
6.80309e-09
6.12005e-09
2.50816e-09
5.94935e-10
3.36999e-10
3.79077e-10
5.2873e-10
8.21765e-10
2.04078e-09
4.44487e-09
5.59887e-09
3.63582e-09
1.60463e-09
1.61854e-09
1.30649e-09
1.4598e-09
1.08646e-09
7.06912e-10
1.23019e-09
2.75975e-09
4.03139e-09
3.88757e-09
2.86829e-09
1.68526e-09
6.85983e-10
1.14078e-10
3.11836e-10
7.20178e-10
1.5861e-09
2.13367e-09
1.57261e-09
2.31314e-09
4.03784e-09
2.77086e-09
6.04254e-10
3.79122e-10
1.87058e-10
3.65373e-10
1.21172e-09
4.02589e-09
7.81e-09
6.44483e-09
2.51639e-09
6.7346e-10
3.93008e-10
3.61544e-10
5.10041e-10
7.8606e-10
2.12975e-09
4.08382e-09
4.98954e-09
4.10047e-09
2.34565e-09
1.32897e-09
8.58268e-10
5.61008e-10
6.35967e-10
9.79409e-10
1.84566e-09
3.0268e-09
3.33144e-09
2.94377e-09
2.77415e-09
2.40845e-09
1.49044e-09
5.5434e-10
1.50597e-10
3.27546e-10
7.45098e-10
1.24112e-09
1.24796e-09
1.47001e-09
3.04554e-09
3.90157e-09
1.77759e-09
2.12193e-10
2.52206e-10
6.60213e-10
1.37059e-09
5.12485e-09
1.06183e-08
9.00152e-09
2.90372e-09
3.14645e-10
4.42641e-10
6.76062e-10
7.26062e-10
9.30193e-10
1.8567e-09
3.13171e-09
4.11976e-09
4.60649e-09
3.90916e-09
2.18338e-09
2.66869e-09
1.03856e-09
6.24564e-10
9.11634e-10
1.70251e-09
2.63742e-09
2.93492e-09
2.70314e-09
2.46545e-09
2.09999e-09
1.56132e-09
1.10625e-09
7.36794e-10
4.25346e-10
3.66812e-10
5.50474e-10
8.31038e-10
1.31524e-09
2.49679e-09
3.2467e-09
1.92287e-09
4.55251e-10
1.28382e-10
5.37036e-10
1.31695e-09
4.95877e-09
1.22906e-08
1.21971e-08
4.78983e-09
3.81994e-10
7.24236e-10
1.49232e-09
1.25292e-09
1.10372e-09
2.31791e-09
3.12033e-09
2.26959e-09
2.53859e-09
4.0901e-09
4.45392e-09
3.80002e-09
2.92015e-09
1.78682e-09
1.17032e-09
1.22939e-09
1.48342e-09
1.86011e-09
2.37425e-09
2.49543e-09
1.90848e-09
1.27117e-09
1.0838e-09
1.11778e-09
1.0088e-09
6.83627e-10
4.99024e-10
7.15972e-10
1.23068e-09
2.00693e-09
2.48272e-09
1.8755e-09
8.30342e-10
2.20485e-10
1.97794e-10
7.52913e-10
3.13103e-09
8.12742e-09
9.45576e-09
5.09152e-09
1.10965e-09
3.96833e-10
1.00159e-09
1.14153e-09
1.1773e-09
1.86595e-09
2.11221e-09
1.61145e-09
1.68086e-09
2.85144e-09
3.84046e-09
5.50104e-09
3.23452e-09
1.26378e-09
6.17488e-10
5.7533e-10
7.79869e-10
1.26014e-09
2.05027e-09
2.53804e-09
2.23312e-09
1.73077e-09
1.43557e-09
1.07629e-09
7.03748e-10
6.31926e-10
7.10304e-10
7.57576e-10
1.11331e-09
1.83627e-09
2.5389e-09
2.43097e-09
1.61774e-09
6.75702e-10
1.99216e-10
4.83223e-10
1.80678e-09
5.08925e-09
7.2401e-09
4.88634e-09
1.54953e-09
3.80971e-10
5.47621e-10
7.47105e-10
9.71763e-10
1.4443e-09
1.5634e-09
1.18919e-09
1.45196e-09
3.21664e-09
5.51592e-09
7.03805e-09
4.83635e-09
1.79056e-09
4.77448e-10
4.29883e-10
6.84749e-10
1.14024e-09
1.84165e-09
2.32923e-09
1.98555e-09
1.24138e-09
1.00915e-09
1.29366e-09
1.38685e-09
8.84608e-10
4.21628e-10
4.77988e-10
9.20819e-10
2.04294e-09
3.64918e-09
4.21802e-09
3.04879e-09
1.65238e-09
6.33478e-10
2.15432e-10
7.64615e-10
2.62093e-09
4.64124e-09
4.14776e-09
1.87676e-09
5.7664e-10
5.76216e-10
8.11641e-10
9.07032e-10
9.37843e-10
9.39062e-10
9.33646e-10
1.59065e-09
3.5013e-09
6.14935e-09
2.18541e-09
2.49191e-15
5.70531e-10
8.63361e-10
6.95652e-10
8.40785e-10
2.05573e-09
2.89443e-09
1.41321e-09
1.50885e-10
3.65437e-10
7.52165e-10
2.04405e-09
3.47123e-09
3.19224e-09
2.4621e-09
2.78879e-09
3.76789e-09
3.7409e-09
1.75721e-09
1.37643e-10
8.36207e-10
1.44316e-09
1.07102e-09
1.64983e-09
2.30284e-09
2.19222e-09
1.38851e-09
7.25421e-10
6.72312e-10
7.24185e-10
8.20208e-10
1.1795e-09
1.95556e-09
2.09642e-09
2.30024e-09
5.5486e-09
1.33556e-08
1.77835e-08
1.05415e-08
2.32279e-09
1.39682e-12
5.32558e-10
8.42677e-10
6.9671e-10
8.38995e-10
2.0531e-09
2.90961e-09
1.42688e-09
1.44987e-10
3.69879e-10
7.49761e-10
2.03395e-09
3.46188e-09
3.17766e-09
2.44288e-09
2.77269e-09
3.75938e-09
3.75769e-09
1.78949e-09
1.42281e-10
7.96374e-10
1.4071e-09
1.05782e-09
1.6362e-09
2.26556e-09
2.13847e-09
1.3617e-09
7.2604e-10
6.75419e-10
7.09567e-10
7.82388e-10
1.13027e-09
1.9098e-09
2.07015e-09
2.295e-09
5.49258e-09
1.33144e-08
1.79471e-08
1.0796e-08
2.47026e-09
2.48486e-12
5.39481e-10
8.65443e-10
7.14509e-10
8.36243e-10
2.06803e-09
2.97965e-09
1.48029e-09
1.42877e-10
3.75846e-10
7.49493e-10
2.03239e-09
3.46973e-09
3.16421e-09
2.40723e-09
2.74234e-09
3.75679e-09
3.79594e-09
1.82897e-09
1.48029e-10
7.84518e-10
1.40673e-09
1.06745e-09
1.65743e-09
2.2582e-09
2.09548e-09
1.35371e-09
7.52582e-10
7.05417e-10
7.03894e-10
7.20945e-10
1.04543e-09
1.85561e-09
2.05104e-09
2.24349e-09
5.39464e-09
1.343e-08
1.84867e-08
1.1298e-08
2.58903e-09
2.66764e-12
6.01537e-10
9.27423e-10
7.49409e-10
8.34953e-10
2.08295e-09
3.09223e-09
1.57739e-09
1.45486e-10
3.79195e-10
7.50883e-10
2.04748e-09
3.5116e-09
3.15968e-09
2.35267e-09
2.70159e-09
3.7575e-09
3.85769e-09
1.85772e-09
1.42088e-10
8.08657e-10
1.43859e-09
1.08142e-09
1.70378e-09
2.29192e-09
2.073e-09
1.35333e-09
7.89568e-10
7.6241e-10
7.3026e-10
6.63267e-10
9.32077e-10
1.77762e-09
2.03668e-09
2.15643e-09
5.30319e-09
1.38586e-08
1.95984e-08
1.20964e-08
2.69337e-09
1.2794e-11
7.21728e-10
1.02408e-09
7.9711e-10
8.31973e-10
2.07e-09
3.14694e-09
1.67968e-09
1.6354e-10
3.70176e-10
7.46494e-10
2.06723e-09
3.58889e-09
3.17793e-09
2.28435e-09
2.65156e-09
3.78436e-09
3.92598e-09
1.87797e-09
1.28509e-10
8.73136e-10
1.50612e-09
1.10021e-09
1.74724e-09
2.34356e-09
2.07659e-09
1.35759e-09
8.16185e-10
8.30596e-10
8.06207e-10
6.56103e-10
8.28746e-10
1.64841e-09
1.95397e-09
2.00762e-09
5.17482e-09
1.45499e-08
2.13936e-08
1.32933e-08
2.86149e-09
4.90581e-11
8.87715e-10
1.12385e-09
8.43514e-10
8.26528e-10
2.00581e-09
3.06981e-09
1.67525e-09
1.8747e-10
3.56595e-10
7.42286e-10
2.07667e-09
3.6621e-09
3.2182e-09
2.21523e-09
2.58836e-09
3.82949e-09
4.05252e-09
1.92357e-09
1.17858e-10
9.57693e-10
1.59358e-09
1.13281e-09
1.76136e-09
2.2777e-09
2.00364e-09
1.3393e-09
8.12193e-10
8.71517e-10
9.0961e-10
7.3174e-10
8.05726e-10
1.53036e-09
1.74368e-09
1.72681e-09
4.97963e-09
1.54655e-08
2.38504e-08
1.51029e-08
3.36321e-09
1.29962e-10
1.12237e-09
1.21297e-09
8.48697e-10
8.1345e-10
1.93984e-09
2.92785e-09
1.54034e-09
1.78965e-10
3.8007e-10
7.97447e-10
2.14485e-09
3.70594e-09
3.23675e-09
2.14383e-09
2.52266e-09
3.90278e-09
4.29217e-09
2.09463e-09
1.15486e-10
1.09056e-09
1.77809e-09
1.16316e-09
1.80255e-09
2.13347e-09
1.71834e-09
1.17993e-09
7.41178e-10
8.37725e-10
9.76106e-10
8.68856e-10
9.12763e-10
1.57094e-09
1.50909e-09
1.24155e-09
4.47562e-09
1.64484e-08
2.70925e-08
1.76232e-08
4.51009e-09
2.00703e-10
1.41535e-09
1.40229e-09
8.65068e-10
7.83955e-10
1.85169e-09
2.85547e-09
1.55294e-09
1.86023e-10
3.93585e-10
8.8178e-10
2.3121e-09
3.81731e-09
3.24792e-09
2.06108e-09
2.45874e-09
4.01226e-09
4.66909e-09
2.47928e-09
1.40036e-10
1.24967e-09
2.2073e-09
1.30342e-09
1.90105e-09
2.06198e-09
1.40498e-09
8.91371e-10
5.97691e-10
7.40756e-10
8.94487e-10
9.39868e-10
1.113e-09
1.86555e-09
1.47289e-09
7.58535e-10
3.47547e-09
1.65638e-08
3.07202e-08
2.11296e-08
6.32448e-09
2.40474e-10
1.58915e-09
1.67793e-09
9.52672e-10
7.61961e-10
1.71383e-09
2.7613e-09
1.69276e-09
2.791e-10
3.22307e-10
8.35425e-10
2.27776e-09
3.88269e-09
3.29817e-09
1.9989e-09
2.41423e-09
4.14412e-09
5.06374e-09
2.97447e-09
2.29638e-10
1.2477e-09
2.68724e-09
1.49811e-09
2.05227e-09
2.19307e-09
1.23381e-09
6.12742e-10
4.18024e-10
6.6708e-10
9.23728e-10
9.08596e-10
1.09029e-09
2.18153e-09
1.78787e-09
5.01294e-10
2.4171e-09
1.51286e-08
3.39756e-08
2.58344e-08
9.02634e-09
3.74559e-10
1.51554e-09
2.00265e-09
1.10108e-09
7.57325e-10
1.57062e-09
2.65851e-09
1.79755e-09
4.22635e-10
2.94926e-10
7.92754e-10
2.06847e-09
3.58582e-09
3.2268e-09
1.9688e-09
2.42209e-09
4.29478e-09
5.24758e-09
3.20007e-09
3.54634e-10
9.35838e-10
2.60966e-09
1.50856e-09
2.16435e-09
2.54955e-09
1.27356e-09
4.29674e-10
3.8678e-10
6.71863e-10
9.88693e-10
1.02252e-09
1.05106e-09
2.15504e-09
2.14176e-09
4.33146e-10
1.70499e-09
1.23334e-08
3.56435e-08
3.16114e-08
1.33334e-08
8.35789e-10
1.24114e-09
2.41384e-09
1.38924e-09
8.08417e-10
1.48396e-09
2.60486e-09
1.89577e-09
5.70486e-10
3.32925e-10
8.49102e-10
2.04282e-09
3.23204e-09
2.82236e-09
1.76169e-09
2.39373e-09
4.4511e-09
5.14114e-09
2.80266e-09
2.959e-10
7.15625e-10
2.11799e-09
1.30885e-09
2.41094e-09
3.18454e-09
1.61e-09
3.71843e-10
5.18229e-10
8.42136e-10
9.91347e-10
1.10422e-09
1.00034e-09
2.10117e-09
2.6259e-09
5.00047e-10
1.25971e-09
9.13975e-09
3.44084e-08
3.74798e-08
1.86778e-08
2.10301e-09
6.72135e-10
2.28752e-09
1.83939e-09
9.53423e-10
1.428e-09
2.69724e-09
2.11513e-09
6.49954e-10
3.60526e-10
9.35747e-10
2.23291e-09
3.21589e-09
2.53489e-09
1.43569e-09
2.1042e-09
4.29276e-09
4.82652e-09
2.04527e-09
9.76415e-11
7.88842e-10
1.71504e-09
1.1567e-09
2.76643e-09
4.00005e-09
2.32385e-09
4.92829e-10
5.10098e-10
1.02958e-09
9.00158e-10
1.0282e-09
9.21823e-10
1.82327e-09
2.72504e-09
7.53007e-10
9.29116e-10
6.38832e-09
3.0012e-08
4.04928e-08
2.29384e-08
4.37395e-09
2.04803e-10
1.73374e-09
2.08347e-09
1.14945e-09
1.32291e-09
2.74188e-09
2.30682e-09
6.43949e-10
3.27381e-10
9.70997e-10
2.54557e-09
3.576e-09
2.4743e-09
1.14759e-09
1.67074e-09
3.84124e-09
4.33138e-09
1.44704e-09
6.47002e-11
9.64406e-10
1.57538e-09
1.10903e-09
2.64147e-09
4.47131e-09
3.12799e-09
1.00944e-09
2.69682e-10
9.09917e-10
7.68986e-10
7.2412e-10
7.95194e-10
1.59512e-09
2.71655e-09
1.06472e-09
6.94741e-10
4.16033e-09
2.34319e-08
3.86446e-08
2.37784e-08
6.80572e-09
3.04246e-10
8.801e-10
1.80762e-09
1.31184e-09
1.19541e-09
2.54731e-09
2.32706e-09
5.71957e-10
2.8078e-10
9.19166e-10
2.66695e-09
3.93209e-09
2.61797e-09
1.04252e-09
1.55567e-09
3.50636e-09
3.75659e-09
1.14719e-09
1.05833e-10
6.19228e-10
1.16212e-09
1.04538e-09
1.86315e-09
4.00909e-09
3.75296e-09
1.85674e-09
4.40116e-10
4.58332e-10
5.97816e-10
5.57285e-10
6.28427e-10
1.28488e-09
2.62667e-09
1.51521e-09
5.05033e-10
2.45492e-09
1.60877e-08
3.21239e-08
2.09716e-08
8.41505e-09
1.06968e-09
2.06297e-10
1.20962e-09
1.0884e-09
1.12394e-09
2.19075e-09
2.13319e-09
5.15879e-10
2.6224e-10
7.71915e-10
2.08897e-09
3.32375e-09
2.70557e-09
1.72866e-09
2.37081e-09
3.76793e-09
3.07244e-09
7.84691e-10
2.24672e-10
3.70429e-10
5.88369e-10
9.98327e-10
1.32844e-09
3.519e-09
4.36681e-09
2.76411e-09
1.01144e-09
3.887e-10
4.29742e-10
4.3924e-10
4.846e-10
9.83883e-10
2.21401e-09
1.88739e-09
5.2561e-10
1.33108e-09
9.35773e-09
2.28171e-08
1.49452e-08
8.24899e-09
2.19207e-09
6.5248e-11
4.35628e-10
7.55417e-10
9.93976e-10
1.78528e-09
1.61204e-09
4.36642e-10
2.38164e-10
6.57694e-10
1.64636e-09
2.8516e-09
2.7631e-09
2.46859e-09
3.63428e-09
4.88595e-09
2.77775e-09
2.69562e-10
3.99794e-10
5.8638e-10
3.02232e-10
8.3461e-10
1.0423e-09
3.03141e-09
5.3693e-09
4.22285e-09
1.57442e-09
5.34881e-10
4.32356e-10
4.92051e-10
5.40709e-10
7.58875e-10
1.87281e-09
2.62341e-09
1.25445e-09
9.93903e-10
4.89284e-09
1.33753e-08
9.63056e-09
5.90442e-09
2.23819e-09
6.5587e-10
5.15632e-10
7.54691e-10
1.07312e-09
1.45624e-09
1.11289e-09
2.95954e-10
2.64142e-10
6.24983e-10
1.372e-09
2.53921e-09
2.7842e-09
2.8007e-09
3.80128e-09
5.3193e-09
3.29283e-09
2.31844e-10
5.31808e-10
9.11384e-10
4.13528e-10
3.39518e-10
7.42361e-10
2.57283e-09
5.43824e-09
4.75573e-09
2.15775e-09
7.00547e-10
4.18866e-10
4.9003e-10
5.26382e-10
7.42479e-10
1.57262e-09
3.27829e-09
2.60028e-09
1.10745e-09
2.61292e-09
7.66753e-09
5.39665e-09
4.1075e-09
2.07225e-09
1.28943e-09
1.73151e-09
2.20127e-09
2.14328e-09
1.943e-09
1.09896e-09
2.50633e-10
3.43274e-10
6.23086e-10
1.02426e-09
2.23941e-09
3.09507e-09
3.15225e-09
3.32001e-09
4.34137e-09
3.54759e-09
5.70756e-10
4.05079e-10
8.91436e-10
5.82682e-10
2.90986e-10
6.30457e-10
2.24093e-09
5.1767e-09
4.95936e-09
2.41081e-09
8.67743e-10
4.82274e-10
5.48356e-10
6.04573e-10
7.63781e-10
1.69732e-09
3.89611e-09
3.8868e-09
1.54537e-09
1.39905e-09
3.58728e-09
3.17503e-09
2.83243e-09
1.24952e-09
1.36204e-09
3.17304e-09
4.89906e-09
4.23944e-09
2.73592e-09
1.62468e-09
5.06336e-10
2.10672e-10
5.42459e-10
6.91604e-10
1.42462e-09
3.32068e-09
3.95271e-09
3.039e-09
3.21695e-09
3.43137e-09
1.36214e-09
1.66514e-10
6.08842e-10
5.56687e-10
4.46825e-10
9.51799e-10
2.81848e-09
5.14876e-09
4.53875e-09
2.3185e-09
1.05458e-09
5.81592e-10
5.12094e-10
6.27979e-10
8.94189e-10
1.82702e-09
4.01366e-09
5.06387e-09
2.71755e-09
9.37045e-10
1.66872e-09
1.56069e-09
1.84404e-09
1.4431e-09
1.32076e-09
2.11287e-09
3.79232e-09
4.82085e-09
4.12781e-09
2.85971e-09
1.447e-09
3.74596e-10
1.47513e-10
3.84326e-10
6.22284e-10
1.45632e-09
2.6864e-09
2.65256e-09
2.54235e-09
3.63403e-09
3.08741e-09
7.92278e-10
1.49172e-10
6.08388e-10
8.31766e-10
1.21268e-09
3.51892e-09
5.71989e-09
4.16898e-09
1.9594e-09
1.04337e-09
6.62789e-10
5.36313e-10
4.85031e-10
7.28931e-10
1.65337e-09
3.24341e-09
4.48358e-09
3.60367e-09
1.4868e-09
9.13716e-10
8.93546e-10
1.01744e-09
8.91113e-10
1.16209e-09
2.56055e-09
4.41475e-09
4.57069e-09
3.64098e-09
3.23918e-09
2.55281e-09
1.15641e-09
3.25102e-10
2.26428e-10
3.82497e-10
5.83557e-10
1.05854e-09
1.55462e-09
2.15848e-09
3.25277e-09
3.37929e-09
1.47737e-09
1.56762e-10
3.2797e-10
6.81543e-10
1.22339e-09
3.78651e-09
6.34072e-09
4.92262e-09
1.96099e-09
6.41203e-10
5.05521e-10
5.98518e-10
7.3647e-10
1.10536e-09
1.59238e-09
2.13915e-09
3.38215e-09
4.27484e-09
2.93293e-09
1.19372e-09
1.70814e-09
9.79116e-10
8.54626e-10
1.26474e-09
2.54882e-09
4.02968e-09
3.96295e-09
2.88717e-09
2.42155e-09
2.43183e-09
2.11956e-09
1.37424e-09
7.39521e-10
3.3927e-10
2.40754e-10
4.07245e-10
7.09244e-10
1.28875e-09
2.1484e-09
2.41803e-09
1.47501e-09
4.69947e-10
2.22208e-10
4.31354e-10
9.68094e-10
3.40848e-09
6.82273e-09
6.54079e-09
3.09649e-09
6.47402e-10
4.38914e-10
7.5996e-10
8.32105e-10
1.33838e-09
2.18114e-09
2.12092e-09
1.69617e-09
2.5176e-09
3.68473e-09
3.17264e-09
2.67818e-09
1.84322e-09
1.44421e-09
1.5697e-09
2.17292e-09
2.62544e-09
2.50987e-09
2.28704e-09
2.04829e-09
1.62091e-09
1.37204e-09
1.52137e-09
1.80374e-09
1.69857e-09
1.05126e-09
4.68939e-10
5.20065e-10
1.09302e-09
1.85068e-09
1.96529e-09
1.1671e-09
4.60907e-10
2.79254e-10
3.44949e-10
7.94292e-10
2.54673e-09
5.57629e-09
6.50472e-09
3.94735e-09
1.05138e-09
3.33142e-10
6.73867e-10
8.46229e-10
1.27984e-09
1.95629e-09
1.77779e-09
1.23517e-09
1.62371e-09
2.87979e-09
3.39381e-09
4.26218e-09
2.79924e-09
1.69696e-09
1.2603e-09
1.18073e-09
1.1253e-09
1.21976e-09
1.76985e-09
2.36069e-09
2.31285e-09
1.71286e-09
1.16345e-09
1.01413e-09
1.01134e-09
9.82303e-10
9.04637e-10
8.98153e-10
1.1947e-09
1.70604e-09
2.03385e-09
1.7802e-09
1.11149e-09
5.51393e-10
3.69337e-10
6.12117e-10
1.64342e-09
3.9334e-09
5.53624e-09
3.93857e-09
1.29546e-09
3.88672e-10
5.16462e-10
6.56616e-10
9.81899e-10
1.52523e-09
1.4954e-09
1.01488e-09
1.35873e-09
2.96749e-09
4.52593e-09
6.47086e-09
4.61606e-09
2.12685e-09
7.05891e-10
4.33285e-10
5.58313e-10
9.17767e-10
1.58422e-09
2.26077e-09
2.18462e-09
1.44729e-09
1.03382e-09
1.18693e-09
1.27076e-09
9.13878e-10
5.67841e-10
6.26258e-10
1.0881e-09
2.06548e-09
3.37892e-09
3.66785e-09
2.50063e-09
1.23387e-09
5.64037e-10
3.82801e-10
8.57102e-10
2.36841e-09
3.8689e-09
3.22375e-09
1.46065e-09
7.18277e-10
7.72498e-10
8.57433e-10
9.45261e-10
9.58812e-10
8.8754e-10
8.84154e-10
1.59609e-09
3.57497e-09
5.93709e-09
5.68523e-09
2.00662e-09
4.06959e-10
1.93291e-10
2.86863e-10
5.39486e-10
1.28843e-09
2.43744e-09
1.89807e-09
5.35157e-10
3.71909e-10
8.75248e-10
1.86286e-09
2.31701e-09
1.80031e-09
1.54174e-09
2.23288e-09
3.02299e-09
2.63456e-09
1.28635e-09
2.04642e-10
5.27671e-10
1.25759e-09
9.64979e-10
1.08522e-09
1.9764e-09
2.40778e-09
1.46468e-09
4.80945e-10
3.78857e-10
7.12028e-10
1.37455e-09
2.16788e-09
3.80437e-09
4.18329e-09
3.51027e-09
4.48924e-09
7.04418e-09
8.78038e-09
8.52774e-09
5.7895e-09
2.04828e-09
4.14844e-10
1.93143e-10
2.85796e-10
5.37995e-10
1.27849e-09
2.42404e-09
1.89754e-09
5.36897e-10
3.72779e-10
8.76723e-10
1.87252e-09
2.33764e-09
1.80833e-09
1.53842e-09
2.2303e-09
3.03789e-09
2.66011e-09
1.3046e-09
2.08261e-10
5.09514e-10
1.23629e-09
9.54965e-10
1.08639e-09
1.98438e-09
2.44157e-09
1.50904e-09
4.8938e-10
3.64518e-10
6.8217e-10
1.33442e-09
2.09652e-09
3.766e-09
4.16394e-09
3.45355e-09
4.44937e-09
7.06524e-09
8.85914e-09
8.65332e-09
5.92028e-09
2.07745e-09
4.05917e-10
1.91407e-10
2.87038e-10
5.35962e-10
1.26368e-09
2.42492e-09
1.92521e-09
5.45064e-10
3.71425e-10
8.79915e-10
1.8915e-09
2.35994e-09
1.80744e-09
1.52463e-09
2.22156e-09
3.06118e-09
2.69482e-09
1.32497e-09
2.14455e-10
5.01735e-10
1.23983e-09
9.6523e-10
1.09463e-09
1.98611e-09
2.48766e-09
1.60275e-09
5.46962e-10
3.79587e-10
6.64821e-10
1.29876e-09
2.02322e-09
3.73001e-09
4.17178e-09
3.43869e-09
4.45884e-09
7.16175e-09
9.03893e-09
8.8551e-09
6.0932e-09
2.09817e-09
3.8213e-10
1.90337e-10
2.9076e-10
5.34439e-10
1.24879e-09
2.44901e-09
1.98866e-09
5.64227e-10
3.6931e-10
8.84729e-10
1.91889e-09
2.37976e-09
1.78124e-09
1.48146e-09
2.20318e-09
3.09749e-09
2.73714e-09
1.3333e-09
2.11271e-10
5.07995e-10
1.27797e-09
9.85824e-10
1.11048e-09
1.98697e-09
2.52432e-09
1.6982e-09
6.25845e-10
4.20959e-10
6.36183e-10
1.2457e-09
1.90468e-09
3.65081e-09
4.1872e-09
3.46928e-09
4.56297e-09
7.43363e-09
9.41027e-09
9.16768e-09
6.32362e-09
2.12049e-09
3.48642e-10
1.91692e-10
2.96066e-10
5.33509e-10
1.23518e-09
2.49459e-09
2.08706e-09
6.0194e-10
3.69472e-10
8.89804e-10
1.94903e-09
2.39229e-09
1.72553e-09
1.40196e-09
2.16716e-09
3.15323e-09
2.81365e-09
1.33607e-09
1.98553e-10
5.39931e-10
1.36914e-09
1.02854e-09
1.15808e-09
2.02921e-09
2.55745e-09
1.74559e-09
6.8257e-10
5.06177e-10
6.41328e-10
1.2114e-09
1.75661e-09
3.46733e-09
4.15662e-09
3.5186e-09
4.76508e-09
7.91733e-09
1.00138e-08
9.61019e-09
6.61925e-09
2.17647e-09
3.10813e-10
1.9462e-10
3.0235e-10
5.34263e-10
1.22016e-09
2.54441e-09
2.20408e-09
6.67706e-10
3.84984e-10
9.08826e-10
1.98229e-09
2.38956e-09
1.63951e-09
1.28039e-09
2.10215e-09
3.22702e-09
2.93237e-09
1.37368e-09
1.95982e-10
5.83265e-10
1.52989e-09
1.11545e-09
1.20805e-09
2.14658e-09
2.65723e-09
1.72722e-09
6.49283e-10
5.94767e-10
7.18349e-10
1.20156e-09
1.62994e-09
3.15351e-09
3.96941e-09
3.53013e-09
5.06543e-09
8.68493e-09
1.09304e-08
1.02269e-08
6.99553e-09
2.28287e-09
2.73806e-10
2.01176e-10
3.03591e-10
5.33214e-10
1.19092e-09
2.5468e-09
2.27336e-09
7.43871e-10
4.37476e-10
9.89397e-10
2.06063e-09
2.37671e-09
1.51707e-09
1.12183e-09
1.99241e-09
3.29367e-09
3.10423e-09
1.49698e-09
2.30637e-10
5.4865e-10
1.69296e-09
1.25864e-09
1.15868e-09
2.17022e-09
2.87044e-09
1.77564e-09
5.13499e-10
5.97088e-10
8.59581e-10
1.24163e-09
1.60086e-09
2.78347e-09
3.52619e-09
3.36657e-09
5.43867e-09
9.84189e-09
1.23112e-08
1.11387e-08
7.57191e-09
2.39936e-09
2.45327e-10
2.0921e-10
3.07879e-10
5.09308e-10
1.13705e-09
2.4972e-09
2.25406e-09
7.8844e-10
5.25265e-10
1.17304e-09
2.27995e-09
2.42091e-09
1.36501e-09
9.48384e-10
1.85314e-09
3.35227e-09
3.32731e-09
1.73906e-09
3.46762e-10
4.37328e-10
1.84814e-09
1.47058e-09
1.06421e-09
1.93739e-09
2.9197e-09
1.97831e-09
4.79998e-10
4.75711e-10
8.5569e-10
1.33999e-09
1.67681e-09
2.53384e-09
2.91222e-09
2.85462e-09
5.65727e-09
1.14497e-08
1.43629e-08
1.25117e-08
8.44642e-09
2.54423e-09
2.30816e-10
2.0945e-10
3.09739e-10
4.95973e-10
1.11803e-09
2.47047e-09
2.23936e-09
8.31882e-10
5.91129e-10
1.25056e-09
2.28148e-09
2.36046e-09
1.27678e-09
7.88116e-10
1.71832e-09
3.42368e-09
3.59215e-09
2.09703e-09
6.12091e-10
2.8737e-10
2.053e-09
1.89014e-09
1.04212e-09
1.65479e-09
2.686e-09
2.07067e-09
5.43946e-10
4.58406e-10
6.8491e-10
1.22566e-09
1.7296e-09
2.4421e-09
2.41722e-09
2.02252e-09
5.30597e-09
1.31962e-08
1.73162e-08
1.46033e-08
9.9315e-09
2.84949e-09
2.10063e-10
2.11527e-10
3.32242e-10
4.93552e-10
1.12785e-09
2.55607e-09
2.36689e-09
9.10003e-10
6.78784e-10
1.34979e-09
2.1095e-09
1.87099e-09
9.09437e-10
6.33524e-10
1.57356e-09
3.47214e-09
3.78893e-09
2.43485e-09
1.08989e-09
1.34886e-10
1.96736e-09
2.41356e-09
1.11584e-09
1.50892e-09
2.45582e-09
2.01937e-09
5.99536e-10
5.25087e-10
7.79683e-10
1.02615e-09
1.56314e-09
2.27614e-09
2.14182e-09
1.41705e-09
4.19561e-09
1.40148e-08
2.06868e-08
1.76856e-08
1.2495e-08
3.75385e-09
2.43766e-10
1.91157e-10
4.18479e-10
5.50063e-10
1.28964e-09
2.87602e-09
2.63309e-09
1.04311e-09
7.55312e-10
1.38731e-09
2.00781e-09
1.66215e-09
6.64882e-10
4.77315e-10
1.34794e-09
3.3943e-09
3.83912e-09
2.50252e-09
1.61303e-09
2.3921e-10
1.29422e-09
2.54264e-09
1.27808e-09
1.50745e-09
2.6217e-09
2.08162e-09
6.17098e-10
5.22358e-10
1.01373e-09
9.9373e-10
1.19762e-09
1.74904e-09
1.84591e-09
1.14885e-09
2.88045e-09
1.26401e-08
2.32323e-08
2.13306e-08
1.55542e-08
5.5725e-09
6.0433e-10
9.61396e-11
5.29413e-10
7.25348e-10
1.53426e-09
3.46779e-09