/*--------------------------------*- C++ -*----------------------------------*\
| =========                 |                                                 |
| \\      /  F ield         | OpenFOAM: The Open Source CFD Toolbox           |
|  \\    /   O peration     | Version:  2306                                  |
|   \\  /    A nd           | Website:  www.openfoam.com                      |
|    \\/     M anipulation  |                                                 |
\*---------------------------------------------------------------------------*/
FoamFile
{
    version     2.0;
    format      ascii;
    arch        "LSB;label=32;scalar=64";
    class       volVectorField;
    location    "2.5";
    object      U;
}
// * * * * * * * * * * * * * * * * * * * * * * * * * * * * * * * * * * * * * //

dimensions      [0 1 -1 0 0 0 0];

internalField   nonuniform List<vector> 
60000
(
(0.0102581 5.09045e-05 0.00257144)
(0.0101896 2.17441e-05 0.00272785)
(0.00999012 -4.5042e-06 0.00249563)
(0.00979501 -1.52512e-05 0.00212666)
(0.00964991 -1.14465e-05 0.00182383)
(0.00949626 -5.63157e-06 0.00158187)
(0.00927369 -5.39088e-06 0.00132714)
(0.00890725 -9.21988e-06 0.00108388)
(0.00827294 -1.11125e-05 0.00094823)
(0.00735009 -1.16158e-05 0.000966289)
(0.00639354 -1.22586e-05 0.00105621)
(0.0057804 -1.31909e-05 0.00113572)
(0.00562539 -1.7882e-05 0.00117285)
(0.00575299 -2.44534e-05 0.00105846)
(0.00593221 -2.52333e-05 0.000773085)
(0.00603428 -1.50025e-05 0.000449524)
(0.00612973 -1.91292e-06 0.000180131)
(0.00634534 9.93711e-06 -2.80305e-05)
(0.00666654 1.82645e-05 -0.000207845)
(0.00700486 2.38031e-05 -0.000419622)
(0.00733417 2.37954e-05 -0.00073231)
(0.00770549 1.47614e-05 -0.00115092)
(0.00819046 1.6008e-06 -0.00164766)
(0.00874881 -4.62392e-06 -0.00213156)
(0.00919842 -6.33991e-06 -0.00244686)
(0.00933061 -8.62888e-06 -0.00251768)
(0.00902645 -5.22414e-06 -0.00246637)
(0.0083097 5.81592e-06 -0.00236705)
(0.00742084 1.12158e-05 -0.00217578)
(0.0066959 -4.33105e-06 -0.00203446)
(0.00627939 -8.76895e-06 -0.00204146)
(0.00612718 -9.52297e-07 -0.00204115)
(0.00621095 5.5686e-06 -0.00179083)
(0.00652965 1.49103e-05 -0.00118953)
(0.00701388 2.91381e-05 -0.000403461)
(0.00757559 4.4876e-05 0.00022341)
(0.00820477 5.00849e-05 0.000569701)
(0.00891934 4.77839e-05 0.00086233)
(0.00960968 5.50497e-05 0.00135192)
(0.0100825 6.4712e-05 0.00201786)
(0.0313003 0.000218604 0.0067973)
(0.0314448 5.66028e-05 0.00699082)
(0.0309135 -7.95254e-05 0.00624077)
(0.0301691 -0.000129808 0.00528361)
(0.029583 -0.000101835 0.00466026)
(0.0290848 -5.57262e-05 0.00423811)
(0.0284007 -2.699e-05 0.00370431)
(0.0272486 -1.17661e-05 0.00306631)
(0.0253811 -7.11245e-06 0.00262516)
(0.0228353 -3.70259e-05 0.00260653)
(0.0201886 -0.000114772 0.0028909)
(0.0183217 -0.00020156 0.00315389)
(0.0175796 -0.000257903 0.00313588)
(0.0175535 -0.00026048 0.00267525)
(0.0177202 -0.000202658 0.00191152)
(0.017859 -0.000105597 0.0011511)
(0.0181529 -2.079e-05 0.000534124)
(0.0188192 3.32386e-05 2.81523e-05)
(0.0197805 6.56995e-05 -0.000465688)
(0.0208655 7.67663e-05 -0.00109046)
(0.0220712 4.30395e-05 -0.00197952)
(0.0234957 -3.73233e-05 -0.00314616)
(0.0251761 -0.000113082 -0.00450197)
(0.0269023 -0.000125589 -0.00578245)
(0.0282206 -9.20875e-05 -0.00657708)
(0.0285979 -4.7976e-05 -0.00669754)
(0.0277237 5.16204e-06 -0.00640591)
(0.0257621 5.23071e-05 -0.00593347)
(0.0233813 1.72647e-05 -0.00540539)
(0.0212377 -8.83221e-05 -0.00522575)
(0.0196204 -0.000129441 -0.00545361)
(0.0186915 -9.09561e-05 -0.00549528)
(0.0186516 -3.12919e-05 -0.00469014)
(0.0194889 4.99509e-05 -0.00297842)
(0.0208996 0.000163059 -0.000957692)
(0.0226117 0.000269861 0.000626877)
(0.0245415 0.00029782 0.0016284)
(0.0266645 0.000282557 0.0025675)
(0.028726 0.000295117 0.00392435)
(0.0303513 0.000309796 0.00556723)
(0.0532451 0.000351079 0.0100005)
(0.053978 -7.1317e-06 0.0104234)
(0.0531779 -0.000273043 0.00932287)
(0.0516888 -0.00035333 0.00776653)
(0.0504727 -0.000277816 0.00681549)
(0.0496053 -0.00017114 0.00639492)
(0.0485618 -9.7904e-05 0.00586869)
(0.0468248 -5.08448e-05 0.00499007)
(0.0440876 -3.95583e-05 0.00413387)
(0.040352 -0.000111056 0.00384072)
(0.0361256 -0.000298328 0.00423029)
(0.0325619 -0.000516062 0.00479583)
(0.030571 -0.000653642 0.0048426)
(0.0298694 -0.000646373 0.00411595)
(0.0297037 -0.000492627 0.00299615)
(0.02971 -0.000258622 0.00195606)
(0.0301063 -5.99437e-05 0.00113998)
(0.0311525 5.10233e-05 0.000465722)
(0.0327218 0.000107027 -0.000217103)
(0.0345781 0.000102526 -0.00109765)
(0.0367534 -2.38812e-05 -0.00236501)
(0.0393835 -0.000241962 -0.00409249)
(0.0424302 -0.000423092 -0.00621484)
(0.0455062 -0.000442001 -0.00835436)
(0.0479331 -0.000343823 -0.00982071)
(0.0489 -0.000209056 -0.0101775)
(0.0478936 -6.36312e-05 -0.00967527)
(0.0451133 4.36012e-05 -0.00872356)
(0.0415013 -4.76124e-05 -0.00772756)
(0.0379133 -0.000255531 -0.00741843)
(0.0347261 -0.000331969 -0.00798289)
(0.03233 -0.00024738 -0.00847294)
(0.031401 -0.000110405 -0.00762489)
(0.0322494 7.24832e-05 -0.00520601)
(0.0343907 0.000336686 -0.00218623)
(0.0372503 0.000584901 0.000291184)
(0.0405648 0.00065228 0.00198415)
(0.0442201 0.000621137 0.00355286)
(0.0478719 0.000617006 0.00564287)
(0.0510346 0.000592263 0.00810103)
(0.075217 0.00035879 0.0117411)
(0.0770755 -0.000203081 0.0129677)
(0.0762191 -0.000576648 0.012047)
(0.0738195 -0.000663802 0.00990856)
(0.0717354 -0.000524712 0.00832719)
(0.0704707 -0.000345364 0.0078432)
(0.0692735 -0.000211752 0.00763806)
(0.0673253 -0.000110366 0.00688457)
(0.0642958 -7.25668e-05 0.00564013)
(0.0600844 -0.00016783 0.00474226)
(0.0547198 -0.000458525 0.00492463)
(0.0491217 -0.000851856 0.00588226)
(0.0449274 -0.00114071 0.00633785)
(0.042689 -0.00116359 0.00555388)
(0.0416918 -0.00091216 0.00415057)
(0.0412859 -0.000513359 0.00292825)
(0.0415715 -0.000173508 0.00207565)
(0.0428022 1.00848e-05 0.00144297)
(0.0448095 8.08458e-05 0.000824517)
(0.0472949 2.69587e-05 5.59095e-06)
(0.0503171 -0.000251496 -0.00125496)
(0.0541004 -0.000700933 -0.00316228)
(0.0585946 -0.00105593 -0.00584564)
(0.063276 -0.00108219 -0.00898634)
(0.0672472 -0.000873325 -0.0116033)
(0.0694345 -0.000573241 -0.012773)
(0.0690834 -0.000255594 -0.0124669)
(0.0662349 -3.95899e-05 -0.0111558)
(0.0618853 -0.000166778 -0.00950395)
(0.057061 -0.000480009 -0.00867538)
(0.0522467 -0.000593572 -0.00934561)
(0.0478414 -0.000475694 -0.010621)
(0.0448649 -0.000295409 -0.0106158)
(0.0445194 -3.72142e-05 -0.00836242)
(0.0467125 0.000385907 -0.00480725)
(0.0505057 0.00080042 -0.00157584)
(0.0552268 0.000939817 0.000782193)
(0.0605623 0.000873032 0.00293535)
(0.0660679 0.000862161 0.00566521)
(0.0711859 0.000786597 0.00891956)
(0.0954097 0.000148606 0.0109967)
(0.0992148 -0.000570552 0.0138194)
(0.0988643 -0.000982469 0.014195)
(0.0955237 -0.00102079 0.0120642)
(0.0922899 -0.000799266 0.00952116)
(0.09056 -0.000548065 0.00847963)
(0.0894863 -0.000356746 0.00866156)
(0.0877963 -0.000189958 0.00859842)
(0.08509 -0.000108681 0.00737769)
(0.0812658 -0.000178574 0.0056655)
(0.0757304 -0.000489623 0.00506819)
(0.0685246 -0.00102634 0.00619466)
(0.0614271 -0.001553 0.0074758)
(0.0564115 -0.00172311 0.0070497)
(0.0536906 -0.00144383 0.00539527)
(0.0523822 -0.000898006 0.00394633)
(0.0521961 -0.000408966 0.003158)
(0.0532413 -0.000141038 0.00280878)
(0.0552818 -5.78032e-05 0.00259799)
(0.0579102 -0.00019276 0.00229027)
(0.061179 -0.000705654 0.00163638)
(0.0655057 -0.00155873 0.000281443)
(0.0711342 -0.00227626 -0.00230346)
(0.077664 -0.00234958 -0.0062733)
(0.0839267 -0.00188098 -0.0106287)
(0.0883561 -0.00124832 -0.0136641)
(0.0898595 -0.00064004 -0.0145501)
(0.0880851 -0.000217498 -0.0134981)
(0.0838038 -0.000330932 -0.0112891)
(0.0782335 -0.000731134 -0.00953572)
(0.0721926 -0.000864915 -0.00968911)
(0.0660236 -0.000705751 -0.0114499)
(0.0604151 -0.000536383 -0.0128087)
(0.0571739 -0.000323371 -0.0119225)
(0.0576205 0.000140668 -0.00893906)
(0.0612773 0.000660659 -0.00561094)
(0.0669706 0.000841479 -0.00292441)
(0.0739786 0.000712981 -0.000346064)
(0.0815348 0.000741935 0.00293435)
(0.0889514 0.00072264 0.00697748)
(0.110283 -0.000617352 0.00595356)
(0.117504 -0.00124968 0.0110816)
(0.119078 -0.0015172 0.0143821)
(0.11519 -0.00140032 0.0140304)
(0.110478 -0.00106463 0.0109971)
(0.108139 -0.00073336 0.0086562)
(0.107542 -0.000508534 0.00862955)
(0.106662 -0.000294249 0.00963612)
(0.104744 -0.000154395 0.00933779)
(0.102017 -0.000170636 0.00710628)
(0.0976134 -0.00037257 0.0051113)
(0.0903603 -0.000894417 0.00566941)
(0.0809779 -0.00164506 0.00785744)
(0.0721662 -0.00212439 0.00845423)
(0.0662453 -0.00198888 0.00678179)
(0.0631157 -0.00137897 0.00491131)
(0.0619452 -0.000757496 0.00404134)
(0.0623443 -0.000399414 0.00401785)
(0.0638472 -0.000288285 0.00439565)
(0.0658253 -0.000531575 0.00490071)
(0.0681173 -0.00141571 0.0053563)
(0.071336 -0.00291279 0.00539928)
(0.0764359 -0.00430623 0.00420698)
(0.0838661 -0.00478683 0.000862791)
(0.0931124 -0.00414728 -0.00471368)
(0.101886 -0.00278261 -0.0107557)
(0.107375 -0.00141167 -0.0146146)
(0.108447 -0.000535703 -0.0152463)
(0.105455 -0.000550518 -0.0133033)
(0.0998404 -0.00100658 -0.0107104)
(0.093241 -0.0011197 -0.00973829)
(0.0863259 -0.000864297 -0.0110949)
(0.0790848 -0.000681767 -0.0132707)
(0.0726341 -0.000589593 -0.0142184)
(0.069211 -0.000284847 -0.0132107)
(0.0701361 8.22242e-05 -0.0112602)
(0.0748686 9.10496e-05 -0.00930694)
(0.0823459 -0.000237207 -0.00697322)
(0.0913071 -0.000279364 -0.00358585)
(0.100798 -0.000191758 0.00083289)
(0.114221 -0.00258562 -0.00393771)
(0.126175 -0.00293171 0.00283737)
(0.13307 -0.00248172 0.0100819)
(0.130481 -0.00180691 0.0140637)
(0.123986 -0.00132813 0.0128204)
(0.120654 -0.000953488 0.00925886)
(0.121061 -0.000647266 0.00778019)
(0.12185 -0.000406224 0.00928317)
(0.121066 -0.00026251 0.0108655)
(0.11956 -0.000206624 0.00928895)
(0.117267 -0.000201274 0.00576814)
(0.112209 -0.000505641 0.00468482)
(0.103149 -0.0012521 0.00712638)
(0.0913917 -0.00205308 0.00924919)
(0.0808738 -0.00228932 0.00828126)
(0.07427 -0.00182184 0.00601283)
(0.0712799 -0.00113735 0.00472018)
(0.0706904 -0.000670038 0.00468218)
(0.0714358 -0.000490495 0.00531233)
(0.0725797 -0.000834415 0.00619707)
(0.0735715 -0.00222404 0.00734757)
(0.0747349 -0.00462806 0.00885229)
(0.0773534 -0.00689716 0.00994855)
(0.0826923 -0.00792562 0.00913764)
(0.0915109 -0.00750061 0.0052167)
(0.103843 -0.00581563 -0.00199477)
(0.116256 -0.00331693 -0.00990022)
(0.123463 -0.00134056 -0.0144431)
(0.123792 -0.000958626 -0.0146209)
(0.11901 -0.00142497 -0.0123182)
(0.112462 -0.00138026 -0.0102852)
(0.105954 -0.000862308 -0.0103851)
(0.0991212 -0.000608993 -0.0121398)
(0.0916506 -0.000565296 -0.0139688)
(0.084908 -0.000441612 -0.0151585)
(0.081222 -0.000516756 -0.0160455)
(0.0820199 -0.00107949 -0.0164977)
(0.0872983 -0.00193291 -0.0155243)
(0.0952456 -0.00224095 -0.0127408)
(0.103888 -0.00218115 -0.00887967)
(0.112008 -0.00526229 -0.0136868)
(0.123748 -0.00594132 -0.0072684)
(0.136742 -0.00460541 0.00169127)
(0.139431 -0.00240503 0.0100467)
(0.131875 -0.00131099 0.0131702)
(0.125485 -0.00124609 0.0106113)
(0.126683 -0.0010703 0.00717814)
(0.131116 -0.000566595 0.00737168)
(0.132282 -0.000347248 0.0104566)
(0.130748 -0.000507132 0.0112519)
(0.13016 -0.00039769 0.00741918)
(0.12932 -0.000136497 0.00399717)
(0.124513 -0.00051243 0.00544884)
(0.113732 -0.00134128 0.00883677)
(0.0995675 -0.00195939 0.00940778)
(0.087729 -0.00192658 0.00741337)
(0.0812314 -0.00142355 0.00570694)
(0.0791113 -0.000900385 0.00528242)
(0.0793503 -0.000584264 0.00561084)
(0.080574 -0.000898031 0.00616118)
(0.0819461 -0.00258723 0.00704876)
(0.0826537 -0.00574595 0.0090254)
(0.0827692 -0.00901861 0.0120419)
(0.0841953 -0.0107885 0.0142652)
(0.0891332 -0.0106845 0.0135487)
(0.0992336 -0.00912153 0.00849686)
(0.114436 -0.00615478 -0.000402379)
(0.128968 -0.00301416 -0.00890885)
(0.13506 -0.00175461 -0.013037)
(0.131301 -0.00202604 -0.0130601)
(0.123894 -0.00201819 -0.0111077)
(0.118725 -0.00124737 -0.00960168)
(0.115237 -0.00049191 -0.00984005)
(0.110442 -8.56564e-05 -0.0112616)
(0.103975 0.000141844 -0.0133918)
(0.0976349 -0.000344268 -0.0168834)
(0.0934841 -0.00188638 -0.0210663)
(0.0938202 -0.0037443 -0.0231569)
(0.0987679 -0.00451831 -0.0216493)
(0.104962 -0.00448921 -0.0181197)
(0.113433 -0.00745123 -0.0199556)
(0.120835 -0.00915384 -0.013677)
(0.133649 -0.00806161 -0.00537579)
(0.142693 -0.00399699 0.00415049)
(0.138956 -0.00103762 0.0105052)
(0.129137 -0.000992345 0.0106749)
(0.125811 -0.00181342 0.00700546)
(0.132251 -0.00132969 0.0050455)
(0.139006 -0.000283428 0.00745556)
(0.137603 -0.000404764 0.0104865)
(0.13292 -0.00120092 0.00865866)
(0.133626 -0.00117258 0.00395995)
(0.137325 -0.000594104 0.00344398)
(0.134394 -0.000498633 0.00717469)
(0.12186 -0.000917177 0.00946746)
(0.105767 -0.00125527 0.00862236)
(0.0938319 -0.00128242 0.0071671)
(0.0884966 -0.00105286 0.0065852)
(0.0878505 -0.000735318 0.00649161)
(0.0896396 -0.000940607 0.00642645)
(0.0923847 -0.0025918 0.00657471)
(0.0944042 -0.00586993 0.00795441)
(0.0942419 -0.00964118 0.0112429)
(0.0926502 -0.0122751 0.0153506)
(0.0927057 -0.0129179 0.0177813)
(0.0979041 -0.011811 0.0158214)
(0.110496 -0.00908098 0.00832402)
(0.127592 -0.00539406 -0.00171007)
(0.138037 -0.00275687 -0.00917475)
(0.133455 -0.00181174 -0.011645)
(0.120697 -0.00163031 -0.0100838)
(0.112632 -0.00153191 -0.00709861)
(0.113633 -0.00118523 -0.00523544)
(0.118179 -0.000198722 -0.0056025)
(0.119063 0.000998715 -0.00796501)
(0.115622 0.000899475 -0.0127405)
(0.110125 -0.00138296 -0.0198455)
(0.105437 -0.00458578 -0.0260848)
(0.105231 -0.0063463 -0.0276555)
(0.108956 -0.00645702 -0.0248591)
(0.117729 -0.00851194 -0.02388)
(0.122063 -0.0111823 -0.0170558)
(0.130748 -0.0116136 -0.00941441)
(0.141753 -0.00719454 -0.00102233)
(0.144924 -0.00174644 0.0061906)
(0.137736 -7.81942e-05 0.00865294)
(0.128733 -0.00170653 0.00622523)
(0.128708 -0.00268411 0.00310458)
(0.137724 -0.00113359 0.00374255)
(0.143592 0.000482891 0.00736463)
(0.138767 -0.000523661 0.00829352)
(0.132002 -0.00296613 0.00466803)
(0.135685 -0.00356987 0.00238699)
(0.144102 -0.00192978 0.00513258)
(0.141638 -0.00033774 0.00847876)
(0.127267 0.000108647 0.00893744)
(0.11106 -0.000211179 0.0082517)
(0.100682 -0.000685695 0.0082666)
(0.0970878 -0.000943621 0.00849238)
(0.0984812 -0.00136718 0.00810097)
(0.102761 -0.00292094 0.00704895)
(0.106837 -0.00585832 0.00680204)
(0.107607 -0.00933229 0.00912206)
(0.10494 -0.0121647 0.0136155)
(0.101551 -0.0135037 0.0180605)
(0.10155 -0.0133204 0.0191654)
(0.10914 -0.0114953 0.0138517)
(0.123652 -0.00799355 0.00361861)
(0.134998 -0.00381895 -0.00594905)
(0.131306 -0.000675001 -0.0102864)
(0.116708 0.000326817 -0.00873923)
(0.105212 -0.00064148 -0.00396706)
(0.103818 -0.0019048 0.00058728)
(0.111568 -0.00129142 0.00236256)
(0.121455 0.000942955 0.000587409)
(0.126521 0.00222829 -0.00476794)
(0.125641 0.000422247 -0.0134009)
(0.120684 -0.00365879 -0.0227297)
(0.115984 -0.00669959 -0.0283355)
(0.115253 -0.00740884 -0.0283067)
(0.122921 -0.00820558 -0.0263807)
(0.125221 -0.0114399 -0.0200311)
(0.130845 -0.013802 -0.0120352)
(0.139611 -0.0110532 -0.00482183)
(0.146726 -0.00450328 0.00144811)
(0.145804 -0.000187612 0.00522391)
(0.137744 -0.000546461 0.00485828)
(0.130191 -0.00281516 0.00206647)
(0.131881 -0.00278599 0.00108816)
(0.140984 -0.000212955 0.00376612)
(0.145902 0.00104625 0.00657634)
(0.140458 -0.00183879 0.00539368)
(0.13469 -0.00606261 0.00274426)
(0.141193 -0.00637 0.00396899)
(0.149912 -0.00266909 0.00742762)
(0.145281 0.00063918 0.00865089)
(0.130736 0.00160389 0.00833096)
(0.116861 0.000945196 0.00900634)
(0.108658 -0.000391703 0.0103319)
(0.107021 -0.0021299 0.0104364)
(0.111535 -0.00426885 0.0082801)
(0.118566 -0.00659557 0.00555648)
(0.121943 -0.00894151 0.00582483)
(0.119308 -0.0111169 0.00990203)
(0.113519 -0.0125285 0.0154941)
(0.108959 -0.0129856 0.019165)
(0.110485 -0.0123535 0.016729)
(0.119872 -0.00973199 0.0076804)
(0.129725 -0.00474833 -0.00275162)
(0.128897 0.00042017 -0.00884445)
(0.117787 0.00278237 -0.00853096)
(0.106823 0.00140154 -0.00346375)
(0.102421 -0.00151816 0.00292177)
(0.106152 -0.00231447 0.00727445)
(0.116248 -5.65597e-05 0.00787797)
(0.127041 0.00259694 0.00405471)
(0.133587 0.00232605 -0.0043144)
(0.133789 -0.00136782 -0.0152183)
(0.129363 -0.00525469 -0.0241012)
(0.124645 -0.00684779 -0.0279679)
(0.130357 -0.0068078 -0.0263182)
(0.129635 -0.0104097 -0.0227378)
(0.134001 -0.0140548 -0.0150567)
(0.140064 -0.0137858 -0.00777118)
(0.145943 -0.0085294 -0.00244657)
(0.148466 -0.00251229 0.00149735)
(0.144875 -0.000173804 0.0030919)
(0.136711 -0.00149635 0.00177507)
(0.131075 -0.00302814 0.000142512)
(0.134811 -0.00201201 0.00141021)
(0.144035 1.74105e-05 0.00453455)
(0.14763 -0.00083544 0.00531984)
(0.14189 -0.0054616 0.00325308)
(0.138691 -0.00913967 0.00304593)
(0.146292 -0.00700894 0.00612871)
(0.152047 -0.00139497 0.00809272)
(0.14599 0.00242766 0.0078226)
(0.133725 0.00326034 0.00851235)
(0.122767 0.00186008 0.010666)
(0.116656 -0.00159283 0.0111085)
(0.117943 -0.00592185 0.00774347)
(0.126368 -0.00853788 0.00282703)
(0.134513 -0.00916365 0.0011713)
(0.134708 -0.00971468 0.00463805)
(0.127853 -0.0106421 0.0108954)
(0.119397 -0.0110854 0.0165921)
(0.114864 -0.0111017 0.0174519)
(0.118 -0.00976007 0.011107)
(0.125152 -0.00526251 0.00101643)
(0.126971 0.000937947 -0.00673522)
(0.121163 0.00457658 -0.00887637)
(0.113926 0.00344572 -0.00600301)
(0.109365 -0.000108212 -0.000327826)
(0.109005 -0.00208597 0.00548387)
(0.113994 -0.000799907 0.00903479)
(0.12296 0.00196549 0.00868467)
(0.133375 0.00296882 0.00338024)
(0.140888 0.000941306 -0.00659249)
(0.141102 -0.00254479 -0.0171928)
(0.135893 -0.00484591 -0.0241748)
(0.139082 -0.00461905 -0.0238849)
(0.136082 -0.00904156 -0.0234239)
(0.139251 -0.0132335 -0.0177956)
(0.143921 -0.0146582 -0.010967)
(0.146314 -0.0118233 -0.00572383)
(0.147012 -0.00613147 -0.00155707)
(0.145929 -0.0013943 0.00157783)
(0.141385 -0.000201614 0.00207478)
(0.135239 -0.00168963 0.000591105)
(0.134016 -0.00286811 0.000549593)
(0.140584 -0.00229988 0.00323833)
(0.147726 -0.00208343 0.00529123)
(0.14722 -0.00487612 0.00393076)
(0.141538 -0.00927656 0.0020516)
(0.141472 -0.00998988 0.00356403)
(0.147518 -0.00514343 0.00626531)
(0.148853 0.00086267 0.00725263)
(0.141801 0.00435447 0.00828016)
(0.132081 0.00459434 0.0100652)
(0.124917 0.00119741 0.00908301)
(0.122282 -0.00507609 0.00366499)
(0.127348 -0.0101683 -0.0026492)
(0.139207 -0.0105398 -0.00485246)
(0.146295 -0.0087746 -0.00112827)
(0.141821 -0.00835255 0.00575099)
(0.130822 -0.0085248 0.0125695)
(0.121473 -0.00838259 0.0161252)
(0.119004 -0.00761126 0.0132873)
(0.122706 -0.00428223 0.00509839)
(0.125722 0.00157209 -0.00360881)
(0.124214 0.00567639 -0.00866506)
(0.121081 0.00495085 -0.0090246)
(0.118684 0.00138159 -0.00580198)
(0.117349 -0.000995355 -0.000917206)
(0.118079 -0.000487421 0.00375042)
(0.121842 0.00117732 0.00651619)
(0.130169 0.00167823 0.00559862)
(0.141901 0.00107783 -0.000735408)
(0.14846 -0.000143198 -0.0106322)
(0.145655 -0.00179508 -0.0191907)
(0.147786 -0.00212101 -0.0209377)
(0.143997 -0.0073742 -0.0225091)
(0.145647 -0.0117746 -0.0189513)
(0.149264 -0.0136102 -0.0138227)
(0.149083 -0.0126519 -0.0094549)
(0.145993 -0.00879197 -0.00474275)
(0.143766 -0.00357001 0.000210772)
(0.141765 5.30196e-05 0.00267232)
(0.138558 7.57138e-05 0.00171199)
(0.13683 -0.00231901 0.000663895)
(0.140362 -0.00391433 0.00269486)
(0.147094 -0.00371877 0.00570729)
(0.149824 -0.00446697 0.00519143)
(0.145666 -0.00762703 0.00178351)
(0.140088 -0.00985099 0.000837974)
(0.138567 -0.00734147 0.00376102)
(0.137698 -0.0017154 0.00750198)
(0.133936 0.00301738 0.00995326)
(0.130154 0.00518494 0.00950253)
(0.128807 0.00388473 0.00479307)
(0.127539 -0.00194031 -0.00227766)
(0.127565 -0.00969701 -0.00736343)
(0.13626 -0.0127764 -0.00804619)
(0.149139 -0.00993019 -0.00403386)
(0.151403 -0.0069615 0.00253976)
(0.140913 -0.00604871 0.00903412)
(0.128016 -0.00535935 0.0136876)
(0.12148 -0.00424545 0.0137978)
(0.122803 -0.00171705 0.00836214)
(0.126958 0.00270483 8.83712e-05)
(0.128829 0.00599036 -0.00705373)
(0.12879 0.00524178 -0.0105549)
(0.128724 0.00211849 -0.0103709)
(0.128494 0.000316824 -0.00788917)
(0.127899 0.000843622 -0.00417831)
(0.128115 0.00124226 8.10161e-05)
(0.13178 -0.000435586 0.00278524)
(0.141185 -0.00153127 0.000665116)
(0.151059 -0.000116848 -0.00645478)
(0.152732 0.000639042 -0.0147949)
(0.154529 5.1127e-05 -0.017474)
(0.151852 -0.0050709 -0.0203035)
(0.151982 -0.00934325 -0.0186135)
(0.154992 -0.0111976 -0.0152288)
(0.154605 -0.0115773 -0.0123527)
(0.149182 -0.00981709 -0.00809441)
(0.1439 -0.00536549 -0.00192639)
(0.14117 -0.000309163 0.00255519)
(0.139633 0.00167879 0.00307402)
(0.139271 -0.000619814 0.00206597)
(0.141719 -0.00407844 0.00313233)
(0.14696 -0.00510863 0.00600226)
(0.150658 -0.00454916 0.00635598)
(0.147993 -0.00532659 0.00260333)
(0.139689 -0.00698096 -0.000586748)
(0.131209 -0.00639329 0.000930035)
(0.125789 -0.00298627 0.00501005)
(0.123868 0.000836759 0.00704101)
(0.126306 0.00365478 0.0045769)
(0.13116 0.00458131 -0.0013663)
(0.133759 0.00130093 -0.00695536)
(0.133371 -0.00666646 -0.0087695)
(0.136771 -0.0136057 -0.00644222)
(0.147664 -0.0131523 -0.00164881)
(0.154326 -0.00822792 0.00378134)
(0.147185 -0.00466261 0.00857033)
(0.13344 -0.0028755 0.0121233)
(0.124461 -0.00124664 0.0129209)
(0.123963 0.00105697 0.00925982)
(0.12804 0.003951 0.00230379)
(0.130839 0.00559498 -0.00418387)
(0.131021 0.00422796 -0.00765194)
(0.131395 0.00131264 -0.00880812)
(0.133392 -4.21504e-05 -0.00896504)
(0.135602 0.000963433 -0.00723312)
(0.136665 0.00140824 -0.00274058)
(0.137124 -0.00115619 0.00164908)
(0.140378 -0.00341967 0.00136991)
(0.147932 -0.00135412 -0.00406155)
(0.154158 0.00153219 -0.0113039)
(0.155626 0.000617739 -0.0135034)
(0.157299 -0.00282203 -0.0167217)
(0.157313 -0.00625619 -0.0170033)
(0.160218 -0.00815883 -0.0153284)
(0.161469 -0.00950337 -0.0137875)
(0.155798 -0.00939295 -0.0111548)
(0.14744 -0.00603152 -0.00554073)
(0.14218 -0.00067095 0.00073326)
(0.140504 0.00273775 0.0041673)
(0.141034 0.00144031 0.00465778)
(0.142993 -0.00255035 0.00455844)
(0.146226 -0.00488239 0.00565129)
(0.149046 -0.00456706 0.00653215)
(0.147944 -0.00406688 0.00456533)
(0.141487 -0.00424487 0.000590033)
(0.132864 -0.00353196 -0.00178812)
(0.126835 -0.0015985 -0.00114325)
(0.12549 0.000125125 0.000366557)
(0.128793 0.00152292 -0.000219607)
(0.1345 0.00295246 -0.00370115)
(0.138716 0.00244052 -0.00762639)
(0.140344 -0.0029068 -0.00877027)
(0.142269 -0.011054 -0.00583458)
(0.148366 -0.0147787 -0.000310529)
(0.154103 -0.0109119 0.00481306)
(0.149893 -0.00473443 0.00852881)
(0.13795 -0.000699145 0.0116183)
(0.128297 0.00137063 0.0128372)
(0.125477 0.00299346 0.00996007)
(0.126398 0.00490546 0.00439462)
(0.126461 0.00590102 0.000167306)
(0.125481 0.00421638 -0.00113355)
(0.126241 0.000757128 -0.00197428)
(0.130088 -0.00116012 -0.00368173)
(0.135216 -7.19657e-05 -0.00350334)
(0.138171 0.001119 0.000551993)
(0.137991 -0.000250065 0.00462435)
(0.137516 -0.00236319 0.00361458)
(0.140946 -0.00161399 -0.00207492)
(0.148689 0.000847626 -0.00844967)
(0.151786 0.000762966 -0.00942032)
(0.157892 -0.00112632 -0.012168)
(0.16102 -0.00310049 -0.0134591)
(0.164973 -0.00480015 -0.0135926)
(0.167524 -0.00677569 -0.0138596)
(0.16262 -0.00764225 -0.0133554)
(0.152486 -0.00526312 -0.00921912)
(0.144442 -0.000392436 -0.00223326)
(0.141383 0.00331988 0.00340092)
(0.141866 0.00286638 0.00572848)
(0.143592 -0.00072969 0.00590584)
(0.145386 -0.00362429 0.00583824)
(0.146263 -0.00414207 0.00611447)
(0.144561 -0.0035641 0.00526479)
(0.14003 -0.0028548 0.00229914)
(0.135109 -0.00152957 -0.00142617)
(0.132705 1.51314e-05 -0.00339101)
(0.133004 0.00031683 -0.00251426)
(0.134971 -8.43426e-05 -0.000872354)
(0.138108 0.000608043 -0.00167287)
(0.140565 0.00162122 -0.00445701)
(0.141652 -0.00037777 -0.00575211)
(0.143274 -0.00669692 -0.00411091)
(0.147389 -0.0126028 -0.000222575)
(0.152318 -0.0116839 0.0042889)
(0.151472 -0.00518979 0.00787368)
(0.14352 0.00098146 0.0103022)
(0.134638 0.00454702 0.0114174)
(0.128855 0.00586326 0.0100452)
(0.125237 0.00602579 0.00688474)
(0.122658 0.00535594 0.00425271)
(0.122191 0.00297388 0.0033473)
(0.124697 -0.000907476 0.00274237)
(0.129362 -0.00376001 0.0011144)
(0.13444 -0.00323875 0.000109279)
(0.137435 -0.000556724 0.00217424)
(0.137418 0.00109348 0.00567433)
(0.136369 0.000742585 0.00573604)
(0.137516 0.00051493 0.000883965)
(0.143271 0.00118064 -0.00509041)
(0.148669 0.00174584 -0.00540005)
(0.15545 -0.000176739 -0.00864289)
(0.160982 -0.00115611 -0.0105094)
(0.166542 -0.00206329 -0.0111922)
(0.170042 -0.00389481 -0.0121036)
(0.166568 -0.00499098 -0.0134567)
(0.157301 -0.00307032 -0.0122142)
(0.148669 0.00100543 -0.0065468)
(0.144006 0.00378585 0.000379554)
(0.142438 0.00313982 0.00473793)
(0.142225 0.000342916 0.00600835)
(0.142491 -0.00181016 0.0060474)
(0.142417 -0.00215317 0.0061424)
(0.141064 -0.00181188 0.00542915)
(0.138951 -0.00140214 0.00292092)
(0.138134 -0.000537298 -0.000437471)
(0.139746 8.79462e-05 -0.00250959)
(0.141676 -0.000942534 -0.00198358)
(0.141362 -0.0027616 0.000193462)
(0.139507 -0.00233437 0.00139171)
(0.138089 0.000348182 0.00101261)
(0.138779 0.000955547 0.0010285)
(0.142113 -0.00368081 0.00237317)
(0.146628 -0.0101768 0.00461224)
(0.150315 -0.01135 0.00643694)
(0.149848 -0.00534505 0.00728593)
(0.143863 0.00248876 0.00848005)
(0.135855 0.00716312 0.00955677)
(0.129162 0.00769196 0.009)
(0.124285 0.00625603 0.00736613)
(0.121455 0.00499219 0.00666085)
(0.121696 0.00365495 0.00714814)
(0.124816 0.00113519 0.0069774)
(0.129406 -0.00194855 0.00528783)
(0.133776 -0.00296434 0.00380903)
(0.13619 -0.000664898 0.00458497)
(0.136496 0.00246458 0.00675145)
(0.13646 0.00389706 0.00716553)
(0.137831 0.00404574 0.00397861)
(0.141937 0.00345607 -0.000967521)
(0.14635 0.00172297 -0.0020316)
(0.152403 -0.00135139 -0.0062467)
(0.159014 -0.00231256 -0.00854222)
(0.165112 -0.00125751 -0.00941464)
(0.168209 -0.000493171 -0.0102427)
(0.166307 -0.00093725 -0.0116887)
(0.161124 -0.000486861 -0.0123171)
(0.156196 0.00205756 -0.00972021)
(0.152565 0.00427852 -0.00447358)
(0.149004 0.00368771 0.000315174)
(0.144855 0.00115955 0.00288455)
(0.141159 -0.00106197 0.00398595)
(0.139217 -0.0019156 0.00485701)
(0.139329 -0.00179854 0.00541259)
(0.14161 -0.00113273 0.00465319)
(0.146071 -0.000166007 0.00260574)
(0.151226 0.000164583 0.00035881)
(0.153125 -0.00107647 -0.000213396)
(0.149449 -0.00278752 0.00245816)
(0.143347 -0.00229171 0.00661829)
(0.139501 0.000826875 0.00816255)
(0.139776 0.00310966 0.0054608)
(0.142978 0.000678321 0.00162419)
(0.146885 -0.00564108 0.00155331)
(0.149649 -0.0090593 0.00506066)
(0.148837 -0.00467308 0.00701698)
(0.143188 0.00397468 0.00676405)
(0.135394 0.00996058 0.006782)
(0.129124 0.0110119 0.00728525)
(0.125667 0.00907951 0.00709917)
(0.124622 0.00669852 0.00610183)
(0.125462 0.00476203 0.00507865)
(0.12763 0.00284989 0.00462423)
(0.130554 0.000905321 0.00446377)
(0.134073 9.72859e-05 0.00421773)
(0.137404 0.00143288 0.00465605)
(0.139315 0.00386562 0.00620811)
(0.139705 0.00550921 0.00753541)
(0.140007 0.00576415 0.00662696)
(0.141974 0.00455913 0.00295628)
(0.145288 0.00109132 0.00147172)
(0.150817 -0.00314768 -0.00360937)
(0.156424 -0.00565604 -0.00727439)
(0.161801 -0.0046511 -0.00854518)
(0.165238 -0.00158314 -0.00859106)
(0.164358 0.000836194 -0.00889898)
(0.159844 0.00209019 -0.00947082)
(0.155418 0.00344556 -0.00893119)
(0.153516 0.0048408 -0.00663068)
(0.153154 0.00486166 -0.00358851)
(0.151831 0.00324911 -0.0011444)
(0.148419 0.000928874 0.000528992)
(0.144239 -0.00179139 0.00210175)
(0.141372 -0.00490518 0.00382691)
(0.141606 -0.00765964 0.00514189)
(0.145979 -0.00861572 0.0051757)
(0.152836 -0.00731576 0.00356576)
(0.156909 -0.00497665 0.00164484)
(0.15421 -0.00280824 0.00212456)
(0.147457 -0.000405205 0.00499863)
(0.142058 0.00302093 0.0061686)
(0.140032 0.00590887 0.00285092)
(0.140291 0.0052852 -0.00271149)
(0.142249 0.000341749 -0.00497228)
(0.145345 -0.00520284 -0.0014744)
(0.146741 -0.0053415 0.00345002)
(0.14429 0.00118592 0.00566508)
(0.139821 0.00897028 0.00587722)
(0.136743 0.0131322 0.00522372)
(0.136197 0.0130418 0.00331149)
(0.13669 0.0106585 0.000634237)
(0.136738 0.0077464 -0.00108847)
(0.136446 0.00498273 -0.000754906)
(0.136462 0.00289559 0.00114147)
(0.137072 0.0021453 0.00314351)
(0.137929 0.00279896 0.00453524)
(0.13836 0.0039461 0.00570192)
(0.138188 0.00470102 0.00681804)
(0.138485 0.00486605 0.00716019)
(0.14078 0.00398058 0.00553685)
(0.146488 -0.00339978 0.00747204)
(0.153018 -0.00494532 0.00124569)
(0.1572 -0.00483289 -0.00448433)
(0.157419 -0.00234232 -0.00787806)
(0.154458 0.00140463 -0.00903685)
(0.150313 0.00429106 -0.00881478)
(0.146804 0.00529899 -0.00796282)
(0.144841 0.00493725 -0.00719959)
(0.144601 0.00402398 -0.00690323)
(0.146114 0.00282205 -0.00661134)
(0.149183 0.00153789 -0.00554424)
(0.152676 0.000480109 -0.00358734)
(0.15475 -0.000556583 -0.00137238)
(0.154141 -0.00247112 0.000646809)
(0.151619 -0.00563718 0.00294066)
(0.149687 -0.00893959 0.00570908)
(0.150325 -0.0106371 0.00779202)
(0.152364 -0.00942686 0.00782169)
(0.152248 -0.00518024 0.00622786)
(0.148813 0.00024684 0.00456128)
(0.144339 0.00424417 0.00297834)
(0.141126 0.00512594 0.000444088)
(0.139994 0.00269467 -0.00293687)
(0.141143 -0.00146678 -0.00461946)
(0.144065 -0.00491591 -0.00220181)
(0.146582 -0.00504913 0.00284106)
(0.146617 -0.000765489 0.00686869)
(0.145424 0.00556415 0.00776892)
(0.145493 0.010318 0.00536007)
(0.146757 0.0120399 0.000350798)
(0.147431 0.0111335 -0.00519867)
(0.146795 0.00830277 -0.0088641)
(0.145404 0.00466922 -0.00921992)
(0.143912 0.00227354 -0.00634209)
(0.14269 0.00240881 -0.00166353)
(0.141581 0.00405368 0.00303789)
(0.140028 0.00493555 0.00681895)
(0.138317 0.00376735 0.00977441)
(0.13804 0.0012771 0.0117129)
(0.140763 -0.00123729 0.0113157)
(0.152967 -0.00282376 0.0124877)
(0.154555 -0.00276958 0.0104173)
(0.157558 -0.00126529 0.00583912)
(0.160713 0.00214038 0.000564458)
(0.161888 0.00630184 -0.0041075)
(0.160009 0.00899223 -0.00758959)
(0.155895 0.00901562 -0.00962115)