/*--------------------------------*- C++ -*----------------------------------*\
| =========                 |                                                 |
| \\      /  F ield         | OpenFOAM: The Open Source CFD Toolbox           |
|  \\    /   O peration     | Version:  2306                                  |
|   \\  /    A nd           | Website:  www.openfoam.com                      |
|    \\/     M anipulation  |                                                 |
\*---------------------------------------------------------------------------*/
FoamFile
{
    version     2.0;
    format      ascii;
    arch        "LSB;label=32;scalar=64";
    class       volScalarField;
    location    "3";
    object      nut;
}
// * * * * * * * * * * * * * * * * * * * * * * * * * * * * * * * * * * * * * //

dimensions      [0 2 -1 0 0 0 0];

internalField   nonuniform List<scalar> 
60000
(
9.50972e-05
9.68761e-05
9.55661e-05
9.26966e-05
9.01401e-05
8.82051e-05
8.62309e-05
8.34966e-05
7.91478e-05
7.25161e-05
6.44642e-05
5.76276e-05
5.41058e-05
5.34407e-05
5.3979e-05
5.4449e-05
5.49201e-05
5.63538e-05
5.89544e-05
6.2092e-05
6.54665e-05
6.94047e-05
7.43767e-05
8.02471e-05
8.56032e-05
8.84983e-05
8.7608e-05
8.27688e-05
7.5376e-05
6.81734e-05
6.30544e-05
5.99461e-05
5.85188e-05
5.89602e-05
6.14564e-05
6.57128e-05
7.11029e-05
7.75002e-05
8.44183e-05
9.06131e-05
9.56474e-05
9.91243e-05
9.89505e-05
9.59214e-05
9.26596e-05
9.04681e-05
8.87665e-05
8.64053e-05
8.26309e-05
7.71813e-05
7.03355e-05
6.33804e-05
5.82718e-05
5.55413e-05
5.43509e-05
5.38043e-05
5.39487e-05
5.5278e-05
5.7701e-05
6.077e-05
6.44957e-05
6.92658e-05
7.51115e-05
8.1438e-05
8.70224e-05
9.03583e-05
9.01905e-05
8.62727e-05
8.01366e-05
7.38621e-05
6.81257e-05
6.30396e-05
5.9396e-05
5.83367e-05
6.02314e-05
6.43838e-05
6.991e-05
7.64508e-05
8.3312e-05
8.98965e-05
9.26871e-05
9.85106e-05
0.000100185
9.72718e-05
9.30181e-05
9.02719e-05
8.8985e-05
8.77226e-05
8.56682e-05
8.26533e-05
7.79573e-05
7.09329e-05
6.32533e-05
5.73609e-05
5.39447e-05
5.21746e-05
5.15474e-05
5.21991e-05
5.40293e-05
5.66437e-05
5.99981e-05
6.45827e-05
7.04393e-05
7.70758e-05
8.36129e-05
8.87951e-05
9.1149e-05
8.99022e-05
8.59179e-05
8.0738e-05
7.48311e-05
6.81414e-05
6.1546e-05
5.71462e-05
5.64954e-05
5.93524e-05
6.43972e-05
7.0866e-05
7.79259e-05
8.52613e-05
8.43502e-05
9.28173e-05
9.74662e-05
9.56957e-05
9.05323e-05
8.69214e-05
8.6019e-05
8.62173e-05
8.63239e-05
8.62137e-05
8.48516e-05
7.97268e-05
7.05825e-05
6.08409e-05
5.39193e-05
5.00427e-05
4.80485e-05
4.7491e-05
4.81806e-05
4.96442e-05
5.16346e-05
5.47468e-05
5.95031e-05
6.58106e-05
7.32459e-05
8.10163e-05
8.7425e-05
9.05644e-05
8.99877e-05
8.67979e-05
8.20248e-05
7.55566e-05
6.70734e-05
5.83742e-05
5.28694e-05
5.21869e-05
5.53093e-05
6.09463e-05
6.8002e-05
7.56188e-05
6.77584e-05
7.82292e-05
8.71906e-05
8.87363e-05
8.34755e-05
7.86418e-05
7.80265e-05
7.98917e-05
8.21064e-05
8.45278e-05
8.69438e-05
8.64121e-05
7.96513e-05
6.77758e-05
5.63002e-05
4.8759e-05
4.44814e-05
4.21205e-05
4.10701e-05
4.06056e-05
4.01837e-05
4.04114e-05
4.2574e-05
4.68444e-05
5.32132e-05
6.28005e-05
7.43189e-05
8.37142e-05
8.83986e-05
8.83627e-05
8.57064e-05
8.17022e-05
7.51099e-05
6.47515e-05
5.37132e-05
4.69826e-05
4.56732e-05
4.8348e-05
5.35068e-05
5.96731e-05
4.63169e-05
5.31789e-05
6.52683e-05
7.29624e-05
6.98939e-05
6.35526e-05
6.28907e-05
6.69526e-05
7.12793e-05
7.51056e-05
7.99967e-05
8.53559e-05
8.60715e-05
7.78608e-05
6.36735e-05
5.09589e-05
4.29693e-05
3.83127e-05
3.54101e-05
3.31276e-05
3.06868e-05
2.88814e-05
3.01809e-05
3.43693e-05
3.81636e-05
3.99195e-05
4.83381e-05
6.42341e-05
7.66803e-05
8.15367e-05
8.1195e-05
8.00392e-05
7.87632e-05
7.34547e-05
6.20045e-05
4.93613e-05
4.20066e-05
4.08531e-05
4.23631e-05
4.41025e-05
3.90514e-05
4.03802e-05
4.03554e-05
4.8339e-05
4.95872e-05
4.11413e-05
3.81022e-05
4.57031e-05
5.3605e-05
5.74752e-05
6.16078e-05
7.04699e-05
8.13116e-05
8.48723e-05
7.56164e-05
5.94148e-05
4.60394e-05
3.82382e-05
3.39962e-05
3.14313e-05
2.9607e-05
2.78484e-05
2.62106e-05
2.78168e-05
3.45463e-05
4.00178e-05
3.56868e-05
3.58348e-05
5.22295e-05
6.28823e-05
6.37153e-05
6.37252e-05
6.83399e-05
7.27739e-05
7.044e-05
6.02151e-05
4.73074e-05
3.99939e-05
3.89703e-05
3.84658e-05
3.14539e-05
3.57072e-05
3.69287e-05
3.02797e-05
3.33874e-05
2.60506e-05
1.38505e-05
1.82159e-05
3.17994e-05
3.78714e-05
3.51011e-05
3.73781e-05
5.50888e-05
7.62671e-05
8.377e-05
7.31298e-05
5.55028e-05
4.25767e-05
3.61559e-05
3.384e-05
3.433e-05
3.63437e-05
3.61692e-05
3.0955e-05
2.49071e-05
3.01717e-05
3.81466e-05
3.13802e-05
2.66659e-05
3.38022e-05
2.98732e-05
2.42925e-05
3.02441e-05
4.63835e-05
6.12278e-05
6.55272e-05
5.89233e-05
4.59751e-05
3.72503e-05
3.36421e-05
2.58093e-05
2.38364e-05
3.05594e-05
2.89467e-05
2.5993e-05
2.94872e-05
1.42892e-05
8.9115e-06
1.37025e-05
2.22618e-05
2.25641e-05
1.30662e-05
1.73987e-05
4.25369e-05
7.27701e-05
8.18462e-05
6.94296e-05
5.18765e-05
4.04568e-05
3.60282e-05
3.68591e-05
4.14571e-05
4.58447e-05
4.4747e-05
3.56625e-05
2.30456e-05
2.55017e-05
3.105e-05
1.96072e-05
1.56725e-05
2.53558e-05
3.08106e-05
3.48043e-05
3.2288e-05
3.52498e-05
4.97011e-05
5.81622e-05
5.47711e-05
4.20452e-05
3.14124e-05
2.59593e-05
2.18487e-05
2.22202e-05
2.75019e-05
2.46261e-05
3.0027e-05
3.00558e-05
9.08368e-06
1.63353e-05
1.36232e-05
1.87094e-05
1.93288e-05
1.24804e-05
2.13961e-05
3.88856e-05
6.97471e-05
7.66415e-05
6.37399e-05
4.75245e-05
3.77862e-05
3.63417e-05
4.18051e-05
5.0385e-05
5.44025e-05
4.97608e-05
3.57295e-05
1.98636e-05
2.24717e-05
2.17513e-05
2.01561e-05
3.17728e-05
3.02307e-05
2.84879e-05
3.62364e-05
3.56786e-05
3.23491e-05
3.99532e-05
4.93186e-05
4.91506e-05
3.75217e-05
3.24251e-05
2.35014e-05
2.35344e-05
2.35563e-05
2.67329e-05
2.53136e-05
2.95635e-05
2.46073e-05
2.97124e-06
2.07878e-05
1.22945e-05
2.04205e-05
1.92508e-05
1.76584e-05
2.5466e-05
3.68501e-05
6.29684e-05
6.73102e-05
5.50922e-05
3.98561e-05
3.2224e-05
3.60735e-05
4.82435e-05
5.98356e-05
6.10286e-05
4.99129e-05
2.94464e-05
1.72534e-05
2.08583e-05
2.147e-05
2.9877e-05
3.12006e-05
2.26921e-05
1.56693e-05
2.26128e-05
2.74088e-05
2.74227e-05
3.25378e-05
4.43687e-05
4.54325e-05
3.98663e-05
2.83888e-05
2.75043e-05
2.72351e-05
2.48486e-05
2.62482e-05
2.08605e-05
2.15878e-05
1.57568e-05
6.82338e-06
2.05083e-05
1.23774e-05
1.86798e-05
1.26633e-05
2.28691e-05
2.50748e-05
3.05212e-05
4.80666e-05
4.88335e-05
3.79128e-05
2.42753e-05
2.42638e-05
3.55225e-05
5.23209e-05
6.42989e-05
6.0037e-05
4.21882e-05
2.35255e-05
2.06471e-05
2.00545e-05
2.39233e-05
3.01842e-05
3.34192e-05
3.13694e-05
2.25546e-05
1.74652e-05
2.25839e-05
2.27826e-05
2.96836e-05
4.32063e-05
3.92599e-05
3.34467e-05
2.98187e-05
3.1846e-05
2.61102e-05
2.30666e-05
2.11458e-05
1.2514e-05
1.5755e-05
1.0024e-05
1.17003e-05
1.85693e-05
1.38808e-05
1.64716e-05
1.27382e-05
2.52241e-05
2.35702e-05
1.713e-05
2.05648e-05
2.40246e-05
2.63589e-05
2.43731e-05
2.85188e-05
3.23207e-05
5.05131e-05
5.9757e-05
4.96251e-05
3.26123e-05
2.56177e-05
2.16269e-05
1.94455e-05
2.41184e-05
3.21373e-05
4.05401e-05
4.04978e-05
3.124e-05
2.29487e-05
2.39353e-05
1.77631e-05
3.01124e-05
2.7947e-05
3.30678e-05
3.22077e-05
3.48981e-05
3.15938e-05
2.39253e-05
2.03305e-05
1.29197e-05
1.00653e-05
1.31574e-05
9.14914e-06
1.49433e-05
1.64995e-05
1.68362e-05
1.68563e-05
1.78462e-05
3.04017e-05
3.3631e-05
2.20141e-05
1.31644e-05
2.7689e-05
2.94714e-05
2.28748e-05
2.27815e-05
2.57455e-05
4.5561e-05
4.81955e-05
3.61795e-05
2.90492e-05
2.48416e-05
1.7913e-05
1.59641e-05
1.88101e-05
2.88662e-05
3.86534e-05
3.86054e-05
2.98626e-05
2.4409e-05
2.09871e-05
1.32659e-05
1.30315e-05
2.51809e-05
3.16482e-05
3.5858e-05
3.45209e-05
3.04857e-05
2.55932e-05
1.641e-05
8.02126e-06
1.32577e-05
1.40977e-05
1.26006e-05
1.49645e-05
1.59194e-05
2.0283e-05
2.10264e-05
2.11144e-05
2.10295e-05
1.75859e-05
1.83479e-05
2.36277e-05
3.00932e-05
2.5618e-05
1.84232e-05
1.64012e-05
2.92095e-05
4.14874e-05
3.55851e-05
2.74883e-05
2.34292e-05
1.57488e-05
1.29312e-05
1.45998e-05
1.27642e-05
1.71301e-05
2.34877e-05
2.21548e-05
1.78582e-05
2.22806e-05
1.82433e-05
2.29042e-05
1.92373e-05
2.72997e-05
3.28073e-05
3.17058e-05
3.1e-05
3.16328e-05
2.27224e-05
9.89328e-06
9.88608e-06
1.62875e-05
1.54613e-05
1.27098e-05
1.21971e-05
1.59041e-05
2.04709e-05
2.10487e-05
1.9138e-05
1.84685e-05
2.1245e-05
2.19378e-05
2.56773e-05
3.10419e-05
2.25125e-05
1.13483e-05
2.20805e-05
3.74154e-05
3.66844e-05
2.73554e-05
1.85634e-05
1.70924e-05
2.28342e-05
2.26685e-05
1.86871e-05
1.60674e-05
1.64246e-05
1.75612e-05
1.85747e-05
2.2629e-05
2.7286e-05
3.09571e-05
2.92895e-05
2.69746e-05
2.70022e-05
2.42152e-05
2.39398e-05
3.17862e-05
2.86331e-05
1.60943e-05
5.75403e-06
1.02962e-05
1.36719e-05
1.28942e-05
1.28015e-05
1.34586e-05
1.28964e-05
1.711e-05
2.22324e-05
2.25031e-05
2.0764e-05
1.82448e-05
2.01691e-05
3.01559e-05
2.90901e-05
1.32952e-05
9.5312e-06
2.72793e-05
3.4613e-05
3.08119e-05
2.15273e-05
1.83999e-05
1.87017e-05
1.71802e-05
1.61917e-05
1.35482e-05
1.13464e-05
1.65154e-05
2.39857e-05
2.67471e-05
2.85158e-05
2.65986e-05
2.86278e-05
3.17179e-05
3.04395e-05
2.14388e-05
1.55098e-05
2.52921e-05
3.14494e-05
2.70559e-05
1.69277e-05
7.13112e-06
8.57493e-06
1.06212e-05
1.20058e-05
1.41391e-05
1.80772e-05
2.49161e-05
2.6975e-05
2.32329e-05
1.90932e-05
1.5016e-05
1.61198e-05
2.70295e-05
3.09348e-05
1.91703e-05
3.76125e-06
1.77986e-05
2.71272e-05
2.87784e-05
2.55136e-05
2.01446e-05
1.41122e-05
1.43311e-05
2.14202e-05
2.06185e-05
1.22411e-05
1.73999e-05
2.6987e-05
2.97619e-05
2.77766e-05
2.05308e-05
2.20074e-05
2.41224e-05
2.53497e-05
2.0625e-05
1.47937e-05
1.58804e-05
1.92883e-05
2.24793e-05
2.35859e-05
2.23493e-05
1.77936e-05
9.37057e-06
5.54975e-06
1.77192e-05
2.79063e-05
3.14232e-05
2.60879e-05
2.1379e-05
2.20971e-05
1.73974e-05
1.20669e-05
2.42197e-05
3.75095e-05
3.29732e-05
1.16675e-05
2.07458e-05
3.27101e-05
3.50603e-05
3.59074e-05
3.66277e-05
3.4722e-05
2.85107e-05
2.21984e-05
2.21023e-05
1.98181e-05
1.62408e-05
2.08151e-05
2.3403e-05
2.14609e-05
2.1671e-05
1.83668e-05
1.71789e-05
1.68266e-05
1.6465e-05
1.96639e-05
2.34152e-05
1.97848e-05
1.33601e-05
1.48259e-05
1.7681e-05
2.09614e-05
2.28594e-05
1.97579e-05
1.671e-05
2.31421e-05
2.9829e-05
2.82323e-05
2.29499e-05
2.47845e-05
2.51225e-05
1.93394e-05
1.1835e-05
1.84694e-05
2.5254e-05
1.41134e-05
1.4227e-05
3.43642e-05
4.28553e-05
4.84183e-05
5.17429e-05
4.80028e-05
3.84868e-05
2.73415e-05
1.86635e-05
1.49887e-05
1.38027e-05
1.74296e-05
2.2656e-05
2.41206e-05
2.22731e-05
1.94628e-05
1.80176e-05
1.59477e-05
1.64477e-05
1.89146e-05
1.81999e-05
1.35536e-05
9.396e-06
1.39873e-05
1.89545e-05
1.86933e-05
1.61675e-05
1.75107e-05
2.0301e-05
1.80252e-05
1.02109e-05
8.12382e-06
1.16248e-05
1.83137e-05
2.57956e-05
2.63944e-05
2.04652e-05
1.21409e-05
1.08609e-05
1.13838e-05
9.71969e-06
2.76505e-05
4.06822e-05
4.52657e-05
4.29681e-05
3.63547e-05
3.01068e-05
2.69597e-05
2.58858e-05
2.43199e-05
2.2057e-05
2.09528e-05
2.1994e-05
2.36298e-05
1.81994e-05
1.39175e-05
1.81125e-05
2.25206e-05
2.23468e-05
2.26844e-05
2.2914e-05
2.01396e-05
1.49796e-05
9.65896e-06
6.48885e-06
8.73909e-06
1.32009e-05
1.37432e-05
1.10163e-05
1.34396e-05
1.87024e-05
1.87186e-05
1.42548e-05
1.77297e-05
2.75644e-05
3.34061e-05
3.11363e-05
2.24882e-05
1.53986e-05
1.28188e-05
1.34311e-05
2.31915e-05
3.20154e-05
3.23716e-05
2.66192e-05
2.05894e-05
1.81012e-05
1.9767e-05
2.53919e-05
2.98154e-05
2.96926e-05
2.73938e-05
2.49375e-05
2.23367e-05
1.12225e-05
1.19834e-05
1.29591e-05
1.21757e-05
9.24841e-06
1.02943e-05
1.47767e-05
1.52951e-05
1.50636e-05
1.84986e-05
2.00363e-05
1.73143e-05
1.21957e-05
1.13065e-05
1.47422e-05
1.39376e-05
1.15661e-05
1.5818e-05
1.94361e-05
1.78382e-05
2.17991e-05
3.11705e-05
3.49291e-05
2.9729e-05
1.99298e-05
1.43301e-05
1.41349e-05
1.69076e-05
2.01505e-05
2.12144e-05
2.16412e-05
2.09221e-05
1.74496e-05
1.24639e-05
1.36202e-05
2.1184e-05
2.4205e-05
2.12625e-05
1.59758e-05
1.2249e-05
1.24499e-05
1.17843e-05
1.03303e-05
9.1351e-06
1.03626e-05
1.37278e-05
1.63345e-05
1.69615e-05
1.92561e-05
2.32673e-05
2.32682e-05
1.79113e-05
1.27323e-05
1.20602e-05
1.18419e-05
1.01724e-05
7.52951e-06
9.73388e-06
1.43358e-05
1.72329e-05
1.85487e-05
1.78158e-05
1.41755e-05
9.47224e-06
8.9044e-06
1.08146e-05
1.23171e-05
1.39102e-05
1.53683e-05
1.72061e-05
1.89057e-05
1.78056e-05
1.34313e-05
8.77972e-06
7.3252e-06
8.49119e-06
1.01644e-05
1.15011e-05
1.26809e-05
1.27845e-05
1.49855e-05
1.48684e-05
1.22458e-05
9.53032e-06
9.97627e-06
1.20006e-05
1.31614e-05
1.16453e-05
8.28693e-06
8.09475e-06
9.93839e-06
9.72641e-06
1.01026e-05
1.33512e-05
1.80622e-05
2.23546e-05
2.38109e-05
2.09103e-05
1.78252e-05
1.93325e-05
2.2128e-05
2.51377e-05
2.65534e-05
2.23758e-05
1.28726e-05
3.76359e-06
6.60733e-06
1.10816e-05
1.50485e-05
1.98949e-05
2.31517e-05
2.3154e-05
1.93051e-05
1.3632e-05
1.16982e-05
1.1938e-05
8.16792e-06
6.59256e-06
1.17136e-05
1.42576e-05
7.68284e-05
8.10475e-05
8.53323e-05
8.88562e-05
9.04282e-05
8.97109e-05
8.76456e-05
8.52149e-05
8.23444e-05
7.83461e-05
7.34692e-05
6.92778e-05
6.67479e-05
6.53582e-05
6.41858e-05
6.31327e-05
6.30057e-05
6.444e-05
6.71557e-05
7.03242e-05
7.35208e-05
7.70763e-05
8.14515e-05
8.65194e-05
9.07984e-05
9.20167e-05
8.93076e-05
8.38188e-05
7.73873e-05
7.16045e-05
6.67769e-05
6.20676e-05
5.75544e-05
5.4566e-05
5.36857e-05
5.43102e-05
5.63415e-05
6.05222e-05
6.6435e-05
7.21823e-05
7.5293e-05
8.08313e-05
8.6374e-05
9.09115e-05
9.3377e-05
9.3309e-05
9.13685e-05
8.86059e-05
8.56274e-05
8.23639e-05
7.85901e-05
7.45778e-05
7.11785e-05
6.85105e-05
6.61244e-05
6.42153e-05
6.36107e-05
6.45978e-05
6.67225e-05
6.94036e-05
7.25977e-05
7.67935e-05
8.22779e-05
8.84706e-05
9.35296e-05
9.53491e-05
9.34362e-05
8.86012e-05
8.22411e-05
7.65596e-05
7.22455e-05
6.76724e-05
6.17684e-05
5.61962e-05
5.3205e-05
5.30469e-05
5.52692e-05
5.93573e-05
6.46249e-05
6.99811e-05
7.13964e-05
7.76642e-05
8.38721e-05
8.92288e-05
9.28773e-05
9.40399e-05
9.29014e-05
9.05282e-05
8.82067e-05
8.64551e-05
8.43361e-05
8.06698e-05
7.62165e-05
7.22611e-05
6.87387e-05
6.54845e-05
6.32938e-05
6.27375e-05
6.35904e-05
6.53773e-05
6.79679e-05
7.17981e-05
7.73459e-05
8.42285e-05
9.07336e-05
9.47623e-05
9.55921e-05
9.32712e-05
8.80952e-05
8.25783e-05
7.89663e-05
7.56291e-05
6.92398e-05
6.02494e-05
5.31913e-05
5.05378e-05
5.1595e-05
5.49732e-05
5.98524e-05
6.54267e-05
6.48981e-05
7.13408e-05
7.75565e-05
8.30389e-05
8.75779e-05
9.03338e-05
9.07635e-05
8.94982e-05
8.81692e-05
8.81386e-05
8.84488e-05
8.64533e-05
8.1757e-05
7.66786e-05
7.21581e-05
6.74773e-05
6.30407e-05
5.9939e-05
5.85116e-05
5.84269e-05
5.93274e-05
6.14346e-05
6.56056e-05
7.21541e-05
7.98949e-05
8.68216e-05
9.18608e-05
9.42383e-05
9.23219e-05
8.765e-05
8.46209e-05
8.34723e-05
7.91431e-05
6.85248e-05
5.62652e-05
4.87312e-05
4.68249e-05
4.87136e-05
5.29412e-05
5.85936e-05
5.52447e-05
6.1168e-05
6.67174e-05
7.13095e-05
7.55397e-05
7.95337e-05
8.21596e-05
8.28878e-05
8.27819e-05
8.39105e-05
8.67047e-05
8.81571e-05
8.55152e-05
8.03985e-05
7.53739e-05
6.99382e-05
6.36002e-05
5.75879e-05
5.30087e-05
4.98389e-05
4.75281e-05
4.61507e-05
4.71156e-05
5.14265e-05
5.85609e-05
6.7525e-05
7.70718e-05
8.60328e-05
9.05808e-05
8.88233e-05
8.61211e-05
8.69476e-05
8.71964e-05
7.98635e-05
6.52179e-05
5.13939e-05
4.3805e-05
4.22485e-05
4.46366e-05
4.94456e-05
4.27808e-05
4.71825e-05
5.18555e-05
5.51103e-05
5.68451e-05
5.98691e-05
6.43521e-05
6.80009e-05
6.9669e-05
7.10305e-05
7.46665e-05
7.99824e-05
8.26453e-05
8.05687e-05
7.63797e-05
7.13048e-05
6.45428e-05
5.67502e-05
4.93985e-05
4.29681e-05
3.71804e-05
3.28556e-05
3.19634e-05
3.42301e-05
3.69283e-05
4.06284e-05
4.90531e-05
6.34184e-05
7.72594e-05
8.23253e-05
8.068e-05
8.19295e-05
8.7113e-05
8.76964e-05
7.79515e-05
6.19929e-05
4.76395e-05
3.94939e-05
3.75757e-05
3.93084e-05
3.18039e-05
3.26897e-05
3.59938e-05
3.94492e-05
3.88897e-05
3.60475e-05
3.76092e-05
4.35195e-05
4.77898e-05
4.82539e-05
4.91887e-05
5.55914e-05
6.55242e-05
7.16646e-05
7.21875e-05
6.92521e-05
6.37059e-05
5.62963e-05
4.83031e-05
4.05125e-05
3.33294e-05
2.78719e-05
2.51317e-05
2.65123e-05
2.94934e-05
2.8632e-05
2.63652e-05
3.24007e-05
4.98322e-05
6.425e-05
6.62448e-05
6.59845e-05
7.35314e-05
8.30123e-05
8.45765e-05
7.61007e-05
6.16545e-05
4.61031e-05
3.62532e-05
3.2764e-05
2.82546e-05
2.59666e-05
2.61417e-05
2.79152e-05
3.00267e-05
2.57052e-05
1.77133e-05
1.76775e-05
2.33101e-05
2.5866e-05
2.26082e-05
2.16641e-05
3.04247e-05
4.63316e-05
5.82472e-05
6.21936e-05
5.97869e-05
5.3919e-05
4.70419e-05
4.05625e-05
3.5766e-05
3.43455e-05
3.4391e-05
3.11676e-05
2.80377e-05
2.65401e-05
2.1711e-05
1.92947e-05
2.46857e-05
3.89386e-05
4.33131e-05
3.55818e-05
3.859e-05
5.65092e-05
7.33356e-05
7.98794e-05
7.66897e-05
6.28233e-05
4.4234e-05
3.30065e-05
2.95893e-05
2.63592e-05
2.62092e-05
2.43282e-05
2.35057e-05
2.60949e-05
1.90478e-05
1.04001e-05
1.31184e-05
1.52846e-05
1.57878e-05
7.06051e-06
1.04729e-05
1.53538e-05
3.2573e-05
4.87202e-05
5.42119e-05
5.0948e-05
4.41532e-05
3.85353e-05
3.63973e-05
3.90181e-05
4.47075e-05
4.61552e-05
3.86418e-05
3.09272e-05
2.45272e-05
1.66398e-05
1.79267e-05
2.0499e-05
2.30509e-05
1.36046e-05
1.91937e-05
1.88109e-05
3.50311e-05
6.0671e-05
7.64412e-05
7.71673e-05
5.96934e-05
3.91692e-05
3.26393e-05
2.57929e-05
2.65306e-05
2.91528e-05
2.36475e-05
2.10025e-05
2.35348e-05
1.40257e-05
1.47249e-05
2.11973e-05
1.86352e-05
1.56599e-05
9.45233e-06
1.85122e-05
1.52747e-05
2.58393e-05
4.3559e-05
4.81672e-05
4.21557e-05
3.44512e-05
3.09517e-05
3.28136e-05
3.9843e-05
4.75146e-05
4.66683e-05
3.62166e-05
2.78269e-05
1.92592e-05
1.41744e-05
1.47867e-05
1.62401e-05
1.95184e-05
2.06042e-05
3.32016e-05
2.53846e-05
2.25898e-05
5.29533e-05
7.54127e-05
7.29797e-05
5.1025e-05
3.96101e-05
2.46637e-05
2.21649e-05
2.81737e-05
3.04751e-05
2.21645e-05
1.89348e-05
1.95243e-05
1.30601e-05
2.22857e-05
2.61989e-05
1.81069e-05
1.40445e-05
1.65746e-05
2.6608e-05
1.8966e-05
2.06046e-05
3.61183e-05
3.78083e-05
2.97595e-05
2.21391e-05
2.04894e-05
2.6802e-05
3.80608e-05
4.5056e-05
3.8999e-05
2.8668e-05
2.10033e-05
1.17747e-05
1.07072e-05
1.72182e-05
2.60817e-05
2.84773e-05
1.96306e-05
2.86136e-05
2.80723e-05
2.02661e-05
5.34282e-05
7.42709e-05
6.28217e-05
4.88447e-05
2.89488e-05
1.98684e-05
2.19099e-05
2.83338e-05
2.78221e-05
1.91616e-05
1.89648e-05
1.80541e-05
1.41161e-05
2.09004e-05
2.29787e-05
1.92108e-05
1.61124e-05
2.161e-05
2.89725e-05
1.90125e-05
1.23772e-05
2.21712e-05
2.31215e-05
1.84715e-05
1.48051e-05
1.91615e-05
2.59712e-05
3.44425e-05
3.56592e-05
2.62042e-05
2.04107e-05
1.40975e-05
7.72568e-06
1.40363e-05
2.27272e-05
3.18261e-05
3.67675e-05
2.39126e-05
2.54226e-05
2.89172e-05
2.1758e-05
5.94412e-05
6.8048e-05
5.76052e-05
3.79659e-05
2.47658e-05
2.17187e-05
2.3233e-05
2.5117e-05
2.11887e-05
1.73073e-05
1.92482e-05
1.54465e-05
1.32686e-05
2.01972e-05
2.34946e-05
1.98173e-05
1.43552e-05
2.06955e-05
2.69842e-05
2.32731e-05
1.36742e-05
1.2216e-05
2.13029e-05
1.95779e-05
1.56087e-05
2.06664e-05
2.007e-05
2.47994e-05
2.24486e-05
1.76785e-05
1.72784e-05
1.32216e-05
1.15817e-05
1.7137e-05
2.23438e-05
2.76336e-05
3.3639e-05
2.29531e-05
2.89331e-05
2.19033e-05
3.16667e-05
6.27685e-05
6.00127e-05
5.00412e-05
3.58122e-05
2.96004e-05
2.6012e-05
2.18635e-05
1.84832e-05
1.56573e-05
1.83244e-05
1.86265e-05
1.57544e-05
1.93038e-05
2.49938e-05
2.33392e-05
1.48304e-05
9.73244e-06
2.16113e-05
2.87077e-05
2.25024e-05
1.92331e-05
2.44473e-05
2.24972e-05
1.4724e-05
1.01868e-05
1.2932e-05
1.33068e-05
1.91322e-05
1.47877e-05
1.80819e-05
1.84125e-05
1.47922e-05
1.12868e-05
1.479e-05
1.77401e-05
1.94912e-05
2.46118e-05
2.14073e-05
2.6454e-05
6.72584e-06
4.41295e-05
5.11317e-05
6.03933e-05
5.18601e-05
4.20331e-05
3.59348e-05
2.90011e-05
2.24585e-05
1.72038e-05
1.835e-05
2.12981e-05
2.15932e-05
2.20213e-05
2.43068e-05
2.30815e-05
1.782e-05
1.33775e-05
1.55415e-05
1.88945e-05
2.10764e-05
2.59098e-05
2.4672e-05
1.62531e-05
1.51909e-05
1.18959e-05
9.6668e-06
1.20752e-05
1.99903e-05
1.69769e-05
1.65634e-05
1.95379e-05
1.60914e-05
1.06882e-05
7.89641e-06
1.02864e-05
1.51414e-05
1.96612e-05
1.89876e-05
1.9271e-05
1.53229e-05
1.91376e-05
2.64994e-05
5.56049e-05
6.65844e-05
6.06276e-05
4.97684e-05
3.83933e-05
2.8484e-05
2.06001e-05
1.74574e-05
2.12799e-05
2.57421e-05
2.62544e-05
2.317e-05
2.02386e-05
1.72829e-05
1.39547e-05
1.34592e-05
1.90761e-05
2.49785e-05
2.61591e-05
1.94861e-05
8.85658e-06
1.05685e-05
1.28344e-05
1.12179e-05
1.33138e-05
2.06678e-05
2.24491e-05
1.73823e-05
1.59451e-05
1.43507e-05
1.25079e-05
1.35495e-05
1.62744e-05
1.42366e-05
1.71029e-05
2.34654e-05
2.22151e-05
2.06375e-05
1.16963e-05
1.89953e-05
2.73859e-05
5.09563e-05
6.47772e-05
6.13898e-05
4.636e-05
2.83169e-05
1.65873e-05
1.20272e-05
1.3981e-05
2.01796e-05
2.60822e-05
2.58253e-05
2.22536e-05
2.02228e-05
1.56353e-05
9.98066e-06
1.2874e-05
1.7281e-05
1.7349e-05
1.26886e-05
1.06557e-05
1.65243e-05
1.949e-05
1.69821e-05
1.41802e-05
1.56868e-05
2.05142e-05
2.06753e-05
1.73112e-05
1.47283e-05
1.41597e-05
1.61543e-05
1.7588e-05
1.82049e-05
1.9287e-05
2.47677e-05
2.643e-05
2.21931e-05
2.12838e-05
1.98353e-05
2.44839e-05
2.37837e-05
3.46124e-05
4.95613e-05
5.05601e-05
3.64231e-05
1.81847e-05
8.87993e-06
1.36243e-05
1.47881e-05
1.33487e-05
1.88125e-05
2.5392e-05
2.65351e-05
2.25327e-05
1.89121e-05
1.8755e-05
1.48377e-05
8.6451e-06
9.0186e-06
1.28248e-05
2.03517e-05
2.87609e-05
2.9719e-05
2.13473e-05
1.43872e-05
1.73341e-05
2.14782e-05
2.35566e-05
2.25885e-05
1.77262e-05
1.4921e-05
1.73577e-05
1.93545e-05
2.31922e-05
2.87919e-05
2.98794e-05
2.52797e-05
1.89893e-05
1.22603e-05
1.69944e-05
2.36275e-05
2.16812e-05
2.13074e-05
3.78598e-05
4.39796e-05
3.52896e-05
2.14109e-05
9.12085e-06
6.4654e-06
1.12235e-05
1.43231e-05
1.68267e-05
2.31425e-05
3.16997e-05
3.65782e-05
3.33017e-05
2.23111e-05
1.43152e-05
1.52168e-05
1.59338e-05
1.4984e-05
2.01156e-05
2.90423e-05
2.87761e-05
2.05773e-05
2.17822e-05
2.7784e-05
3.17732e-05
3.2311e-05
2.76337e-05
1.89582e-05
1.39709e-05
2.05855e-05
2.70896e-05
2.8916e-05
2.63013e-05
2.13742e-05
1.59804e-05
1.814e-05
1.37819e-05
1.51667e-05
2.08072e-05
2.10866e-05
1.41319e-05
1.69854e-05
2.16337e-05
1.89579e-05
1.7802e-05
1.785e-05
1.42898e-05
1.20905e-05
1.8156e-05
2.55126e-05
3.38707e-05
3.99595e-05
3.51501e-05
1.97053e-05
1.11704e-05
1.62908e-05
1.81687e-05
1.86457e-05
1.66852e-05
1.24416e-05
1.74575e-05
2.18496e-05
2.55063e-05
2.92479e-05
2.88919e-05
2.76153e-05
2.77777e-05
2.5845e-05
1.92954e-05
1.37302e-05
1.62368e-05
1.78771e-05
1.87471e-05
2.14914e-05
2.19292e-05
1.78268e-05
1.48784e-05
1.44e-05
1.27981e-05
1.09812e-05
1.40481e-05
1.62321e-05
1.32425e-05
6.91098e-06
9.29704e-06
1.43292e-05
1.57636e-05
1.81656e-05
2.34799e-05
2.7424e-05
2.67126e-05
2.48377e-05
2.51945e-05
2.0388e-05
1.20114e-05
1.66059e-05
2.37719e-05
2.66371e-05
2.60285e-05
2.17751e-05
1.80864e-05
1.96495e-05
2.34407e-05
2.42908e-05
1.94773e-05
1.84827e-05
2.60319e-05
3.1719e-05
3.116e-05
2.50745e-05
1.75402e-05
1.21052e-05
1.32059e-05
1.77006e-05
1.96639e-05
1.30235e-05
1.51395e-05
1.43932e-05
1.23864e-05
1.74e-05
2.44858e-05
2.74602e-05
2.51063e-05
1.92382e-05
1.17169e-05
5.96739e-06
1.0454e-05
1.47081e-05
1.59478e-05
1.7679e-05
1.97136e-05
1.74644e-05
1.18413e-05
8.94911e-06
5.11032e-06
6.57101e-06
1.84727e-05
2.66861e-05
2.81903e-05
2.48577e-05
2.04072e-05
1.91876e-05
2.03839e-05
1.98788e-05
1.62317e-05
1.51532e-05
1.95292e-05
2.43606e-05
2.75759e-05
2.91832e-05
2.82962e-05
2.43409e-05
1.93398e-05
1.53182e-05
1.29623e-05
9.81226e-06
9.80653e-06
1.20023e-05
1.3376e-05
1.30599e-05
1.51218e-05
2.02596e-05
2.40521e-05
2.3102e-05
1.96221e-05
1.95226e-05
2.21754e-05
2.41285e-05
2.47503e-05
2.31882e-05
1.94937e-05
1.59212e-05
1.27435e-05
8.93463e-06
5.99023e-06
5.66824e-06
7.99142e-06
1.39279e-05
2.05525e-05
2.23062e-05
1.93502e-05
1.8207e-05
1.81357e-05
1.45728e-05
1.24482e-05
1.30499e-05
1.02685e-05
6.09094e-06
7.81482e-06
1.12378e-05
1.57371e-05
1.77179e-05
1.50726e-05
1.19824e-05
1.08512e-05
8.91612e-06
1.09899e-05
1.38509e-05
1.34973e-05
1.01087e-05
9.64075e-06
1.38676e-05
1.57951e-05
1.4509e-05
1.3936e-05
1.36777e-05
1.14812e-05
9.26543e-06
9.66528e-06
1.28027e-05
1.59849e-05
1.55356e-05
1.27965e-05
1.16928e-05
1.17669e-05
1.49144e-05
2.09302e-05
2.40921e-05
2.27328e-05
1.9118e-05
1.50005e-05
1.14092e-05
1.15572e-05
1.51862e-05
1.87701e-05
1.94417e-05
1.56028e-05
9.69762e-06
8.45758e-06
1.00995e-05
1.02327e-05
9.52188e-06
9.7066e-06
1.0874e-05
1.01762e-05
1.83474e-05
1.75625e-05
2.00209e-05
2.33489e-05
2.4275e-05
2.38492e-05
2.36112e-05
2.11433e-05
1.52204e-05
1.00971e-05
1.22504e-05
1.41176e-05
1.18252e-05
9.84478e-06
1.34471e-05
1.77509e-05
1.88347e-05
1.74573e-05
1.61582e-05
1.48671e-05
1.62797e-05
2.32867e-05
2.75196e-05
2.43656e-05
1.89911e-05
1.65969e-05
1.55914e-05
1.74699e-05
2.32667e-05
2.78493e-05
2.60922e-05
2.07885e-05
1.75137e-05
1.2767e-05
8.24372e-06
8.12068e-06
6.37826e-06
9.7452e-06
1.64193e-05
1.90932e-05
5.69265e-05
6.12711e-05
6.52539e-05
6.87243e-05
7.09329e-05
7.12901e-05
7.02283e-05
6.86464e-05
6.68549e-05
6.47536e-05
6.28868e-05
6.21075e-05
6.25453e-05
6.36283e-05
6.48278e-05
6.61119e-05
6.79847e-05
7.0695e-05
7.36252e-05
7.57572e-05
7.6914e-05
7.77161e-05
7.90015e-05
8.14961e-05
8.46881e-05
8.67786e-05
8.66835e-05
8.46651e-05
8.11403e-05
7.60669e-05
6.88856e-05
5.99004e-05
5.17109e-05
4.68987e-05
4.47818e-05
4.38409e-05
4.37676e-05
4.52059e-05
4.82134e-05
5.2317e-05
5.47164e-05
6.02112e-05
6.59546e-05
7.10816e-05
7.45557e-05
7.58037e-05
7.51571e-05
7.32652e-05
7.08167e-05
6.85216e-05
6.69299e-05
6.61149e-05
6.58353e-05
6.5844e-05
6.61112e-05
6.68468e-05
6.84624e-05
7.09417e-05
7.36163e-05
7.57084e-05
7.70959e-05
7.83907e-05
8.04484e-05
8.37017e-05
8.73605e-05
8.98366e-05
9.02324e-05
8.85516e-05
8.55272e-05
8.18438e-05
7.65922e-05
6.84799e-05
5.83995e-05
5.00002e-05
4.52677e-05
4.31853e-05
4.28062e-05
4.38682e-05
4.63154e-05
4.99882e-05
5.12198e-05
5.75666e-05
6.44748e-05
7.10584e-05
7.61657e-05
7.90083e-05
7.95652e-05
7.82086e-05
7.58569e-05
7.37136e-05
7.22624e-05
7.10955e-05
6.98969e-05
6.87018e-05
6.75985e-05
6.67862e-05
6.6871e-05
6.81772e-05
7.0222e-05
7.22063e-05
7.37416e-05
7.52441e-05
7.75874e-05
8.1251e-05
8.56516e-05
8.94138e-05
9.14584e-05
9.11353e-05
8.92814e-05
8.76351e-05
8.55576e-05
8.00084e-05
6.87086e-05
5.53287e-05
4.61487e-05
4.19681e-05
4.05227e-05
4.07738e-05
4.2665e-05
4.61585e-05
4.64874e-05
5.29664e-05
6.02732e-05
6.77629e-05
7.44263e-05
7.93046e-05
8.19256e-05
8.21366e-05
8.0672e-05
7.91321e-05
7.82582e-05
7.72693e-05
7.55621e-05
7.33764e-05
7.07773e-05
6.76491e-05
6.4784e-05
6.33883e-05
6.36222e-05
6.46675e-05
6.57618e-05
6.69892e-05
6.92026e-05
7.30467e-05
7.82404e-05
8.3693e-05
8.82948e-05
9.03354e-05
8.98375e-05
8.98732e-05
9.13339e-05
9.06019e-05
8.17031e-05
6.47333e-05
4.93496e-05
4.13011e-05
3.79456e-05
3.71132e-05
3.83758e-05
4.15313e-05
4.07598e-05
4.63862e-05
5.28757e-05
5.98154e-05
6.69927e-05
7.36137e-05
7.88797e-05
8.18614e-05
8.23649e-05
8.19874e-05
8.23066e-05
8.26366e-05
8.16395e-05
7.94277e-05
7.61778e-05
7.11264e-05
6.46002e-05
5.8781e-05
5.51698e-05
5.34089e-05
5.25069e-05
5.22347e-05
5.35271e-05
5.72035e-05
6.2924e-05
6.9801e-05
7.74237e-05
8.3306e-05
8.46031e-05
8.51015e-05
8.9231e-05
9.48646e-05
9.3468e-05
7.84302e-05
5.74576e-05
4.3214e-05
3.6528e-05
3.38547e-05
3.39938e-05
3.6456e-05
3.52045e-05
3.94209e-05
4.38609e-05
4.81214e-05
5.30507e-05
5.92592e-05
6.65359e-05
7.3153e-05
7.69485e-05
7.84115e-05
8.01375e-05
8.27666e-05
8.43636e-05
8.39898e-05
8.18552e-05
7.68592e-05
6.80047e-05
5.75377e-05
4.86642e-05
4.2164e-05
3.73187e-05
3.42738e-05
3.44408e-05
3.80267e-05
4.31386e-05
4.82094e-05
5.60719e-05
6.69861e-05
7.20983e-05
7.13963e-05
7.52767e-05
8.68209e-05
9.71055e-05
9.2142e-05
7.11976e-05
4.9961e-05
3.7984e-05
3.22589e-05
3.0333e-05
3.16791e-05
3.08236e-05
3.41911e-05
3.67749e-05
3.81657e-05
3.85402e-05
3.97902e-05
4.41856e-05
5.192e-05
5.9507e-05
6.38587e-05
6.67498e-05
7.13321e-05
7.67546e-05
8.05516e-05
8.21687e-05
8.02267e-05
7.23227e-05
5.97202e-05
4.689e-05
3.62888e-05
2.80087e-05
2.32498e-05
2.38502e-05
2.83441e-05
3.38885e-05
3.64218e-05
3.41171e-05
4.07536e-05
5.24356e-05
5.03188e-05
4.75599e-05
6.09261e-05
8.42426e-05
9.6882e-05
8.63994e-05
6.28105e-05
4.39903e-05
3.38975e-05
2.87655e-05
2.79585e-05
2.73694e-05
3.05608e-05
3.24936e-05
3.32311e-05
3.1928e-05
2.90678e-05
2.83901e-05
3.08522e-05
3.45519e-05
3.85519e-05
4.07753e-05
4.38069e-05
5.05554e-05
5.9531e-05
6.8245e-05
7.3058e-05
7.03711e-05
5.97839e-05
4.6406e-05
3.57778e-05
2.9035e-05
2.43171e-05
2.12402e-05
2.25998e-05
2.81276e-05
3.24931e-05
3.19738e-05
2.53069e-05
3.06461e-05
3.4131e-05
1.87389e-05
1.99469e-05
4.67724e-05
8.17331e-05
9.30812e-05
7.89684e-05
5.62055e-05
4.01557e-05
3.12474e-05
2.63768e-05
2.53508e-05
2.71e-05
2.98538e-05
3.17696e-05
3.17763e-05
2.93397e-05
2.49684e-05
2.45233e-05
2.54784e-05
2.34379e-05
2.11401e-05
1.97179e-05
2.3303e-05
2.73631e-05
3.26214e-05
4.54163e-05
5.45391e-05
5.2107e-05
4.18247e-05
3.33481e-05
3.20353e-05
3.47196e-05
3.55679e-05
3.18892e-05
2.95732e-05
3.32109e-05
3.09459e-05
2.65618e-05
2.13955e-05
2.68278e-05
1.95191e-05
1.56391e-05
2.21681e-05
4.03083e-05
7.90652e-05
8.86316e-05
7.36837e-05
5.22373e-05
3.8698e-05
2.98236e-05
2.9171e-05
2.48342e-05
2.69397e-05
3.15028e-05
3.4528e-05
3.36034e-05
2.90303e-05
2.27953e-05
2.14076e-05
2.16863e-05
2.03017e-05
2.04888e-05
2.59105e-05
3.43777e-05
3.34836e-05
1.902e-05
2.25366e-05
3.51278e-05
3.45691e-05
2.87485e-05
2.9016e-05
3.63711e-05
4.41228e-05
4.45888e-05
3.50434e-05
2.98952e-05
3.53024e-05
2.56026e-05
2.32741e-05
1.7037e-05
2.85577e-05
1.52903e-05
2.68777e-05
2.81905e-05
3.86819e-05
7.76723e-05
8.68709e-05
6.99631e-05
4.98098e-05
3.83039e-05
3.6731e-05
2.71224e-05
2.33449e-05
2.83484e-05
3.54313e-05
3.84775e-05
3.56172e-05
2.72226e-05
1.7699e-05
1.69964e-05
1.93427e-05
1.87487e-05
1.76118e-05
2.21988e-05
3.20427e-05
3.27287e-05
1.74519e-05
1.53751e-05
2.67467e-05
2.74206e-05
2.6726e-05
3.03137e-05
3.58726e-05
4.1692e-05
3.77355e-05
2.45677e-05
2.2498e-05
2.88579e-05
1.41053e-05
2.2661e-05
1.24701e-05
2.89119e-05
1.47847e-05
3.24673e-05
2.89527e-05
3.87821e-05
7.84949e-05
8.42927e-05
6.38732e-05
4.70597e-05
4.11437e-05
2.99827e-05
2.12776e-05
2.25666e-05
3.05004e-05
3.68246e-05
3.87246e-05
3.49134e-05
2.55083e-05
1.76023e-05