/*--------------------------------*- C++ -*----------------------------------*\
| =========                 |                                                 |
| \\      /  F ield         | OpenFOAM: The Open Source CFD Toolbox           |
|  \\    /   O peration     | Version:  2306                                  |
|   \\  /    A nd           | Website:  www.openfoam.com                      |
|    \\/     M anipulation  |                                                 |
\*---------------------------------------------------------------------------*/
FoamFile
{
    version     2.0;
    format      ascii;
    arch        "LSB;label=32;scalar=64";
    class       volScalarField;
    location    "3";
    object      pMean;
}
// * * * * * * * * * * * * * * * * * * * * * * * * * * * * * * * * * * * * * //

dimensions      [0 2 -2 0 0 0 0];

internalField   nonuniform List<scalar> 
60000
(
6.1739e-05
0.00010115
0.000148911
0.000185274
0.000208069
0.000219081
0.000214023
0.000191219
0.000167043
0.000169461
0.000206225
0.000255987
0.000290072
0.000292433
0.000264644
0.000220223
0.000174608
0.000133461
9.63735e-05
6.87066e-05
6.5432e-05
9.46132e-05
0.000144146
0.00018873
0.000211367
0.00021237
0.000207835
0.000219589
0.000253949
0.000293655
0.000315246
0.00031502
0.000304707
0.000289566
0.000266396
0.000236016
0.000198888
0.000149236
9.35239e-05
5.64981e-05
5.94636e-05
9.84422e-05
0.000146621
0.000183689
0.000206841
0.00021781
0.000212478
0.000189342
0.000164869
0.000167225
0.000204382
0.000254748
0.000289373
0.000292207
0.000264852
0.000220776
0.0001753
0.000134099
9.68071e-05
6.88726e-05
6.52933e-05
9.42827e-05
0.000143656
0.0001879
0.000210037
0.000210552
0.000205728
0.000217521
0.000252259
0.000292723
0.000315226
0.000315833
0.000306222
0.00029161
0.000268667
0.00023839
0.000201161
0.000151003
9.41298e-05
5.55056e-05
5.49617e-05
9.42043e-05
0.000143541
0.000181772
0.000205645
0.000216941
0.000211639
0.000188019
0.000162509
0.000164058
0.000201485
0.000252937
0.000288737
0.000292475
0.000265667
0.000221737
0.00017607
0.000134472
9.67015e-05
6.83131e-05
6.4465e-05
9.34932e-05
0.000142948
0.000187024
0.000208685
0.00020849
0.000202714
0.00021399
0.000249107
0.00029067
0.000314436
0.000316175
0.000307605
0.000293634
0.000270582
0.000239724
0.000201968
0.000151032
9.25767e-05
5.20565e-05
4.8107e-05
8.83186e-05
0.000139608
0.000179501
0.000204434
0.000216426
0.000211475
0.00018739
0.000160311
0.000160206
0.000197518
0.000250445
0.000288183
0.000293412
0.000267292
0.00022325
0.000177012
0.00013461
9.59758e-05
6.70434e-05
6.31464e-05
9.25952e-05
0.000142441
0.000186465
0.000207546
0.000206315
0.000198973
0.000209194
0.000244675
0.000287622
0.00031277
0.000315779
0.000308658
0.000295657
0.000272211
0.000239976
0.000201047
0.000149113
8.86823e-05
4.59676e-05
3.94175e-05
8.07314e-05
0.000134315
0.000176302
0.00020263
0.000215655
0.000211665
0.000187838
0.000159458
0.000156973
0.000193089
0.000247092
0.000287219
0.000294655
0.000269674
0.000225493
0.000178318
0.000134735
9.48989e-05
6.52179e-05
6.12876e-05
9.1365e-05
0.00014159
0.000185542
0.000206252
0.00020414
0.000194908
0.000203813
0.000239915
0.000284545
0.000310834
0.000314723
0.000309321
0.00029806
0.000274662
0.000240853
0.000200013
0.000146558
8.36342e-05
3.82094e-05
2.85772e-05
7.10691e-05
0.000126906
0.000171039
0.000199278
0.000213798
0.000211202
0.00018889
0.000160642
0.000156136
0.000190006
0.000243704
0.000285756
0.000295736
0.000272538
0.000228568
0.00018037
0.000135112
9.32684e-05
6.20967e-05
5.77917e-05
8.83671e-05
0.00013833
0.000180818
0.0002005
0.000198972
0.0001896
0.000197868
0.000235387
0.000282802
0.00031048
0.000314334
0.000310094
0.000301288
0.000279009
0.000244525
0.000202254
0.000146017
7.86732e-05
2.85679e-05
1.40022e-05
5.69575e-05
0.000116276
0.000162659
0.0001929
0.000209828
0.00020932
0.000188627
0.000162195
0.000158189
0.000190247
0.000242358
0.000284928
0.000296784
0.00027557
0.000232312
0.000183244
0.000135903
9.10279e-05
5.6816e-05
5.10091e-05
8.22517e-05
0.000133023
0.00017368
0.000189783
0.00018644
0.000177926
0.000188115
0.000229367
0.000282002
0.000313417
0.000317575
0.000312961
0.000305263
0.000284677
0.000251692
0.000210637
0.000153389
7.98754e-05
2.03313e-05
-1.71996e-06
3.84916e-05
0.00010136
0.000151707
0.000183716
0.000202791
0.000205217
0.000186833
0.000161248
0.000158007
0.000192102
0.000244917
0.000287009
0.0002992
0.00027903
0.000236549
0.000186781
0.000137053
8.83635e-05
4.98804e-05
4.20906e-05
7.5838e-05
0.000130864
0.000172026
0.000182904
0.000172067
0.000160191
0.000171746
0.000218606
0.000277685
0.000313826
0.000321853
0.000319427
0.000311471
0.000289269
0.000257177
0.000221449
0.000168352
9.05033e-05
1.73493e-05
-1.64934e-05
1.62704e-05
8.24731e-05
0.000138117
0.000172889
0.000193527
0.000198853
0.000183778
0.000159853
0.000154971
0.00018764
0.000243616
0.000290268
0.000303921
0.000283662
0.000241467
0.000191044
0.000138493
8.58015e-05
4.42517e-05
3.72026e-05
7.7165e-05
0.000140482
0.000184353
0.000188063
0.000163786
0.000141212
0.000150214
0.000203161
0.000270499
0.000310763
0.000319353
0.0003186
0.000312742
0.000289883
0.000257695
0.000228907
0.000185756
0.000109236
2.18756e-05
-2.56247e-05
-7.24589e-06
5.92115e-05
0.000121978
0.000160594
0.000183
0.000191012
0.000179577
0.000157352
0.000150805
0.000179038
0.000232357
0.000282588
0.000303063
0.000287201
0.00024648
0.000196163
0.000140629
8.34996e-05
4.0523e-05
3.86538e-05
9.0021e-05
0.000166174
0.000215621
0.000211442
0.00016853
0.000127784
0.00012828
0.000183406
0.000258395
0.000303106
0.000313573
0.000314275
0.000309858
0.000286817
0.000253965
0.000231837
0.000202637
0.000134295
3.66646e-05
-2.10844e-05
-2.48541e-05
3.54673e-05
0.00010236
0.000147364
0.000173283
0.000184162
0.000176354
0.000156107
0.000146638
0.000168322
0.000216
0.000263639
0.000287084
0.000279105
0.000246517
0.000200878
0.000144726
8.31273e-05
3.86153e-05
4.3808e-05
0.000109464
0.000202462
0.00026262
0.000254516
0.000193009
0.000129316
0.000113357
0.0001617
0.0002383
0.0002865
0.000301416
0.000308441
0.000309502
0.000288153
0.000255092
0.000235996
0.000219899
0.000164212
6.38169e-05
6.83692e-07
-2.78117e-05
1.82335e-05
8.29589e-05
0.000132975
0.000164049
0.000178917
0.000174798
0.000156921
0.000146101
0.00016215
0.000201873
0.000242293
0.000260836
0.000253703
0.0002299
0.000196333
0.000148518
8.9403e-05
4.49558e-05
5.47065e-05
0.000129464
0.000236051
0.000310767
0.000308449
0.00023809
0.000154178
0.000116108
0.000146105
0.000213668
0.000263339
0.000286133
0.00030369
0.000313962
0.000298257
0.000266461
0.000247826
0.000238478
0.000195987
0.000100341
3.61432e-05
-1.2373e-05
1.38557e-05
6.91657e-05
0.000118043
0.000153666
0.000173031
0.000173527
0.000157896
0.000146139
0.000158908
0.000193638
0.000227014
0.000236731
0.000221954
0.000198865
0.000176273
0.000145712
0.000100629
6.51585e-05
7.62991e-05
0.000147952
0.000253813
0.000339283
0.000352695
0.000289891
0.000198531
0.0001404
0.000145663
0.000193886
0.000240906
0.000272476
0.00030043
0.000319435
0.000312457
0.000285312
0.00026591
0.00025621
0.000223221
0.000138922
7.96377e-05
2.20673e-05
2.78126e-05
6.7721e-05
0.000109421
0.000144226
0.000166703
0.000170526
0.000157456
0.000146056
0.000156666
0.000189073
0.000220376
0.000225652
0.000203544
0.00017615
0.000156982
0.00013806
0.000107675
8.40205e-05
9.55359e-05
0.000156265
0.0002499
0.000338738
0.000370822
0.000328315
0.000243066
0.000172753
0.000154313
0.000180739
0.000222902
0.000262782
0.000299475
0.000323959
0.000321784
0.000301515
0.000281046
0.000266326
0.000239723
0.000172086
0.00012777
7.2216e-05
6.03152e-05
8.05754e-05
0.000110794
0.000141155
0.000162369
0.000166541
0.000155494
0.000145547
0.000154745
0.000185014
0.00021745
0.000227787
0.000209322
0.000179689
0.000157112
0.000138317
0.000110908
9.1724e-05
0.000103301
0.000154514
0.000232506
0.000316078
0.000365582
0.000347284
0.000274222
0.000197573
0.000160704
0.000169691
0.000206442
0.000250916
0.000292213
0.000320653
0.000324575
0.00030999
0.00028805
0.000267443
0.000244526
0.000198597
0.000169786
0.000124291
0.000101748
0.000103161
0.000119972
0.000143343
0.000159032
0.000159666
0.000149658
0.000143104
0.000153615
0.000181611
0.000212759
0.000228252
0.00021951
0.000194472
0.000168381
0.00014361
0.000113404
9.56086e-05
0.000111387
0.000159004
0.000221621
0.000288463
0.0003428
0.000347996
0.00029506
0.000220155
0.000169281
0.000162171
0.000189748
0.000231738
0.000272712
0.00030567
0.000321045
0.000313964
0.000290954
0.00026509
0.000245095
0.000217127
0.00019721
0.000162574
0.000137926
0.000129669
0.000136063
0.000150229
0.000157604
0.000150936
0.000140089
0.000135355
0.000148349
0.000177237
0.000209013
0.000227408
0.000223358
0.00020236
0.00017713
0.000151311
0.000122157
0.000108085
0.000129708
0.000177021
0.000224287
0.000269151
0.000311373
0.000328479
0.00029721
0.000237055
0.000184957
0.000164376
0.000179654
0.000217697
0.000257645
0.00028949
0.000307745
0.00030759
0.000290598
0.000263453
0.000244492
0.000226674
0.000203204
0.000184917
0.00016767
0.000157785
0.000156675
0.000159351
0.000155091
0.000140024
0.000125705
0.000123461
0.000138974
0.000169871
0.000206121
0.000230769
0.000231094
0.000210389
0.000182903
0.000156312
0.000131801
0.000121624
0.000143037
0.000186413
0.000226268
0.000258173
0.000288324
0.000305088
0.000286062
0.000238316
0.000190209
0.000168265
0.000180843
0.00021644
0.000257091
0.000289395
0.000306968
0.000303268
0.000280679
0.000249074
0.000228911
0.000217057
0.000193401
0.000186763
0.000178553
0.000175735
0.000178302
0.000174815
0.000157766
0.00013169
0.000109408
0.000102993
0.000116582
0.000146957
0.000186607
0.000221469
0.000235069
0.000224269
0.000201568
0.000179074
0.000157988
0.000146135
0.000155566
0.000185387
0.000218801
0.00024862
0.000277783
0.000296273
0.000278887
0.000234032
0.00018841
0.000168858
0.000180977
0.000212533
0.000250334
0.000284327
0.000303221
0.000298197
0.000270341
0.000233036
0.00020725
0.000198059
0.000171999
0.00017189
0.000171406
0.000172085
0.000174693
0.000173578
0.000160959
0.000137808
0.000114052
0.000100183
0.000100986
0.000115945
0.000144373
0.000178821
0.000203963
0.000209368
0.000201875
0.000195282
0.000187088
0.000172395
0.000164124
0.00017479
0.00019893
0.000230727
0.000266246
0.000285185
0.000268125
0.000221556
0.000176062
0.000156237
0.000166024
0.000195146
0.000232119
0.000266925
0.000287421
0.000282571
0.000255571
0.000219954
0.000191041
0.000175639
0.000150739
0.000150458
0.000158858
0.000169084
0.000176944
0.000174326
0.000158935
0.000136825
0.000117588
0.000104599
9.85111e-05
0.000101446
0.000115008
0.000138544
0.000165368
0.000183599
0.000189313
0.000191135
0.000190957
0.000181011
0.000166738
0.000165432
0.000186013
0.000223129
0.000264367
0.00028381
0.000258896
0.000199703
0.000141721
0.000116628
0.000130308
0.000169153
0.000215083
0.000253976
0.000275976
0.000275432
0.000255369
0.00022484
0.000192784
0.000165897
0.000178144
0.000160523
0.000156326
0.00016198
0.000169833
0.000169894
0.000158905
0.000140951
0.000124408
0.000113083
0.000107337
0.000107347
0.000113509
0.000124818
0.000140728
0.000159207
0.000173993
0.00018568
0.000191672
0.000187159
0.000177041
0.000174874
0.000189512
0.000220755
0.000259355
0.000283558
0.000266408
0.000203419
0.000133734
9.49881e-05
0.000102188
0.000144247
0.000198671
0.00024634
0.000271919
0.000271396
0.000256651
0.000239032
0.000224095
0.000203231
0.000194228
0.000174316
0.000159956
0.000154355
0.000152777
0.000154042
0.000152087
0.0001449
0.000135106
0.00012657
0.000121959
0.000123308
0.000130399
0.000139482
0.000149386
0.00016109
0.000174062
0.000186378
0.000194154
0.000194737
0.000189764
0.000187715
0.00019702
0.000218484
0.000245458
0.000263394
0.000253466
0.000209535
0.000154527
0.000119641
0.000119179
0.000148076
0.000191545
0.000231525
0.000254488
0.000257495
0.000248821
0.000238094
0.00022693
0.00021355
0.000182997
0.000151405
0.000130984
0.000126639
0.000133232
0.000144408
0.000153863
0.000157893
0.000155605
0.000149387
0.000142837
0.000138381
0.000137397
0.000141875
0.000153209
0.000168183
0.000184349
0.000197377
0.000205456
0.000206819
0.000201171
0.00019383
0.000192143
0.000199786
0.000216305
0.000234125
0.000236084
0.00021063
0.000169464
0.000137135
0.000129128
0.000145478
0.000176282
0.000209408
0.000231766
0.000239708
0.000238514
0.000235497
0.000228913
0.000212431
0.000176413
0.000138983
0.000111872
0.000103134
0.000112328
0.000129825
0.00014618
0.000156543
0.00015871
0.000154479
0.000149063
0.000148071
0.000152305
0.000158408
0.000164802
0.000175471
0.000193482
0.000215331
0.000231671
0.000233444
0.000218602
0.00019715
0.000180024
0.000172941
0.000179963
0.000195817
0.000208814
0.000206583
0.000183778
0.000157358
0.000144397
0.0001501
0.000170161
0.000195625
0.000216953
0.000230118
0.000236102
0.000235891
0.000227682
0.000209072
1.26773e-05
-1.82237e-08
3.13731e-05
8.42958e-05
0.000137771
0.000175282
0.000185903
0.000169399
0.000145779
0.000146157
0.000178813
0.00021972
0.000241076
0.000235366
0.000213179
0.000188046
0.000166226
0.00014334
0.000113948
8.57501e-05
8.01208e-05
0.000112737
0.00017739
0.000248255
0.000298289
0.000317847
0.000319703
0.000320923
0.000327063
0.000339034
0.000354025
0.000367539
0.000373955
0.000364347
0.000340489
0.000317186
0.000295393
0.00025223
0.000171655
7.7571e-05
1.34314e-05
-7.54444e-07
2.93481e-05
8.17999e-05
0.000135439
0.00017338
0.000184401
0.000167952
0.000144153
0.000144495
0.00017743
0.000218827
0.000240521
0.000234984
0.000212916
0.000187914
0.00016628
0.000143557
0.000114119
8.54991e-05
7.89965e-05
0.000110507
0.000174161
0.000244426
0.000294423
0.000314443
0.000317013
0.00031897
0.000325516
0.00033746
0.000352446
0.000366382
0.000373659
0.000365001
0.000341804
0.000318941
0.000297767
0.000255242
0.000174719
7.97992e-05
1.17386e-05
-3.90741e-06
2.55691e-05
7.83434e-05
0.000132892
0.000171831
0.000183383
0.000166708
0.0001421
0.000141928
0.000175209
0.000217398
0.000239665
0.000234324
0.000212366
0.000187559
0.000166247
0.000143824
0.000114323
8.50991e-05
7.76124e-05
0.000108203
0.000171294
0.000241348
0.000291394
0.000311692
0.000314768
0.000317376
0.000324096
0.000335489
0.000349984
0.000364374
0.000373155
0.00036601
0.000343469
0.000320929
0.000300528
0.000258612
0.000177411
8.04364e-05
6.49729e-06
-1.01842e-05
1.9721e-05
7.37222e-05
0.000129808
0.000170263
0.000182726
0.000165767
0.000139835
0.000138551
0.000171986
0.000215233
0.00023836
0.000233279
0.0002114
0.000186838
0.000165973
0.000144019
0.000114521
8.47078e-05
7.65015e-05
0.000106833
0.000170176
0.000240553
0.000290537
0.000310467
0.000313369
0.000316294
0.000323012
0.000333475
0.000346907
0.000361331
0.000371834
0.000366798
0.000345124
0.000322937
0.000303511
0.000261981
0.000179021
7.83563e-05
-2.33148e-06
-1.98475e-05
1.13934e-05
6.73213e-05
0.000125415
0.000167948
0.00018216
0.000165698
0.00013865
0.000135609
0.000168322
0.000212264
0.000236373
0.0002317
0.00020988
0.000185569
0.000165301
0.000143915
0.000114448
8.41375e-05
7.5541e-05
0.000106196
0.00017043
0.000241516
0.000291415
0.000310565
0.000312743
0.000315646
0.000322393
0.000332079
0.00034414
0.000357586
0.000368902
0.000366001
0.000345716
0.000324422
0.00030675
0.000265829
0.000180018
7.38166e-05
-1.37344e-05
-3.26064e-05
1.5785e-07
5.80347e-05
0.000118173
0.000163288
0.000180429
0.000166095
0.000139428
0.000135151
0.000166267
0.00020953
0.00023397
0.000229755
0.00020807
0.000183956
0.000164359
0.000143678
0.000114115
8.28823e-05
7.35262e-05
0.000104136
0.000168847
0.000240139
0.000289636
0.000308402
0.000310868
0.000314615
0.000322079
0.000331887
0.000343176
0.000354734
0.000364756
0.000362447
0.000343668
0.000324546
0.00031035
0.000271462
0.000182063
6.83865e-05
-2.43471e-05
-4.65965e-05
-1.29854e-05
4.62455e-05
0.000107342
0.000154605
0.000175374
0.00016461
0.000140107
0.000136615
0.000167156
0.000209012
0.000232523
0.000228117
0.000206519
0.000182583
0.000163577
0.00014355
0.000113457
7.98533e-05
6.74016e-05
9.59718e-05
0.000160336
0.000231609
0.000279934
0.000297626
0.000301079
0.000308434
0.000319636
0.000332004
0.000344504
0.00035453
0.0003612
0.000356457
0.000337307
0.000321414
0.000314223
0.000281309
0.000189997
6.66788e-05
-2.7453e-05
-5.71922e-05
-2.61069e-05
3.34826e-05
9.50545e-05
0.000143523
0.000167546
0.000161044
0.000138897
0.000135125
0.000165223
0.000207803
0.000232144
0.000227702
0.000205794
0.000181779
0.000163125
0.000143486
0.00011222
7.43001e-05
5.52553e-05
7.88881e-05
0.000142242
0.000214649
0.000263008
0.000278793
0.000281244
0.00029199
0.000309661
0.000327971
0.000344472
0.000355484
0.000359584
0.000350552
0.000327958
0.000313708
0.000316565
0.000295826
0.000207935
7.58178e-05
-1.96537e-05
-6.11762e-05
-3.62996e-05
2.06118e-05
8.20578e-05
0.000131864
0.000159059
0.000156957
0.000137596
0.000132476
0.000159024
0.000200317
0.000227256
0.000226343
0.000205845
0.000181706
0.000162821
0.000142942
0.00011015
6.74391e-05
4.06345e-05
5.78032e-05
0.000119507
0.000193658
0.000243166
0.000257317
0.000256
0.000267148
0.000291314
0.0003185
0.000340673
0.000352199
0.000354595
0.000344581
0.000319977
0.000304897
0.000316736
0.000312763
0.000235291
9.80845e-05
-1.7199e-06
-5.94398e-05
-4.36128e-05
7.76161e-06
6.87513e-05
0.000120171
0.000150834
0.000152744
0.00013596
0.000129675
0.000152399
0.000189917
0.000216552
0.000219262
0.000203401
0.000181714
0.000162706
0.000141673
0.00010738
6.2669e-05
3.22382e-05
4.53646e-05
0.000105478
0.000179542
0.000227679
0.000238337
0.000230882
0.000237092
0.000266068
0.000303846
0.00033492
0.000348991
0.000349439
0.000338967
0.000315325
0.00030061
0.000318031
0.00032997
0.000267658
0.000130282
2.49353e-05
-5.2418e-05
-5.01863e-05
-4.78547e-06
5.52439e-05
0.000110161
0.000144673
0.000149729
0.000134722
0.000127335
0.000146061
0.000179323
0.00020289
0.000205484
0.000193043
0.000176674
0.000160885
0.000139379
0.000103672
5.99718e-05
3.23316e-05
4.74395e-05
0.00010877
0.000181763
0.000225291
0.000228257
0.000211981
0.000208876
0.000236962
0.000283493
0.000325543
0.000346224
0.000349135
0.000342004
0.000322487
0.000307972
0.00032598
0.000348387
0.000301459
0.00016921
6.14286e-05
-3.45288e-05
-5.11371e-05
-1.63778e-05
4.0475e-05
0.00010008
0.000140633
0.000148554
0.000133584
0.000123636
0.000139185
0.00016999
0.000190314
0.000189495
0.000176303
0.000163712
0.000153243
0.000134902
9.97517e-05
5.87841e-05
3.80602e-05
6.05646e-05
0.000126107
0.000198085
0.000237144
0.00023232
0.000206785
0.000191913
0.000209788
0.00025765
0.000308431
0.000337441
0.000347415
0.000346737
0.000335263
0.000324416
0.000341172
0.000367599
0.000333719
0.000211175
0.000104378
-3.77073e-06
-4.01799e-05
-2.05392e-05
2.92348e-05
8.87313e-05
0.00013447
0.000146263
0.000131633
0.000119499
0.000133429
0.000164688
0.000184352
0.000179097
0.000160783
0.000148
0.000142149
0.000128953
9.79028e-05
6.06481e-05
4.59545e-05
7.38966e-05
0.00014087
0.000211941
0.000251205
0.000246058
0.000216005
0.000191585
0.00019475
0.000232031
0.000282401
0.000319677
0.000339463
0.000348648
0.000346357
0.000339281
0.000352225
0.000379074
0.000356774
0.000249725
0.000147628
3.84577e-05
-1.30469e-05
-1.08321e-05
2.63706e-05
8.03394e-05
0.000126971
0.000143234
0.000130456
0.000118161
0.000131912
0.000165192
0.000186719
0.000179932
0.000157251
0.000141516
0.000136858
0.000128615
0.000102741
7.19372e-05
6.12648e-05
8.81253e-05
0.000145663
0.000212014
0.00025649
0.000260342
0.000232793
0.000203436
0.000193351
0.000214942
0.000254243
0.000292166
0.000319894
0.000340056
0.000348823
0.000345668
0.000350779
0.000372106
0.000361369
0.000276739
0.000187777
8.8787e-05
2.86475e-05
1.38523e-05
3.46857e-05
7.7595e-05
0.000119953
0.000139658
0.000130876
0.000121148
0.000134884
0.000168308
0.00019358
0.000192454
0.000173797
0.000155979
0.000142479
0.00012773
0.000102141
7.92678e-05
7.67863e-05
0.000101727
0.0001491
0.000208238
0.00025845
0.000274642
0.000251928
0.000217086
0.000196928
0.000203806
0.000231305
0.000266463
0.000297752
0.000323289
0.000338934
0.000341254
0.000339548
0.000349462
0.000345861
0.000289367
0.000220989
0.000143315
8.30843e-05
5.40817e-05
5.58921e-05
8.11427e-05
0.000112826
0.000130837
0.00012801
0.00012427
0.00013953
0.00017253
0.000200887
0.000205782
0.000190822
0.000170824
0.000149152
0.000123219
9.35051e-05
7.59796e-05
8.63662e-05
0.000118012
0.000160226
0.000208772
0.000259392
0.000286326
0.000271228
0.000230416
0.000198587
0.000194114
0.000215556
0.000248217
0.000280523
0.000310355
0.000332934
0.000339346
0.000331489
0.000326417
0.000322078
0.000288771
0.000242709
0.00018653
0.000137466
0.000109104
9.93506e-05
0.000101107
0.000109217
0.000115139
0.000115678
0.000119436
0.000138793
0.000174202
0.000206974
0.000217004
0.000204579
0.000183263
0.000159469
0.00013213
0.000102019
8.50039e-05
0.000100295
0.000138553
0.00017914
0.000216454
0.000257532
0.00028589
0.000277004
0.000238446
0.000202167
0.000190242
0.000205236
0.000237685
0.000272068
0.000302559
0.000326956
0.000336027
0.000324946
0.000309175
0.000302721
0.000285364
0.000250366
0.000217098
0.000181951
0.000158675
0.000145654
0.000133856
0.000119871
0.000107715
0.000101674
0.000107368
0.000131618
0.00017236
0.000210958
0.000226703
0.000217576
0.000193782
0.00016752
0.000142091
0.000117189
0.000102247
0.00011393
0.000151245
0.000192932
0.000228129
0.000260631
0.000284081
0.000275837
0.000240183
0.000202863
0.000188049
0.000200095
0.000230281
0.000266259
0.000298581
0.000321593
0.000326023
0.000308623
0.000285788
0.000275091
0.000269981
0.000238078
0.000223713
0.000205408
0.000194788
0.00018954
0.000171219
0.000139138
0.000108576
9.12171e-05
9.08948e-05
0.000108496
0.000144935
0.000189742
0.000223644
0.000229944
0.000211452
0.000182383
0.000157821
0.000138556
0.000124191
0.000126702
0.000153785
0.00019216
0.00023174
0.000265026
0.000283736
0.00027136
0.000236822
0.000201773
0.000187304
0.000196419
0.000221444
0.000254242
0.000287202
0.000308358
0.000309754
0.000288147
0.000257695
0.000239444
0.000239074
0.000211574
0.000212404
0.00020718
0.000198779
0.000190889
0.00017839
0.000154744
0.000124657
9.87445e-05
8.5075e-05
8.81008e-05
0.000109143
0.000142854
0.000178802
0.000202523
0.000206425
0.000195254
0.000181408
0.000166398
0.000148429
0.000135603
0.000142134
0.00017102
0.000212793
0.000254437
0.000276571
0.000262847
0.00022771
0.000195303
0.000184599
0.00019473
0.000216406
0.000243901
0.000270678
0.00028675
0.000285969
0.000266549
0.00023774
0.000215789
0.000209412
0.000188531
0.000192117
0.000195869
0.000198254
0.000197934
0.000186231
0.000160423
0.000129316
0.000104072
8.64303e-05
7.68724e-05
8.07842e-05
9.8739e-05
0.000126501
0.000154694
0.00017493
0.000184599
0.000186128
0.000179678
0.000163646
0.000147548
0.000147997
0.000171734
0.000209469
0.000246525
0.000264423
0.000247812
0.000208593
0.000174692
0.000163016
0.000177274
0.000206796
0.000238957
0.000263065
0.000274455
0.00027355
0.000261014
0.000237793
0.000211252
0.000193036
0.000202189
0.000193324
0.000191902
0.000194866
0.000195666
0.000185514
0.000164127
0.000138289
0.000117907
0.000105007
9.61653e-05
9.02314e-05
9.01103e-05
9.75806e-05
0.000112584
0.00013151
0.000151998
0.000168315
0.000176091
0.000173092
0.000166723
0.000168785
0.000185187
0.000212622
0.000242063
0.000257809
0.000245468
0.000207279
0.000164803
0.000143411
0.000153892
0.0001868
0.000226837
0.000257373
0.000269786
0.000265345
0.000254526
0.000244696
0.000233048
0.000217174
0.000205922
0.000192984
0.000185337
0.000180906
0.000176771
0.000170347
0.000159569
0.000145375
0.000133415
0.000127457
0.000126825
0.000129321
0.000132407
0.000133665
0.000133662
0.000137145
0.000146479
0.000159065
0.000169209
0.00017099
0.000168213
0.000170634
0.0001842
0.000206703
0.000230213
0.000243362
0.000235851
0.000205165
0.000165736
0.000141134
0.000143922
0.000170655
0.000208436
0.000239901
0.000255102
0.00025448
0.000247459
0.000240808
0.00023295
0.000221364
0.000196205
0.000172539
0.000156269
0.000148817
0.000148437
0.000150422
0.00015283
0.000153726
0.000151914
0.000146986
0.000141029
0.000137261
0.00013826
0.000143695
0.000152999
0.000162439
0.00017177
0.000179897
0.000185056
0.000185394
0.000181712
0.000178719
0.000182128
0.000193327
0.000208991
0.000222433
0.000223135
0.000203591
0.000171556
0.000146842
0.000143333
0.000160923
0.000189697
0.000217457
0.000234972
0.000240036
0.000238399
0.000236575
0.000232006
0.00021929
0.00018348
0.000147088
0.000119568
0.000108515
0.000113183
0.000127337
0.000142559
0.000154271
0.000159038
0.000156412
0.000151154
0.000149436
0.000152865
0.000159409
0.000166119
0.000175862
0.000191116
0.000208007
0.000219183
0.000218088
0.000204654
0.000186205
0.000174098
0.000173728
0.000183209
0.000197599
0.000207851
0.000203894
0.000186342
0.000168044
0.00016139
0.000168281
0.000183238
0.00020188
0.000217618
0.000228966
0.000235839
0.000238609
0.000233097
0.000215284
0.000100179
5.94737e-05
4.53896e-05
5.85621e-05
9.25271e-05
0.000133246
0.000161988
0.000163985
0.000145365
0.000133229
0.000144868
0.000168554
0.000182375
0.0001799
0.000170273
0.000161368
0.00015316
0.000140916
0.000123315
0.000109008
0.00011196
0.000141936
0.000195611
0.000254805
0.000298078
0.000317939
0.000323115
0.000326178
0.000334863
0.000354131
0.00038325
0.000414318
0.000430678
0.0004198
0.000391232
0.000359331
0.000326153
0.000284479
0.000227452
0.000160971
0.000101823
6.04072e-05
4.57309e-05
5.8473e-05
9.21253e-05
0.000132788
0.000161733
0.000164039
0.000145608
0.000133478
0.00014509
0.000168808
0.000182614
0.000179976
0.000170138
0.000161151
0.000152905
0.000140536
0.000122695
0.000108083
0.000110731
0.000140406
0.000193806
0.000252701
0.000295693
0.000315283
0.000320113
0.000322681
0.000330749
0.00034951
0.000378673
0.000410721
0.000428794
0.000419425
0.000391851
0.000360726
0.00032817
0.000287059
0.000230165
0.000163282
0.000102076
5.97214e-05
4.44862e-05
5.69522e-05
9.06072e-05
0.000131626
0.000161217
0.000164043
0.000145576
0.000133042
0.000144459
0.000168299
0.000182177
0.000179422
0.000169562
0.000160786
0.000152784
0.000140367
0.000122213
0.000107145
0.000109357
0.000138682
0.00019198
0.000250968
0.000293987
0.000313481
0.000317985
0.000319815
0.000326631
0.000343991
0.000372584
0.000405998
0.00042705
0.000420321
0.000394119
0.000363569
0.000331447
0.000290335
0.000232805
0.000164761
0.000100269
5.66409e-05
4.07632e-05
5.31059e-05
8.71008e-05
0.000128984
0.000159775
0.000163352
0.00014457
0.000131135
0.000142138
0.000166248
0.000180405
0.000177673
0.000168086
0.000160052
0.000152831
0.000140585
0.000122011
0.000106417
0.000108308
0.000137562
0.00019117
0.000250728
0.000293982
0.000313331
0.000317446
0.000318509
0.000323784
0.00033897
0.000365976
0.000400412
0.000425374
0.000422525
0.000398314
0.000368453
0.000336441
0.000294527
0.000235241
0.000164982
9.67136e-05
5.13484e-05
3.45874e-05
4.67342e-05
8.11248e-05
0.000124203
0.00015674
0.000161442
0.000142219
0.000127355
0.000137493
0.000161776
0.000176345
0.00017384
0.000164883
0.000158248
0.000152586
0.000140976
0.000121873
0.000105518
0.000107294
0.000137018
0.000191607
0.000252313
0.000296096
0.000315025
0.000318408
0.000318838
0.000323155
0.00033625
0.000360515
0.000394397
0.000423083
0.000425175
0.000404079
0.000375655
0.000343703
0.000300166
0.000237876
0.000164253
9.1968e-05
4.44206e-05
2.63202e-05
3.78398e-05
7.2366e-05
0.000116794
0.000151641
0.000158099
0.000138773
0.000122192
0.000130691
0.000154409
0.000169083
0.000166904
0.000159006
0.00015458
0.000151479
0.0001412
0.000121586
0.000103931
0.000104907
0.000134586
0.000190275
0.000253309
0.000299058
0.000318107
0.000320361
0.000319838
0.000324417
0.000337232
0.000358661
0.000389613
0.000420005
0.000427159
0.0004106
0.000385313
0.000354032
0.00030824
0.000241571
0.000163257
8.70667e-05
3.65143e-05
1.67907e-05
2.66511e-05
6.02744e-05
0.000105643
0.000143482
0.000152995
0.000134857
0.000117203
0.000123629
0.0001454
0.000158835
0.000156399
0.000149937
0.000148711
0.000149397
0.000141412
0.000121477
0.000101715
0.000100085
0.00012712
0.000181595
0.000246473
0.000296147
0.000318158
0.000320905
0.000319194
0.000324291
0.000340074
0.000361278
0.000388019
0.000416743
0.000427347
0.000416381
0.000397031
0.000368873
0.000320693
0.00024802
0.000163252
8.37696e-05
2.92118e-05
7.42923e-06
1.46884e-05
4.56607e-05
9.01162e-05
0.000130492
0.000144187
0.000129254
0.000112731
0.000117674
0.00013699
0.000148355
0.000144812
0.000138825
0.000141411
0.000146959
0.000142112
0.000122007
9.91165e-05
9.23976e-05
0.000113213
0.000163396
0.000228813
0.000282763
0.000309431
0.000314964
0.000313972
0.000318696
0.000336606
0.000361141
0.000387105
0.000413525
0.000425087
0.000419367
0.00040896
0.000388732
0.000340116
0.000260057
0.00016641
8.41203e-05
2.47555e-05
2.66218e-07
4.87442e-06
3.23146e-05
7.40046e-05
0.000114483
0.000131056
0.000119492
0.000104427
0.000108305
0.000124763
0.00013397
0.000131164
0.000128133
0.000134197
0.000144705
0.000143275
0.00012295
9.60305e-05
8.18194e-05
9.29222e-05
0.000136272
0.000201802
0.000260743
0.000292343
0.000301015
0.000302289
0.000308167
0.000325169
0.000348887
0.000374779
0.000403336
0.000418719
0.000417883
0.00041815
0.000411287
0.000367693
0.000281031
0.000175792
9.13414e-05
2.48964e-05
-2.5129e-06
-3.88653e-07
2.36323e-05
6.16417e-05
0.00010031
0.000117235
0.000106705
9.1631e-05
9.37992e-05
0.000106159
0.000111662
0.00010926
0.000110602
0.000123725
0.000140827
0.000143423
0.000123371
9.31768e-05
7.19221e-05
7.2006e-05
0.000105888
0.000169873
0.000234268
0.000271747
0.000282303
0.000284453
0.000292015
0.000309741
0.000330266
0.000350612
0.000379618
0.000402663
0.000410388
0.000421615
0.000431401
0.000400316
0.000312239
0.000195213
0.000110178
3.22281e-05
-1.4997e-06
-1.74552e-06
2.12079e-05
5.88063e-05
9.50522e-05
0.000108896
9.55866e-05
7.84396e-05
7.79477e-05
8.68057e-05
8.98607e-05
8.74039e-05
9.10041e-05
0.000108425
0.000132536
0.000140747
0.000122604
9.21927e-05
6.89909e-05
6.22605e-05
8.55243e-05
0.000143811
0.000210702
0.000254947
0.000267358
0.000266961
0.000273054
0.000292168
0.000312897
0.000326213
0.000348184
0.000376865
0.000395963
0.000418457
0.000444151
0.000429998
0.000350171
0.00022697
0.000142113
5.1451e-05
6.29267e-06
-1.30293e-06
2.02282e-05
6.13508e-05