/*--------------------------------*- C++ -*----------------------------------*\
| =========                 |                                                 |
| \\      /  F ield         | OpenFOAM: The Open Source CFD Toolbox           |
|  \\    /   O peration     | Version:  2306                                  |
|   \\  /    A nd           | Website:  www.openfoam.com                      |
|    \\/     M anipulation  |                                                 |
\*---------------------------------------------------------------------------*/
FoamFile
{
    version     2.0;
    format      ascii;
    arch        "LSB;label=32;scalar=64";
    class       volVectorField;
    location    "3";
    object      UMean;
}
// * * * * * * * * * * * * * * * * * * * * * * * * * * * * * * * * * * * * * //

dimensions      [0 1 -1 0 0 0 0];

internalField   nonuniform List<vector> 
60000
(
(0.0104294 1.8289e-05 0.00248371)
(0.0103723 -3.04467e-06 0.00233821)
(0.0102228 -1.37401e-05 0.00210035)
(0.0100612 -1.45206e-05 0.00190364)
(0.00989131 -1.18742e-05 0.0017355)
(0.00960857 -1.0266e-05 0.00151675)
(0.00911237 -9.66626e-06 0.00125899)
(0.0083663 -1.00724e-05 0.0010633)
(0.00746335 -1.23012e-05 0.00100423)
(0.00662513 -1.68289e-05 0.0010697)
(0.006052 -2.11975e-05 0.00117715)
(0.00581045 -2.24986e-05 0.00121465)
(0.00581568 -2.27537e-05 0.00110089)
(0.00592934 -2.09921e-05 0.000837225)
(0.00606555 -1.40769e-05 0.000521028)
(0.00619836 -3.17835e-06 0.000241559)
(0.00637745 8.61545e-06 1.44094e-05)
(0.00665146 1.64497e-05 -0.000198916)
(0.00699451 1.96755e-05 -0.000451553)
(0.00737065 1.91903e-05 -0.000786696)
(0.00780068 1.57941e-05 -0.0012172)
(0.00830326 8.95508e-06 -0.00169153)
(0.00882707 1.9619e-06 -0.00211728)
(0.00923048 -2.39e-06 -0.00240224)
(0.00932206 -4.45238e-06 -0.0024966)
(0.00900034 -2.96358e-06 -0.00244038)
(0.00835945 -2.61284e-07 -0.00232989)
(0.0076061 5.77509e-08 -0.00221782)
(0.00692785 -2.21808e-06 -0.00212266)
(0.00645995 -3.60749e-06 -0.00206521)
(0.00627742 3.09926e-07 -0.00198392)
(0.00637284 7.85793e-06 -0.00171994)
(0.00669603 1.85359e-05 -0.00118396)
(0.00718137 3.09789e-05 -0.000492217)
(0.00776125 4.39582e-05 0.000144391)
(0.00838295 5.1825e-05 0.000635935)
(0.00900517 5.58848e-05 0.0010541)
(0.00958058 5.66059e-05 0.00151322)
(0.0100413 5.34039e-05 0.00201049)
(0.0103286 4.06172e-05 0.00238082)
(0.0320901 1.11295e-05 0.00636908)
(0.0320145 -9.57718e-05 0.00587512)
(0.0315194 -0.000143049 0.0052486)
(0.0309347 -0.000134823 0.00484495)
(0.0303492 -9.56392e-05 0.00457629)
(0.0294662 -4.97715e-05 0.00413764)
(0.027989 -1.62368e-05 0.0035013)
(0.0258434 -1.44507e-05 0.00295837)
(0.0232983 -6.03914e-05 0.00277038)
(0.0208905 -0.000141785 0.00293667)
(0.0190947 -0.000213773 0.00320312)
(0.0181127 -0.000244077 0.00322196)
(0.0177945 -0.000234977 0.00281515)
(0.0178332 -0.000190462 0.00209362)
(0.0180434 -0.000115502 0.00132948)
(0.0183757 -3.29567e-05 0.000676897)
(0.0189382 2.85531e-05 0.000118684)
(0.0198195 5.61327e-05 -0.000453152)
(0.0209463 5.6747e-05 -0.00116411)
(0.0222416 3.38487e-05 -0.002112)
(0.0237444 -7.43761e-06 -0.00331321)
(0.0254304 -5.05367e-05 -0.00462306)
(0.0270919 -7.16041e-05 -0.00577279)
(0.0283394 -6.23123e-05 -0.00648643)
(0.0286841 -3.7489e-05 -0.00662432)
(0.0278602 -1.7178e-05 -0.00632787)
(0.0261023 -1.90113e-05 -0.00591344)
(0.0239281 -4.78211e-05 -0.00558688)
(0.0218206 -9.21722e-05 -0.00542642)
(0.0201583 -0.000119994 -0.00541962)
(0.0192503 -9.82997e-05 -0.00528803)
(0.0192332 -2.82755e-05 -0.00456116)
(0.0200302 7.32254e-05 -0.00306574)
(0.0214117 0.000184738 -0.00119567)
(0.0231338 0.000283391 0.000503602)
(0.0250263 0.000336657 0.00185373)
(0.0269553 0.000340434 0.00303066)
(0.0287992 0.000305729 0.00425566)
(0.0303946 0.000242364 0.00547213)
(0.0315427 0.000140745 0.00627568)
(0.0548585 -0.000115753 0.00945018)
(0.0548639 -0.000333969 0.00866314)
(0.0539776 -0.000413292 0.00761537)
(0.0528657 -0.000374522 0.00698463)
(0.0518347 -0.000271562 0.0067502)
(0.0504817 -0.000154357 0.00635287)
(0.0483256 -6.82556e-05 0.00553507)
(0.045178 -6.06432e-05 0.00464966)
(0.0412744 -0.000169562 0.00420625)
(0.0372425 -0.000364045 0.00436764)
(0.03382 -0.00053583 0.00479756)
(0.0315435 -0.000609795 0.00488768)
(0.0304109 -0.000585487 0.00430517)
(0.0300195 -0.000471205 0.00326369)
(0.0300723 -0.000288063 0.00220922)
(0.0304759 -9.39239e-05 0.00134192)
(0.0313613 3.74585e-05 0.00060203)
(0.0328298 8.07813e-05 -0.000174281)
(0.0347672 5.81006e-05 -0.00117055)
(0.03706 -2.39777e-05 -0.00254418)
(0.0397595 -0.000148701 -0.00435653)
(0.0427858 -0.000260684 -0.00643988)
(0.0457819 -0.000304127 -0.0083845)
(0.0481636 -0.000269754 -0.00968358)
(0.0491912 -0.000196858 -0.0100002)
(0.0483682 -0.000138023 -0.00947922)
(0.0459 -0.000131439 -0.00865678)
(0.0424757 -0.000183685 -0.00799535)
(0.0388211 -0.000271928 -0.00774688)
(0.035548 -0.00032708 -0.00794455)
(0.0332635 -0.000277522 -0.00812126)
(0.0324361 -0.000115447 -0.00741161)
(0.0331897 0.000124181 -0.00538386)
(0.0352308 0.000391843 -0.00258441)
(0.0380771 0.000626088 9.41645e-05)
(0.0413529 0.000752617 0.00228946)
(0.0447922 0.000748307 0.00419601)
(0.0481939 0.000634754 0.00611326)
(0.0512699 0.000444228 0.0079938)
(0.0536168 0.000181432 0.0092695)
(0.077861 -0.000376675 0.0117386)
(0.0781086 -0.000703799 0.0109463)
(0.0768376 -0.000797592 0.00944724)
(0.0751199 -0.000708165 0.00836329)
(0.0736514 -0.000522031 0.00809514)
(0.0720671 -0.000311656 0.00798875)
(0.0697269 -0.000146693 0.00732073)
(0.0662535 -0.000103684 0.00619101)
(0.0616141 -0.000255407 0.00532303)
(0.0561654 -0.000571503 0.00528751)
(0.0507437 -0.000885143 0.00589597)
(0.0464355 -0.00105405 0.00626414)
(0.0437399 -0.00104889 0.00571655)
(0.0423616 -0.000872622 0.0044747)
(0.0418846 -0.000568878 0.00323198)
(0.0420958 -0.000243723 0.00231091)
(0.0430875 -2.88353e-05 0.00161608)
(0.044944 2.19218e-05 0.000920407)
(0.047524 -5.51376e-05 -2.16276e-05)
(0.0506997 -0.000246448 -0.00144997)
(0.054568 -0.000516841 -0.00354885)
(0.0590293 -0.000747685 -0.00626471)
(0.0636031 -0.000822524 -0.00916303)
(0.0675595 -0.000730982 -0.0114843)
(0.069943 -0.000554733 -0.0124992)
(0.0699397 -0.000396584 -0.0120996)
(0.0675205 -0.000336148 -0.0109204)
(0.063363 -0.000384932 -0.00974474)
(0.0583583 -0.000503122 -0.00915534)
(0.0532818 -0.000590225 -0.00945665)
(0.048965 -0.000541558 -0.0102338)
(0.0462951 -0.000329327 -0.0102529)
(0.0459293 2.01368e-05 -0.00852238)
(0.0479058 0.000449284 -0.00537241)
(0.0516123 0.000853423 -0.00195319)
(0.0563245 0.00108736 0.00104113)
(0.061482 0.00109332 0.00368289)
(0.0667558 0.000891233 0.00631256)
(0.0716929 0.000551449 0.00897601)
(0.0756243 0.000103729 0.0110421)
(0.0994594 -0.000776403 0.012628)
(0.100225 -0.00116997 0.0126303)
(0.0986589 -0.00124923 0.0110446)
(0.0963147 -0.00108598 0.00929079)
(0.09446 -0.000804629 0.00861503)
(0.0929214 -0.000500201 0.00881957)
(0.0909398 -0.000250649 0.00871829)
(0.0879463 -0.000142411 0.00768128)
(0.0835595 -0.000275 0.00631025)
(0.077515 -0.00065387 0.0057548)
(0.0702561 -0.00111011 0.00641567)
(0.0633454 -0.00144151 0.00728781)
(0.0581732 -0.00154087 0.00707899)
(0.054978 -0.00136457 0.00574297)
(0.0533795 -0.000970748 0.0042948)
(0.0529543 -0.000523056 0.00339297)
(0.0536203 -0.000222664 0.00297288)
(0.0553759 -0.000172969 0.00271998)
(0.0580386 -0.000343383 0.00231526)
(0.0615062 -0.00072352 0.0014373)
(0.0660466 -0.00126168 -0.000282175)
(0.0717384 -0.0017359 -0.00311099)
(0.078086 -0.00188655 -0.00687771)
(0.08421 -0.00166326 -0.0107239)
(0.088894 -0.00123975 -0.0133632)
(0.0908657 -0.000852106 -0.013996)
(0.0896401 -0.000652622 -0.0129879)
(0.0856865 -0.00064413 -0.0113565)
(0.0800171 -0.00074954 -0.010109)
(0.073559 -0.00083762 -0.0100498)
(0.067191 -0.000799907 -0.0112225)
(0.0619584 -0.000614556 -0.0123903)
(0.0590565 -0.00028712 -0.0119502)
(0.0593457 0.000173563 -0.00955176)
(0.0627408 0.000676277 -0.0061807)
(0.0683972 0.00100735 -0.00279467)
(0.0752459 0.00104753 0.00043685)
(0.0826117 0.000808964 0.00377301)
(0.0897852 0.000387001 0.00735724)
(0.0957798 -0.000172081 0.0106473)
(0.116834 -0.00145859 0.0103744)
(0.118844 -0.00172302 0.012596)
(0.117239 -0.00172187 0.0122535)
(0.11433 -0.00147345 0.0102522)
(0.112221 -0.00107987 0.00870864)
(0.111061 -0.000679749 0.00875545)
(0.109906 -0.000370454 0.00942783)
(0.108055 -0.00019706 0.00908749)
(0.105009 -0.000239431 0.00746543)
(0.0998483 -0.000558698 0.0060431)
(0.0920045 -0.00106062 0.00631075)
(0.0827759 -0.0015764 0.00772291)
(0.0744655 -0.00189643 0.00825543)
(0.0684161 -0.00184384 0.00707004)
(0.0648148 -0.00144152 0.00531963)
(0.0631437 -0.000908456 0.00427104)
(0.0629476 -0.000533289 0.00411615)
(0.063936 -0.000487995 0.00446914)
(0.0657612 -0.000788458 0.00493256)
(0.0682695 -0.00147263 0.00517209)
(0.0719674 -0.00249016 0.00472004)
(0.0775233 -0.00346951 0.00293296)
(0.0849634 -0.00392086 -0.00063525)
(0.0936321 -0.00363149 -0.00565154)
(0.102023 -0.00276021 -0.0106684)
(0.107856 -0.00178103 -0.0138146)
(0.109564 -0.00116497 -0.0143481)
(0.107181 -0.000986412 -0.0130256)
(0.101934 -0.00102782 -0.0112136)
(0.0951097 -0.00104427 -0.0102987)
(0.0876992 -0.000946548 -0.0111087)
(0.0804997 -0.000784121 -0.0130034)
(0.0746129 -0.000594055 -0.0142619)
(0.0715337 -0.00032468 -0.0137884)
(0.0722775 3.99022e-06 -0.0118591)
(0.0768504 0.00023029 -0.009211)
(0.0840723 0.000220594 -0.0061351)
(0.0928069 -6.4613e-05 -0.00255932)
(0.102117 -0.000506495 0.00167642)
(0.110752 -0.00099474 0.00630285)
(0.125333 -0.00294428 0.0033437)
(0.130413 -0.00262118 0.00870402)
(0.1298 -0.00218689 0.0116284)
(0.126299 -0.00185246 0.011177)
(0.124069 -0.00141562 0.00907991)
(0.123859 -0.000871354 0.00817672)
(0.12406 -0.000474423 0.00912994)
(0.123602 -0.000308986 0.0100071)
(0.122522 -0.000272592 0.00890235)
(0.119872 -0.0003625 0.00663001)
(0.113824 -0.000699234 0.00582816)
(0.104255 -0.00128205 0.00732335)
(0.0933554 -0.00187394 0.00886965)
(0.0837171 -0.00209751 0.00836153)
(0.076969 -0.0018293 0.00645331)
(0.0732372 -0.00129288 0.0049847)
(0.0717722 -0.000857724 0.0047089)
(0.0717192 -0.000793717 0.00529392)
(0.0723248 -0.00122417 0.00625767)
(0.0731784 -0.00231591 0.00738775)
(0.0747512 -0.00404873 0.0084481)
(0.0782566 -0.00580331 0.00869034)
(0.0844825 -0.00676867 0.00704205)
(0.0934864 -0.00660977 0.00290833)
(0.104711 -0.00543607 -0.0031417)
(0.11572 -0.00371134 -0.00917496)
(0.122778 -0.00227019 -0.0129729)
(0.123988 -0.00161139 -0.0137438)
(0.120562 -0.00147491 -0.0124437)
(0.114647 -0.00130696 -0.0108216)
(0.10779 -0.000947493 -0.010537)
(0.10058 -0.000663105 -0.0120265)
(0.0933501 -0.000574784 -0.0142382)
(0.0872044 -0.000588602 -0.0159651)
(0.0838699 -0.000728589 -0.0167108)
(0.0847881 -0.00101137 -0.0162825)
(0.0897296 -0.00135961 -0.0145353)
(0.0973041 -0.00183629 -0.0115978)
(0.106312 -0.00239583 -0.00759595)
(0.116188 -0.00284581 -0.00252917)
(0.125389 -0.00541918 -0.0054507)
(0.133428 -0.00430512 0.00180725)
(0.13573 -0.00280771 0.00790397)
(0.132121 -0.00200504 0.0106017)
(0.128465 -0.00174917 0.00960787)
(0.128892 -0.00128375 0.00774658)
(0.131406 -0.000669091 0.00785683)
(0.132424 -0.000408398 0.00951705)
(0.131991 -0.00052748 0.00989053)
(0.132072 -0.000554013 0.00766198)
(0.130702 -0.000408976 0.0055112)
(0.124779 -0.000609806 0.00622136)
(0.114324 -0.00127836 0.00850376)
(0.101974 -0.00184587 0.00920323)
(0.0912152 -0.0018962 0.00776508)
(0.0842226 -0.0015276 0.00602105)
(0.0809756 -0.00111136 0.00528807)
(0.0801628 -0.000997227 0.00548453)
(0.0803768 -0.00145808 0.00616416)
(0.0807179 -0.00283762 0.00731441)
(0.0810145 -0.00522474 0.00916022)
(0.0820908 -0.00782937 0.0113314)
(0.0853332 -0.00946836 0.012369)
(0.0918233 -0.00963779 0.0106902)
(0.102097 -0.0084391 0.0058949)
(0.115083 -0.00625487 -0.000934367)
(0.126513 -0.00400752 -0.00745554)
(0.131662 -0.00265104 -0.0114074)
(0.12998 -0.00221067 -0.0122235)
(0.124933 -0.00192441 -0.0110508)
(0.120234 -0.0013165 -0.00971134)
(0.116406 -0.000576833 -0.00979171)
(0.111719 -0.000132762 -0.0116231)
(0.105614 -0.000135889 -0.0146132)
(0.0996392 -0.000737021 -0.0180937)
(0.0963017 -0.00188352 -0.02094)
(0.0971198 -0.0030317 -0.0217747)
(0.101619 -0.00393314 -0.0202001)
(0.108139 -0.00473088 -0.0167529)
(0.116002 -0.00541676 -0.0118527)
(0.124936 -0.00811651 -0.0117817)
(0.133005 -0.00674215 -0.00408164)
(0.138035 -0.00406204 0.00321716)
(0.13659 -0.0020564 0.0079592)
(0.131352 -0.00169783 0.00876376)
(0.129386 -0.00177306 0.00701139)
(0.13269 -0.00118977 0.00600097)
(0.136456 -0.000509339 0.00720713)
(0.136313 -0.000663131 0.00877922)
(0.13451 -0.00130955 0.00795864)
(0.135424 -0.00130565 0.00542583)
(0.136723 -0.0007594 0.00491551)
(0.132856 -0.000629952 0.00717334)
(0.122318 -0.00100555 0.0090959)
(0.108873 -0.00133155 0.00881572)
(0.097673 -0.00134994 0.00750158)
(0.0913842 -0.00122663 0.00661408)
(0.0895095 -0.00121721 0.00630187)
(0.0900752 -0.00165036 0.00626909)
(0.0912473 -0.00303138 0.00675977)
(0.0918668 -0.0056416 0.00838483)
(0.0917881 -0.00877008 0.0112844)
(0.0922237 -0.0110619 0.0142345)
(0.0950352 -0.0117939 0.0151219)
(0.101918 -0.010958 0.0124653)
(0.113116 -0.0087754 0.00638987)
(0.125188 -0.00592506 -0.00119778)
(0.131738 -0.0035923 -0.00727607)
(0.129383 -0.00238086 -0.00983872)
(0.121552 -0.00192669 -0.00909314)
(0.115469 -0.00157935 -0.00689079)
(0.115319 -0.00096735 -0.00538768)
(0.118292 -0.000113566 -0.00605738)
(0.119024 0.000561403 -0.00931392)
(0.115864 0.000215417 -0.0146365)
(0.111275 -0.00155165 -0.0205136)
(0.108438 -0.00381146 -0.0246417)
(0.109056 -0.00553077 -0.0254443)
(0.112684 -0.00671018 -0.0230203)
(0.117955 -0.00773426 -0.0183012)
(0.126796 -0.0101449 -0.0156322)
(0.133132 -0.00926906 -0.00816189)
(0.139114 -0.00611347 -0.000980796)
(0.140825 -0.00273783 0.00435031)
(0.136843 -0.00138608 0.00647472)
(0.131843 -0.0017917 0.00551838)
(0.131838 -0.00192032 0.00397499)
(0.136521 -0.00103072 0.00430159)
(0.139795 -0.000482796 0.00615739)
(0.138094 -0.00143818 0.00691899)
(0.13553 -0.00285629 0.00539591)
(0.13768 -0.00299568 0.00422055)
(0.141467 -0.00190359 0.0057315)
(0.138988 -0.000790684 0.00815391)
(0.128219 -0.000341674 0.00903463)
(0.114623 -0.000448241 0.00866133)
(0.104398 -0.000848324 0.0083355)
(0.0998842 -0.00138524 0.00819918)
(0.100002 -0.00208697 0.00777097)
(0.102333 -0.00338744 0.00725747)
(0.104336 -0.00580023 0.00766349)
(0.104393 -0.00891539 0.00995092)
(0.103053 -0.0115009 0.013555)
(0.102634 -0.0127329 0.0161955)
(0.105525 -0.0124618 0.0156089)
(0.112852 -0.0106962 0.0109073)
(0.122504 -0.00761639 0.00324962)
(0.128589 -0.00423471 -0.00401774)
(0.126367 -0.00170094 -0.00768238)
(0.117142 -0.000658798 -0.00686239)
(0.108466 -0.000889338 -0.00329415)
(0.107203 -0.00128579 0.000214276)
(0.113257 -0.000714722 0.00136864)
(0.120984 0.000693448 -0.00110557)
(0.124992 0.00132973 -0.00713043)
(0.124382 -0.00014343 -0.0150196)
(0.121586 -0.00309319 -0.0220404)
(0.119361 -0.00581443 -0.0258256)
(0.11957 -0.00767826 -0.0255287)
(0.122196 -0.00915958 -0.0217982)
(0.129772 -0.0110386 -0.0181599)
(0.134315 -0.0111799 -0.0112763)
(0.139777 -0.00858927 -0.00463443)
(0.143374 -0.00454773 0.000456697)
(0.142445 -0.00174325 0.00335373)
(0.137474 -0.00141722 0.00361227)
(0.133432 -0.00208729 0.00240382)
(0.134545 -0.00186616 0.00206707)
(0.139427 -0.00090319 0.00352778)
(0.142283 -0.00105187 0.00519838)
(0.140566 -0.00297257 0.00513941)
(0.138992 -0.00496206 0.00423688)
(0.142151 -0.00492737 0.00500556)
(0.145938 -0.00278279 0.00720526)
(0.142852 -0.000320265 0.0086266)
(0.132221 0.000838274 0.00890642)
(0.120186 0.000465847 0.00923694)
(0.112208 -0.000871656 0.0098345)
(0.110011 -0.00255523 0.00975768)
(0.112491 -0.00432734 0.00854734)
(0.116385 -0.00643048 0.00721632)
(0.118016 -0.00890405 0.00778157)
(0.116177 -0.0111162 0.0109751)
(0.113066 -0.0124465 0.0147097)
(0.111868 -0.0126038 0.0160129)
(0.114518 -0.0113294 0.0131599)
(0.12032 -0.00840565 0.00643654)
(0.125224 -0.00445469 -0.00126273)
(0.124524 -0.000791479 -0.0060971)
(0.117637 0.00114747 -0.00614561)
(0.109243 0.000750208 -0.00226688)
(0.105716 -0.000771935 0.00275157)
(0.109485 -0.00121884 0.00599201)
(0.117995 0.000241819 0.00560116)
(0.126489 0.0018882 0.000948282)
(0.13146 0.00142987 -0.00695615)
(0.13254 -0.00132107 -0.0155899)
(0.130839 -0.00455986 -0.0221666)
(0.128491 -0.00713246 -0.0248247)
(0.127749 -0.00926142 -0.0232049)
(0.134174 -0.010659 -0.019725)
(0.136965 -0.0120019 -0.0138954)
(0.141274 -0.0106778 -0.00777033)
(0.144549 -0.00705905 -0.00297268)
(0.145118 -0.00335265 0.000286186)
(0.142192 -0.00157221 0.00173536)
(0.137297 -0.00170077 0.00145428)
(0.134595 -0.00216146 0.00100181)
(0.136943 -0.00192381 0.00187512)
(0.142011 -0.00176746 0.00364006)
(0.14429 -0.00308206 0.00449581)
(0.142913 -0.00552255 0.00411267)
(0.14255 -0.00691049 0.00438315)
(0.145655 -0.00553985 0.00609594)
(0.147954 -0.0020574 0.0076946)
(0.144051 0.00112408 0.00831713)
(0.134775 0.00212437 0.00887411)
(0.125399 0.000788496 0.00974651)
(0.120237 -0.00204402 0.00981784)
(0.12113 -0.0051896 0.00809271)
(0.126242 -0.00762111 0.00532729)
(0.130539 -0.00925362 0.00419142)
(0.130172 -0.0104299 0.00665238)
(0.125769 -0.0112228 0.0111366)
(0.120841 -0.0113648 0.0142348)
(0.118569 -0.0103959 0.013658)
(0.119969 -0.00796421 0.0088632)
(0.123048 -0.00418642 0.00158241)
(0.123915 -8.64792e-05 -0.00453932)
(0.120473 0.00254722 -0.006533)
(0.114864 0.00245016 -0.00415312)
(0.111222 0.000454031 0.000522073)
(0.111978 -0.000919624 0.0048771)
(0.11724 -0.000100749 0.00690496)
(0.125257 0.00177052 0.00525945)
(0.133232 0.00226704 -0.000301834)
(0.13888 0.000378292 -0.00829735)
(0.14056 -0.00252436 -0.0162413)
(0.138248 -0.00528838 -0.0216067)
(0.134942 -0.00801586 -0.0227895)
(0.140377 -0.00945272 -0.0200233)
(0.14152 -0.0119678 -0.015785)
(0.144265 -0.0119211 -0.010453)
(0.145743 -0.009303 -0.00586698)
(0.145355 -0.00553575 -0.00217892)
(0.143552 -0.00250858 0.000412972)
(0.140379 -0.00134709 0.00126688)
(0.137201 -0.00176983 0.00101034)
(0.137127 -0.00258313 0.00132731)
(0.140888 -0.00317328 0.00277097)
(0.144721 -0.00414919 0.00400314)
(0.145014 -0.00608501 0.00385444)
(0.143442 -0.00784251 0.00344587)
(0.143553 -0.00748516 0.00430374)
(0.145223 -0.00433521 0.00603762)
(0.144724 -1.01139e-05 0.00742015)
(0.139851 0.00286939 0.00822008)
(0.132733 0.00280613 0.0083951)
(0.127188 -0.000141286 0.0071174)
(0.126377 -0.00457905 0.00404459)
(0.131209 -0.00814377 0.00036754)
(0.137974 -0.00964813 -0.00130884)
(0.140997 -0.00974801 0.00116314)
(0.137817 -0.00953697 0.00654595)
(0.130814 -0.00921512 0.0112167)
(0.124472 -0.00813194 0.0126871)
(0.121845 -0.00596715 0.0102146)
(0.122691 -0.00273661 0.00438043)
(0.124179 0.000990425 -0.00239474)
(0.123586 0.0036973 -0.0068191)
(0.121131 0.00379221 -0.00714865)
(0.119123 0.00174437 -0.00429748)
(0.118896 -6.76028e-05 -0.000409744)
(0.120856 7.40495e-06 0.00280258)
(0.125602 0.00124001 0.00395817)
(0.132997 0.00172242 0.00183492)
(0.141097 0.000673976 -0.00364187)
(0.14637 -0.00102193 -0.0109592)
(0.146265 -0.00297416 -0.0175141)
(0.142712 -0.00589644 -0.0208793)
(0.147838 -0.00772596 -0.0193473)
(0.147676 -0.0109387 -0.0168245)
(0.148365 -0.0117391 -0.0127863)
(0.147628 -0.0101137 -0.00873839)
(0.145282 -0.0070575 -0.00460008)
(0.142904 -0.00372175 -0.000667795)
(0.141044 -0.00144643 0.00149812)
(0.139436 -0.00112157 0.00162374)
(0.139263 -0.00241498 0.00151808)
(0.141755 -0.00392549 0.00263616)
(0.145258 -0.00496718 0.00405986)
(0.14639 -0.00611648 0.00396867)
(0.144076 -0.00751283 0.0027413)
(0.140525 -0.00776955 0.00260343)
(0.137674 -0.00563404 0.00448023)
(0.135314 -0.0016976 0.00702537)
(0.132737 0.00192576 0.00825201)
(0.13041 0.00332671 0.00689963)
(0.129036 0.00158992 0.00305135)
(0.129214 -0.00285799 -0.00158811)
(0.13271 -0.00771535 -0.00484928)
(0.139624 -0.0101491 -0.00535752)
(0.145592 -0.00977569 -0.0023593)
(0.145622 -0.00827146 0.00325345)
(0.13903 -0.00690236 0.00858797)
(0.130324 -0.00531079 0.0112669)
(0.124906 -0.00309197 0.0105665)
(0.124451 -0.00044432 0.00644838)
(0.12677 0.00232494 2.00731e-05)
(0.128559 0.00433229 -0.00603861)
(0.12877 0.00428271 -0.00916735)
(0.128644 0.00245508 -0.00899997)
(0.128936 0.000890429 -0.00681253)
(0.129556 0.000687167 -0.00378786)
(0.13131 0.000868068 -0.00100301)
(0.135714 0.000222545 -0.000168103)
(0.142618 -0.000836612 -0.00261653)
(0.149018 -0.00123332 -0.00800872)
(0.151494 -0.00159007 -0.0142278)
(0.14994 -0.00383404 -0.0185553)
(0.154673 -0.00550963 -0.0175491)
(0.154268 -0.00866591 -0.0166685)
(0.15364 -0.00996678 -0.0141899)
(0.151549 -0.00943006 -0.0110266)
(0.147699 -0.0074957 -0.00693494)
(0.143746 -0.00448605 -0.00213687)
(0.141327 -0.00156683 0.00143439)
(0.14048 -0.000394598 0.0025398)
(0.141027 -0.00158011 0.00250716)
(0.143178 -0.00375702 0.00326673)
(0.145961 -0.00511516 0.00450977)
(0.146921 -0.00554587 0.00431386)
(0.144014 -0.00588685 0.00239919)
(0.137789 -0.00597979 0.000924459)
(0.131021 -0.00484917 0.00167623)
(0.126347 -0.00230118 0.00371857)
(0.125042 0.000602694 0.00447156)
(0.126835 0.00245537 0.00231717)
(0.130092 0.00209255 -0.00190581)
(0.13288 -0.00123538 -0.00553328)
(0.13578 -0.00658013 -0.00643017)
(0.140953 -0.0106459 -0.00460375)
(0.146832 -0.0110371 -0.000870215)
(0.14866 -0.00864815 0.00403892)
(0.14368 -0.00570493 0.00849988)
(0.134725 -0.0031062 0.0107726)
(0.12779 -0.000651889 0.0103355)
(0.125975 0.00158234 0.00725103)
(0.127837 0.00334259 0.00207069)
(0.130082 0.00420436 -0.00333921)
(0.131211 0.00354041 -0.00681301)
(0.132202 0.00172788 -0.00794244)
(0.133956 0.000446613 -0.00745077)
(0.136017 0.000446634 -0.00556578)
(0.137751 0.000438054 -0.00269022)
(0.139756 -0.000699202 -0.000704949)
(0.143243 -0.00196569 -0.00171533)
(0.148169 -0.00181363 -0.00591052)
(0.152636 -0.00104694 -0.01141)
(0.154675 -0.00220362 -0.0157764)
(0.158257 -0.00360026 -0.014697)
(0.159395 -0.0059557 -0.0152485)
(0.159159 -0.00733088 -0.0144215)
(0.157159 -0.00769635 -0.012523)
(0.152645 -0.00689661 -0.00925839)
(0.146974 -0.00448478 -0.0044994)
(0.142913 -0.00134727 0.000363024)
(0.141578 0.000441625 0.00334847)
(0.142224 -0.000280863 0.00420614)
(0.143984 -0.00254687 0.00445178)
(0.145896 -0.00427504 0.00495997)
(0.146522 -0.00460273 0.00482125)
(0.144292 -0.00423013 0.00308569)
(0.139005 -0.00368379 0.000511082)
(0.132678 -0.00269051 -0.00119976)
(0.128225 -0.00117958 -0.00144373)
(0.127302 0.00033246 -0.00123261)
(0.129645 0.00136488 -0.00201974)
(0.133923 0.00145422 -0.00421033)
(0.138126 -0.00052183 -0.00625542)
(0.141337 -0.00502851 -0.00611827)
(0.144849 -0.0098768 -0.00349579)
(0.148594 -0.0116302 0.000490505)
(0.14982 -0.009551 0.00485051)
(0.145996 -0.00543224 0.00864544)
(0.138069 -0.00147533 0.0108587)
(0.130491 0.00137184 0.0109292)
(0.126574 0.00320138 0.00871626)
(0.125836 0.00427552 0.00492074)
(0.126064 0.00446327 0.00128248)
(0.126432 0.00329285 -0.000827883)
(0.127986 0.0011259 -0.00176936)
(0.131242 -0.000439375 -0.00222059)
(0.135056 -0.000399169 -0.00142132)
(0.137764 8.18948e-05 0.000810273)
(0.138923 -0.000453623 0.00235299)
(0.140138 -0.0014771 0.000884846)
(0.143465 -0.00161374 -0.00341361)
(0.149096 -0.00104297 -0.00846034)
(0.154784 -0.00148816 -0.0124372)
(0.158054 -0.00188947 -0.0110302)
(0.161953 -0.00331255 -0.0124948)
(0.163716 -0.00441515 -0.0131518)
(0.16268 -0.00521648 -0.0129245)
(0.158047 -0.00520429 -0.0111507)
(0.151101 -0.00351811 -0.0071837)
(0.145209 -0.000667055 -0.0018081)
(0.142624 0.00128835 0.0027698)
(0.142779 0.000895925 0.00495984)
(0.143978 -0.00122318 0.00538103)
(0.144885 -0.00317973 0.00539776)
(0.144639 -0.00373099 0.00511546)
(0.142563 -0.00317623 0.00380523)
(0.138912 -0.00223307 0.00135728)
(0.13535 -0.00115847 -0.00121939)
(0.133567 -0.000120799 -0.00272345)
(0.133839 0.000438124 -0.00278386)
(0.135461 0.000476625 -0.00229885)
(0.138102 0.000423186 -0.00275459)
(0.141072 -0.000315218 -0.0040999)
(0.143371 -0.00304979 -0.00439447)
(0.145605 -0.00723004 -0.00251971)
(0.148303 -0.00992553 0.000757549)
(0.14983 -0.00893879 0.00448067)
(0.147914 -0.00472724 0.00784509)
(0.142182 0.00025004 0.00991633)
(0.135045 0.00373318 0.0103912)
(0.129249 0.0052011 0.00946548)
(0.125637 0.00512375 0.00740886)
(0.12388 0.00400922 0.00505894)
(0.124075 0.00193123 0.00341326)
(0.126505 -0.000750129 0.00250617)
(0.130425 -0.00265129 0.00178315)
(0.134318 -0.00248331 0.00172158)
(0.136937 -0.000853011 0.00291008)
(0.137919 0.000420136 0.00409306)
(0.138388 0.000553858 0.00308404)
(0.140502 0.000194287 -0.000510308)
(0.145462 -8.8546e-05 -0.00496302)
(0.152115 -0.000638175 -0.00858475)
(0.156318 -0.000538693 -0.00786906)
(0.161499 -0.00152406 -0.00981584)
(0.165016 -0.0020962 -0.0111676)
(0.165549 -0.00260166 -0.0120524)
(0.161981 -0.00265171 -0.0119339)
(0.15536 -0.00144213 -0.00968871)
(0.148717 0.000688096 -0.00506371)
(0.144504 0.00207019 0.000334735)
(0.142842 0.00159458 0.00409)
(0.142498 -0.000102014 0.00549337)
(0.142343 -0.00155961 0.00566175)
(0.141806 -0.00199975 0.00534101)
(0.140664 -0.0016312 0.00419374)
(0.139369 -0.00102998 0.00204145)
(0.138899 -0.000561232 -0.00028818)
(0.139543 -0.000461342 -0.00165431)
(0.140332 -0.00092273 -0.00150855)
(0.140197 -0.00156249 -0.000277753)
(0.13963 -0.00147456 0.00080394)
(0.139838 -0.000947877 0.00107888)
(0.141212 -0.00195191 0.00148274)
(0.143728 -0.00516328 0.00288374)
(0.146648 -0.00810763 0.0047041)
(0.14812 -0.00766932 0.00625568)
(0.146521 -0.00351186 0.00755368)
(0.141696 0.00191433 0.00854724)
(0.135265 0.00564614 0.00906023)
(0.129445 0.00658151 0.00883398)
(0.125421 0.00565419 0.00797489)
(0.123415 0.00427986 0.00708293)
(0.123694 0.00274758 0.00658466)
(0.126341 0.000711364 0.00615782)
(0.130278 -0.00122513 0.00542743)
(0.133927 -0.00166802 0.00490025)
(0.13635 -0.000179491 0.00528304)
(0.137575 0.00192106 0.00589718)
(0.138541 0.00307754 0.00508137)
(0.140562 0.0029495 0.00223069)
(0.144552 0.00206353 -0.00165239)
(0.150256 0.000814213 -0.00518144)
(0.154437 -0.000757307 -0.00586539)
(0.159759 -0.00144254 -0.00807764)
(0.163622 -0.00103608 -0.00936607)
(0.165067 -0.000321011 -0.0102903)
(0.163562 0.000214466 -0.0109438)
(0.159815 0.000976164 -0.0104379)
(0.155347 0.00219753 -0.00788955)
(0.151198 0.00295241 -0.00372111)
(0.147509 0.00221471 0.000314913)
(0.144202 0.000420047 0.00285717)
(0.141637 -0.00106199 0.00408835)
(0.140553 -0.001591 0.00468643)
(0.141324 -0.00135945 0.00466458)
(0.143704 -0.000771729 0.00372558)
(0.146855 -0.000294068 0.00219235)
(0.14927 -0.00038859 0.00114139)
(0.149484 -0.00100253 0.00147511)
(0.147034 -0.0014308 0.00323978)
(0.14354 -0.000892201 0.00526142)
(0.141593 0.000336485 0.00572656)
(0.142079 0.000482875 0.00447027)
(0.144203 -0.00172058 0.00330875)
(0.146582 -0.00470604 0.00367753)
(0.147579 -0.00518722 0.00521459)
(0.145967 -0.00174378 0.0066122)
(0.141618 0.00382253 0.00696582)
(0.13596 0.00826149 0.00680898)
(0.131039 0.00959633 0.00676597)
(0.127975 0.00834312 0.00649759)
(0.126783 0.00620719 0.00569185)
(0.127173 0.00425763 0.00480295)
(0.128993 0.00259851 0.00439043)
(0.131777 0.00134906 0.00443791)
(0.134863 0.00100768 0.00471591)
(0.137727 0.00188715 0.00532801)
(0.139777 0.00339837 0.0061814)
(0.140966 0.00439445 0.00625451)
(0.142102 0.00412499 0.00453431)
(0.144511 0.00274652 0.00121656)
(0.14887 0.000891623 -0.00259967)
(0.152835 -0.00283065 -0.00371166)
(0.157497 -0.003751 -0.00639286)
(0.160678 -0.00273851 -0.00778137)
(0.161865 -0.000708913 -0.00835884)
(0.160818 0.00115629 -0.00866899)
(0.158174 0.0025116 -0.00863298)
(0.155364 0.00357168 -0.00775746)
(0.153379 0.00417012 -0.00576662)
(0.151855 0.00365052 -0.00313058)
(0.149785 0.0018452 -0.000705052)
(0.146862 -0.000587912 0.00116388)
(0.144062 -0.00308285 0.0026756)
(0.142985 -0.00537726 0.00386467)
(0.144524 -0.00688323 0.0043905)
(0.148174 -0.00696282 0.00402666)
(0.151932 -0.00566213 0.00311495)
(0.153336 -0.00370198 0.00255915)
(0.151164 -0.00151749 0.00294327)
(0.14668 0.000814379 0.00369856)
(0.142836 0.00285919 0.00328476)
(0.141317 0.00369822 0.00104004)
(0.141874 0.00247253 -0.0014292)
(0.143472 -0.000389321 -0.00191388)
(0.144895 -0.00259749 0.000131357)
(0.145116 -0.00171179 0.00318187)
(0.143725 0.00252259 0.00509014)
(0.141416 0.0077858 0.00507536)
(0.139409 0.0111249 0.00383509)
(0.138222 0.0113786 0.00215756)
(0.137671 0.00947211 0.000581255)
(0.137332 0.00695725 -0.000222079)
(0.13715 0.00474011 0.0002183)
(0.137294 0.00319788 0.00163161)
(0.137689 0.00257627 0.00330962)
(0.138227 0.00280726 0.00479553)
(0.138788 0.00340057 0.00595962)
(0.139447 0.00376153 0.00641585)
(0.140695 0.00336114 0.00556677)
(0.143348 0.00187344 0.0032411)
(0.147672 -0.000504133 -0.000155693)
(0.152655 -0.00372092 -7.2256e-05)
(0.154976 -0.00269113 -0.00412323)
(0.154639 -0.000405501 -0.00680307)
(0.152313 0.00213083 -0.00799768)
(0.149258 0.00387685 -0.00816809)
(0.146724 0.00448171 -0.00784671)
(0.145536 0.00422076 -0.00739451)
(0.145957 0.00349261 -0.00684381)
(0.147724 0.00245702 -0.00594935)
(0.150146 0.00114114 -0.00448045)
(0.152164 -0.000359513 -0.00251905)
(0.152864 -0.00212642 -0.000339706)
(0.152202 -0.00434049 0.00179508)
(0.151007 -0.00673384 0.00380627)
(0.15041 -0.00841434 0.00557982)
(0.150761 -0.00853575 0.00664018)
(0.151143 -0.00682976 0.00649522)
(0.150156 -0.00354092 0.00531156)
(0.147399 0.00030489 0.0036657)
(0.144118 0.00290634 0.00176743)
(0.141826 0.00303665 -0.000393168)
(0.141327 0.00105582 -0.00213907)
(0.142602 -0.00154231 -0.00232593)
(0.144689 -0.00302331 -0.000376154)
(0.146324 -0.00221192 0.00287712)
(0.146936 0.000960759 0.00537643)
(0.146883 0.00528352 0.0053972)
(0.146906 0.00885808 0.00279385)
(0.147153 0.0102571 -0.00122232)
(0.147165 0.00930839 -0.00500679)
(0.146542 0.00694965 -0.00711459)
(0.145354 0.004508 -0.00677997)
(0.143987 0.00305484 -0.00420998)
(0.142699 0.00291493 -0.000350276)
(0.141547 0.0034117 0.00372807)
(0.140595 0.00340139 0.00725367)
(0.140154 0.00228542 0.00952697)
(0.141014 0.000334728 0.00989412)
(0.143904 -0.00174918 0.00806394)
(0.14835 -0.00327993 0.00440404)
(0.156219 -0.000870508 0.00742223)
(0.158381 0.00111346 0.00379972)
(0.159926 0.0037907 -0.000493632)
(0.159898 0.00620027 -0.00460971)
(0.157911 0.00742979 -0.00782616)