/*--------------------------------*- C++ -*----------------------------------*\
| =========                 |                                                 |
| \\      /  F ield         | OpenFOAM: The Open Source CFD Toolbox           |
|  \\    /   O peration     | Version:  2306                                  |
|   \\  /    A nd           | Website:  www.openfoam.com                      |
|    \\/     M anipulation  |                                                 |
\*---------------------------------------------------------------------------*/
FoamFile
{
    version     2.0;
    format      ascii;
    arch        "LSB;label=32;scalar=64";
    class       surfaceScalarField;
    location    "5.5";
    object      phi;
}
// * * * * * * * * * * * * * * * * * * * * * * * * * * * * * * * * * * * * * //

dimensions      [0 3 -1 0 0 0 0];

oriented        oriented;

internalField   nonuniform List<scalar> 
175300
(
5.63534e-06
5.30323e-07
8.4569e-08
6.02211e-06
6.92768e-07
4.03635e-07
6.18485e-06
9.56237e-07
8.6142e-07
6.10561e-06
9.84715e-07
1.43707e-06
5.88298e-06
7.01074e-07
1.97221e-06
5.66725e-06
3.10161e-07
2.24842e-06
5.51651e-06
5.69582e-08
2.19171e-06
5.40091e-06
5.68938e-09
1.88077e-06
5.28725e-06
4.57576e-08
1.47271e-06
5.14097e-06
4.40397e-08
1.16248e-06
4.89115e-06
-6.69051e-09
1.07862e-06
4.48862e-06
-5.53733e-08
1.17033e-06
4.01532e-06
-1.28856e-07
1.29129e-06
3.64153e-06
-2.62415e-07
1.33998e-06
3.47281e-06
-4.32466e-07
1.31239e-06
3.49612e-06
-6.08293e-07
1.21577e-06
3.62514e-06
-7.19863e-07
1.03424e-06
3.74496e-06
-6.36222e-07
7.65443e-07
3.82649e-06
-3.89731e-07
4.34759e-07
3.95986e-06
-1.50777e-07
9.1153e-08
4.17848e-06
4.58473e-08
-1.92381e-07
4.40473e-06
2.67702e-07
-4.1124e-07
4.57869e-06
3.75878e-07
-5.291e-07
4.74163e-06
2.23922e-07
-5.5113e-07
4.94771e-06
-1.92837e-07
-5.8604e-07
5.22412e-06
-6.01297e-07
-8.06382e-07
5.50238e-06
-7.55365e-07
-1.21361e-06
5.63066e-06
-5.88837e-07
-1.57887e-06
5.51994e-06
-2.46594e-07
-1.78535e-06
5.18185e-06
1.49902e-07
-1.98563e-06
4.68692e-06
4.22049e-07
-2.1325e-06
4.21873e-06
3.13434e-07
-2.04034e-06
3.93964e-06
-4.61813e-08
-1.85298e-06
3.83242e-06
-2.35685e-07
-1.79367e-06
3.86344e-06
-1.99726e-07
-1.79183e-06
4.01377e-06
-5.97973e-08
-1.63757e-06
4.22474e-06
1.97142e-07
-1.28841e-06
4.46371e-06
5.03686e-07
-8.74201e-07
4.76539e-06
6.9243e-07
-5.17649e-07
6.27953e-07
-2.21089e-07
1.87064e-05
1.53206e-06
4.6873e-07
1.99505e-05
2.0367e-06
1.60645e-06
2.0636e-05
2.74879e-06
3.09708e-06
2.0626e-05
2.67607e-06
4.75775e-06
2.00467e-05
1.77384e-06
6.07463e-06
1.92982e-05
7.02956e-07
6.59365e-06
1.8693e-05
5.44433e-08
6.30122e-06
1.82619e-05
-6.91344e-08
5.44406e-06
1.78917e-05
3.39856e-08
4.38467e-06
1.74057e-05
4.26101e-08
3.56347e-06
1.65659e-05
-4.76514e-08
3.26903e-06
1.5282e-05
-1.69416e-07
3.42968e-06
1.38267e-05
-4.72284e-07
3.75645e-06
1.266e-05
-1.05122e-06
3.98939e-06
1.20491e-05
-1.77098e-06
3.9968e-06
1.1943e-05
-2.37916e-06
3.70225e-06
1.21002e-05
-2.58035e-06
3.09065e-06
1.22996e-05
-2.11602e-06
2.22955e-06
1.25427e-05
-1.25061e-06
1.26009e-06
1.29907e-05
-4.63127e-07
3.24513e-07
1.36507e-05
1.83759e-07
-4.51157e-07
1.43652e-05
7.8296e-07
-1.02903e-06
1.50733e-05
8.99038e-07
-1.34679e-06
1.58699e-05
5.91085e-08
-1.44133e-06
1.683e-05
-1.49788e-06
-1.63239e-06
1.79018e-05
-2.83879e-06
-2.31765e-06
1.88065e-05
-3.18928e-06
-3.42269e-06
1.91304e-05
-2.40463e-06
-4.40713e-06
1.86639e-05
-1.01693e-06
-5.0288e-06
1.75339e-05
3.93344e-07
-5.50781e-06
1.60794e-05
1.13305e-06
-5.67745e-06
1.4739e-05
6.28089e-07
-5.37618e-06
1.3744e-05
-4.36734e-07
-5.10494e-06
1.31049e-05
-8.90485e-07
-5.19613e-06
1.29194e-05
-7.29521e-07
-5.23313e-06
1.32182e-05
-2.73088e-07
-4.67928e-06
1.38423e-05
5.93989e-07
-3.58373e-06
1.46949e-05
1.59268e-06
-2.38638e-06
1.58213e-05
2.10236e-06
-1.36275e-06
1.79457e-06
-4.55761e-07
3.43727e-05
2.10114e-06
4.99225e-07
3.6848e-05
3.0267e-06
2.54711e-06
3.85262e-05
4.31543e-06
5.1956e-06
3.90108e-05
4.12209e-06
8.05123e-06
3.82192e-05
2.57072e-06
1.02239e-05
3.67521e-05
8.81984e-07
1.10473e-05
3.54047e-05
-7.66348e-08
1.05906e-05
3.44798e-05
-2.59097e-07
9.30751e-06
3.38018e-05
-1.18259e-07
7.72082e-06
3.29994e-05
-9.4905e-08
6.39352e-06
3.16338e-05
-1.7894e-07
5.7087e-06
2.95182e-05
-3.11559e-07
5.66396e-06
2.70063e-05
-8.47093e-07
6.03634e-06
2.47652e-05
-2.03047e-06
6.53082e-06
2.32909e-05
-3.59484e-06
6.77723e-06
2.26414e-05
-4.91923e-06
6.45811e-06
2.25242e-05
-5.31235e-06
5.52787e-06
2.26443e-05
-4.36007e-06
4.16022e-06
2.30024e-05
-2.65916e-06
2.60893e-06
2.37687e-05
-1.10947e-06
1.10471e-06
2.49089e-05
1.84793e-07
-1.89694e-07
2.62177e-05
1.22836e-06
-1.14712e-06
2.76534e-05
1.07006e-06
-1.63796e-06
2.9351e-05
-1.06898e-06
-1.70664e-06
3.13749e-05
-4.59727e-06
-1.89618e-06
3.35654e-05
-7.48638e-06
-2.92707e-06
3.54008e-05
-8.09946e-06
-4.77095e-06
3.61592e-05
-6.16732e-06
-6.57553e-06
3.54792e-05
-2.90452e-06
-7.82703e-06
3.3619e-05
2.47081e-07
-8.65889e-06
3.12199e-05
1.76508e-06
-8.80977e-06
2.89193e-05
7.67543e-07
-8.24684e-06
2.69357e-05
-1.19024e-06
-7.89817e-06
2.52877e-05
-1.95029e-06
-8.27836e-06
2.43263e-05
-1.62877e-06
-8.65529e-06
2.43636e-05
-8.47958e-07
-8.02753e-06
2.52576e-05
7.25383e-07
-6.35172e-06
2.6793e-05
2.61556e-06
-4.40272e-06
2.89325e-05
3.49313e-06
-2.71161e-06
2.76646e-06
-1.1963e-06
5.21314e-05
8.03087e-07
-7.81258e-07
5.63632e-05
2.13538e-06
2.18499e-06
5.97338e-05
4.30816e-06
6.08545e-06
6.1462e-05
4.28221e-06
1.04422e-05
6.09123e-05
2.39752e-06
1.39311e-05
5.8647e-05
5.04727e-07
1.54611e-05
5.61707e-05
-4.26753e-07
1.50567e-05
5.44556e-05
-5.57666e-07
1.34738e-05
5.33985e-05
-4.221e-07
1.15121e-05
5.23876e-05
-4.21734e-07
9.79158e-06
5.07335e-05
-4.71959e-07
8.61118e-06
4.80553e-05
-4.9008e-07
7.98487e-06
4.46003e-05
-1.04533e-06
7.97851e-06
4.10326e-05
-2.65697e-06
8.59967e-06
3.80535e-05
-5.09256e-06
9.34566e-06
3.60952e-05
-7.43375e-06
9.41144e-06
3.51076e-05
-8.45752e-06
8.49459e-06
3.47998e-05
-7.3244e-06
6.85931e-06
3.50985e-05
-4.8409e-06
4.88965e-06
3.61062e-05
-2.39724e-06
2.87415e-06
3.77105e-05
-2.64544e-07
1.0793e-06
3.96534e-05
1.25276e-06
-1.72882e-07
4.18999e-05
5.88749e-07
-7.47452e-07
4.46133e-05
-3.56383e-06
-5.39584e-07
4.78863e-05
-1.01294e-05
-2.97657e-07
5.15379e-05
-1.55964e-05
-1.29707e-06
5.48365e-05
-1.68279e-05
-3.96261e-06
5.665e-05
-1.32227e-05
-7.09606e-06
5.63117e-05
-7.02236e-06
-9.58664e-06
5.41097e-05
-1.05195e-06
-1.12528e-05
5.09621e-05
1.94375e-06
-1.16248e-05
4.77296e-05
6.76251e-07
-1.06845e-05
4.46189e-05
-2.2186e-06
-9.95079e-06
4.15187e-05
-3.30648e-06
-1.05211e-05
3.8947e-05
-2.81065e-06
-1.1599e-05
3.77966e-05
-1.89101e-06
-1.16099e-05
3.83588e-05
7.53329e-08
-9.98252e-06
4.03672e-05
2.7576e-06
-7.59314e-06
4.35581e-05
3.86976e-06
-5.37371e-06
2.43785e-06
-3.357e-06
7.04948e-05
-3.94225e-06
-5.24075e-06
7.7034e-05
-3.43066e-06
-7.31629e-07
8.29851e-05
4.99028e-07
4.20921e-06
8.71541e-05
1.50943e-06
1.04598e-05
8.79243e-05
1.06475e-07
1.61316e-05
8.52311e-05
-1.08778e-06
1.93023e-05
8.12911e-05
-1.25692e-06
1.95168e-05
7.83429e-05
-9.86163e-07
1.77685e-05
7.67562e-05
-8.25306e-07
1.55061e-05
7.56769e-05
-9.30604e-07
1.3663e-05
7.40821e-05
-1.00793e-06
1.22553e-05
7.13195e-05
-8.27963e-07
1.08791e-05
6.73775e-05
-1.05913e-06
9.84163e-06
6.26237e-05
-2.56189e-06
9.98209e-06
5.76466e-05
-5.42679e-06
1.12216e-05
5.33262e-05
-8.77819e-06
1.21861e-05
5.03655e-05
-1.10304e-05
1.18181e-05
4.88558e-05
-1.0554e-05
1.0287e-05
4.86507e-05
-7.8117e-06
8.1947e-06
4.96479e-05
-4.55281e-06
5.88524e-06
5.15454e-05
-1.35996e-06
3.70101e-06
5.39535e-05
8.85388e-07
2.18019e-06
5.67782e-05
-4.30809e-07
1.84828e-06
6.01597e-05
-7.377e-06
2.96523e-06
6.4332e-05
-1.83291e-05
4.59107e-06
6.94776e-05
-2.81422e-05
4.46794e-06
7.50059e-05
-3.13733e-05
1.35957e-06
7.91793e-05
-2.57827e-05
-4.02702e-06
8.0516e-05
-1.52929e-05
-9.03364e-06
7.89989e-05
-4.828e-06
-1.27325e-05
7.57078e-05
9.90226e-07
-1.41418e-05
7.17969e-05
1.88732e-07
-1.29363e-05
6.76627e-05
-3.42188e-06
-1.13296e-05
6.30637e-05
-4.76871e-06
-1.1605e-05
5.83076e-05
-3.97393e-06
-1.33635e-05
5.46964e-05
-3.0149e-06
-1.46287e-05
5.34826e-05
-1.21833e-06
-1.40925e-05
5.49409e-05
1.61483e-06
-1.22077e-05
5.86678e-05
2.52164e-06
-1.01117e-05
-3.46865e-07
-8.06001e-06
8.67216e-05
-1.30593e-05
-1.34638e-05
9.53084e-05
-1.47054e-05
-9.20293e-06
0.000104478
-1.08695e-05
-2.42707e-06
0.00011291
-7.33456e-06
5.40682e-06
0.000117279
-6.67947e-06
1.44434e-05
0.000115663
-5.39956e-06
2.10459e-05
0.000110447
-3.31849e-06
2.33934e-05
0.000105797
-1.82265e-06
2.20102e-05
0.000103426
-1.37693e-06
1.93015e-05
0.000102412
-1.60287e-06
1.74356e-05
0.000101239
-1.85319e-06
1.65216e-05
9.89395e-05
-1.56384e-06
1.49867e-05
9.52767e-05
-1.22123e-06
1.25017e-05
9.01777e-05
-1.92672e-06
1.10431e-05
8.3561e-05
-4.33813e-06
1.2061e-05
7.61651e-05
-8.01846e-06
1.41603e-05
6.96816e-05
-1.15575e-05
1.50131e-05
6.54463e-05
-1.27384e-05
1.40579e-05
6.37239e-05
-1.08714e-05
1.21518e-05
6.41228e-05
-7.33056e-06
9.84421e-06
6.58958e-05
-2.95824e-06
7.52415e-06
6.83268e-05
4.13986e-07
5.95723e-06
7.11279e-05
-1.46439e-06
6.1645e-06
7.42815e-05
-1.18457e-05
8.80647e-06
7.79533e-05
-2.8329e-05
1.26357e-05
8.30225e-05
-4.39544e-05
1.46536e-05
9.05061e-05
-5.13855e-05
1.22818e-05
9.90303e-05
-4.63874e-05
5.57292e-06
0.000105082
-3.09236e-05
-3.59608e-06
0.000106728
-1.35051e-05
-1.15392e-05
0.00010481
-2.45986e-06
-1.5812e-05
0.000100928
-1.26369e-06
-1.52486e-05
9.60966e-05
-4.86563e-06
-1.25421e-05
9.04171e-05
-6.19715e-06
-1.17495e-05
8.38243e-05
-4.83836e-06
-1.35817e-05
7.72757e-05
-3.55043e-06
-1.59961e-05
7.26549e-05
-2.00534e-06
-1.71834e-05
7.14039e-05
3.32438e-07
-1.70631e-05
7.37853e-05
1.1536e-08
-1.65016e-05
-5.73407e-06
-1.56364e-05
0.000100903
-2.41906e-05
-2.38632e-05
0.000108492
-2.96652e-05
-2.11293e-05
0.000118075
-2.68044e-05
-1.56149e-05
0.000130758
-2.3968e-05
-6.91594e-06
0.000142507
-2.21699e-05
5.02193e-06
0.000146265
-1.61162e-05
1.72607e-05
0.000141742
-8.63262e-06
2.48248e-05
0.000135412
-3.99309e-06
2.58325e-05
0.000132015
-2.58736e-06
2.27694e-05
0.0001313
-2.69032e-06
2.02253e-05
0.000130952
-3.07887e-06
2.02499e-05
0.00012951
-2.90242e-06
2.01719e-05
0.000126838
-2.08714e-06
1.70631e-05
0.000122771
-1.60195e-06
1.30196e-05
0.000116239
-2.68961e-06
1.22369e-05
0.000106615
-5.48332e-06
1.48725e-05
9.56424e-05
-9.19919e-06
1.7471e-05
8.65546e-05
-1.20874e-05
1.77267e-05
8.13882e-05
-1.23903e-05
1.62661e-05
8.00253e-05
-9.76653e-06
1.41014e-05
8.10906e-05
-4.49843e-06
1.17365e-05
8.32948e-05
3.46817e-07
1.0065e-05
8.60778e-05
-1.84205e-06
1.05682e-05
8.90923e-05
-1.55292e-05
1.41837e-05
9.17161e-05
-3.7154e-05
1.96768e-05
9.42513e-05
-5.82222e-05
2.42002e-05
9.94507e-05
-7.11222e-05
2.48352e-05
0.000109858
-7.0042e-05
1.96182e-05
0.00012286
-5.40215e-05
8.80971e-06
0.000132371
-3.0131e-05
-4.82625e-06
0.000135469
-1.09462e-05
-1.47732e-05
0.000133337
-4.90934e-06
-1.7084e-05
0.000128314
-6.77516e-06
-1.40978e-05
0.000122089
-7.41915e-06
-1.16776e-05
0.00011485
-5.33284e-06
-1.25637e-05
0.00010666
-3.38986e-06
-1.52942e-05
9.89621e-05
-1.41995e-06
-1.78008e-05
9.37829e-05
9.1685e-07
-1.97288e-05
9.23843e-05
-9.6966e-07
-2.17618e-05
-1.10123e-05
-2.36985e-05
0.000119065
-3.15195e-05
-3.25167e-05
0.000122622
-4.2834e-05
-3.33499e-05
0.000128178
-4.14829e-05
-2.9949e-05
0.000139084
-4.06728e-05
-2.25349e-05
0.000156165
-4.30921e-05
-1.06652e-05
0.000169554
-3.6773e-05
5.67584e-06
0.000170318
-2.05998e-05
2.06322e-05
0.000163542
-8.9306e-06
2.76332e-05
0.000159107
-5.50119e-06
2.59766e-05
0.000159469
-5.40364e-06
2.16477e-05
0.000161009
-5.3127e-06
2.13773e-05
0.000160754
-4.83425e-06
2.41082e-05
0.000159122
-3.88616e-06
2.31438e-05
0.000157156
-2.7601e-06
1.73267e-05
0.000153385
-2.55095e-06
1.31066e-05
0.000144786
-3.61256e-06
1.46316e-05
0.000130844
-5.51314e-06
1.87813e-05
0.000115659
-8.08695e-06
2.09076e-05
0.000104442
-1.04856e-05
2.02948e-05
9.92259e-05
-1.02557e-05
1.83476e-05
9.86906e-05
-5.3645e-06
1.59473e-05
0.00010085
7.0116e-07
1.3844e-05
0.000104551
-1.25184e-06
1.36156e-05
0.000108806
-1.69771e-05
1.66815e-05
0.000112069
-4.15459e-05
2.18978e-05
0.000112837
-6.54897e-05
2.74973e-05
0.00011285
-8.20458e-05
3.18713e-05
0.000118091
-8.64966e-05
3.18494e-05
0.000131962
-7.55576e-05
2.40017e-05
0.000149495
-5.14709e-05
8.5777e-06
0.000162002
-2.60009e-05
-8.27131e-06
0.000165028
-1.22671e-05
-1.64262e-05
0.000160666
-8.97552e-06
-1.56551e-05
0.000154012
-7.73922e-06
-1.21145e-05
0.000147415
-5.55716e-06
-1.08645e-05
0.000140083
-3.12771e-06
-1.25979e-05
0.000132123
1.81357e-07
-1.54655e-05
0.000125161
4.01854e-06
-1.8673e-05
0.000120326
2.08904e-06
-2.28741e-05
-1.14014e-05
-2.81293e-05
0.000147095
-2.95847e-05
-3.52312e-05
0.000144326
-4.83934e-05
-4.23053e-05
0.000144837
-5.06255e-05
-4.35381e-05
0.000150121
-5.04656e-05
-3.77699e-05
0.000164627
-5.90762e-05
-2.58255e-05
0.000184336
-6.01849e-05
-9.08347e-06
0.00019427
-4.13315e-05
1.11394e-05
0.000189284
-1.78024e-05
2.5355e-05
0.000181611
-8.70163e-06
2.80367e-05
0.000182172
-1.02131e-05
2.22542e-05
0.00018804
-1.10075e-05
1.88392e-05
0.000190451
-7.78389e-06
2.26824e-05
0.00018808
-4.15089e-06
2.59574e-05
0.000186554
-3.61724e-06
2.17775e-05
0.000187803
-5.93157e-06
1.50739e-05
0.000185952
-7.40224e-06
1.42368e-05
0.00017471
-5.84788e-06
1.90361e-05
0.000155737
-3.96384e-06
2.32627e-05
0.000136982
-4.9438e-06
2.39394e-05
0.000124977
-6.79954e-06
2.24226e-05
0.000120684
-4.22704e-06
2.03142e-05
0.000122002
1.28416e-06
1.80842e-05
0.000126749
-6.11431e-07
1.66176e-05
0.00013288
-1.69746e-05
1.75356e-05
0.000138154
-4.18603e-05
2.05509e-05
0.000139975
-6.56358e-05
2.53955e-05
0.000137275
-8.22404e-05
3.20038e-05
0.000135141
-8.97761e-05
3.81166e-05
0.000142575
-8.66599e-05
3.66257e-05
0.000161341
-7.04238e-05
2.29675e-05
0.000181783
-4.60686e-05
3.45419e-06
0.000190339
-2.27841e-05
-1.16565e-05
0.000183107
-7.15599e-06
-1.55448e-05
0.000170864
-1.20843e-06
-1.27265e-05
0.000164498
-3.63231e-06
-8.7826e-06
0.000163689
-6.04413e-06
-7.52761e-06
0.000163059
-1.7821e-06
-9.37049e-06
0.000160755
6.46441e-06
-1.31647e-05
0.000157448
7.80445e-06
-1.85664e-05
-5.19769e-06
-2.61439e-05
0.000185515
-1.85998e-05
-2.97772e-05
0.000175624
-4.20096e-05
-4.402e-05
0.000170006
-5.10549e-05
-5.36346e-05
0.00017034
-5.23589e-05
-5.30251e-05
0.000178557
-6.36226e-05
-4.17515e-05
0.000196361
-7.60177e-05
-2.35899e-05
0.000214523
-6.6109e-05
-1.81257e-06
0.000218624
-3.60296e-05
1.86753e-05
0.000209457
-1.38394e-05
2.75135e-05
0.000202692
-1.23462e-05
2.31271e-05
0.000208236
-1.87309e-05
1.55256e-05
0.000217317
-1.61708e-05
1.60508e-05
0.000217023
-4.3138e-06
2.13932e-05
0.000210219
2.42578e-06
2.1014e-05
0.000209663
-5.11599e-06
1.48939e-05
0.000216941
-1.73003e-05
1.23377e-05
0.000218392
-1.82477e-05
1.74385e-05
0.000204598
-8.3487e-06
2.40777e-05
0.00018168
-2.74724e-07
2.65024e-05
0.000161257
1.20155e-06
2.55452e-05
0.000149751
1.77522e-06
2.4393e-05
0.000147734
3.33056e-06
2.34182e-05
0.00015286
-2.02469e-06
2.12651e-05
0.000161345
-2.01403e-05
1.8492e-05
0.000169144
-4.32659e-05
1.65951e-05
0.000172829
-6.28105e-05
1.83936e-05
0.000170248
-7.55631e-05
2.59384e-05
0.00016346
-8.15617e-05
3.72174e-05
0.000162171
-8.39301e-05
4.34195e-05
0.000175064
-7.99648e-05
3.45651e-05
0.000196127
-6.40801e-05
1.39635e-05
0.000207382
-3.44313e-05
-5.78228e-06
0.000198541
-3.24755e-06
-1.44418e-05
0.000180269
1.22168e-05
-1.3536e-05
0.000169225
5.96014e-06
-7.3177e-06
0.000170277
-6.05645e-06
-1.19328e-06
0.000178145
-6.72794e-06
7.23711e-07
0.000186806
3.24307e-06
-1.62006e-06
0.00019293
9.58358e-06
-7.55194e-06
2.97677e-06
-1.67672e-05
0.000227121
-5.95783e-06
-1.58698e-05
0.000215203
-2.49782e-05
-3.68851e-05
0.000202308
-3.9593e-05
-5.60553e-05
0.000197457
-4.69768e-05
-6.50314e-05
0.000201571
-5.98011e-05
-5.86573e-05
0.000213595
-7.87007e-05
-4.04789e-05
0.000231747
-8.34133e-05
-1.74558e-05
0.000245958
-6.20381e-05
6.94249e-06
0.000245829
-2.99413e-05
2.28682e-05
0.000234614
-1.46708e-05
2.38081e-05
0.000228139
-1.91035e-05
1.458e-05
0.000235298
-2.38673e-05
9.16698e-06
0.000244797
-1.24632e-05
1.27673e-05
0.000242924
4.77e-06
1.66314e-05
0.00023518
3.49525e-06
1.41342e-05
0.000237326
-1.89968e-05
1.03804e-05
0.000248766
-3.64823e-05
1.3762e-05
0.000250703
-2.80706e-05
2.21041e-05
0.000234506
-6.4031e-06
2.69561e-05
0.000209947
8.68853e-06
2.64943e-05
0.000189696
1.40282e-05
2.63966e-05
0.000180504
1.10299e-05
2.86355e-05
0.000183236
-3.37654e-06
2.7948e-05
0.000193747
-2.84623e-05
2.0972e-05
0.000205476
-5.10356e-05
1.09877e-05
0.00021225
-6.26877e-05
5.86598e-06
0.000210515
-6.69646e-05
1.24938e-05
0.000200884
-6.72538e-05
2.90397e-05
0.000191297
-6.96841e-05
4.40967e-05
0.000193967
-7.56572e-05
4.25853e-05
0.000209547
-7.25094e-05
2.30337e-05
0.000221558
-4.45221e-05
6.37733e-07
0.000215967
-1.55693e-06
-1.25617e-05
0.000198552
2.47851e-05
-1.48812e-05
0.000184618
1.91594e-05
-9.11628e-06
0.000181627
1.12384e-07
7.28229e-07
0.000188158
-7.67375e-06
9.09203e-06
0.000200336
-6.26212e-07
1.24442e-05
0.000215299
6.59652e-06
1.00042e-05
5.26177e-06
1.00732e-06
0.000262956
-1.9508e-06
4.30758e-06
0.000258458
-5.84109e-06
-2.27555e-05
0.000242573
-1.79879e-05
-5.02076e-05
0.000231236
-3.35045e-05
-6.93016e-05
0.000232093
-5.17944e-05
-7.22041e-05
0.000240937
-7.24516e-05
-5.86381e-05
0.000253799
-8.71549e-05
-3.55462e-05
0.000269038
-8.21313e-05
-9.98676e-06
0.000278312
-5.58816e-05
1.30815e-05
0.000273446
-2.65269e-05
2.15177e-05
0.00025994
-1.58949e-05
1.46317e-05
0.000254563
-2.06846e-05
5.14267e-06
0.000263646
-1.97878e-05
5.61815e-06
0.000273932
-5.39413e-06
1.27064e-05
0.000272425
3.49551e-06
1.52628e-05
0.000265805
-1.23017e-05
1.14142e-05
0.000269743
-4.18874e-05
1.03185e-05
0.000281419
-5.1e-05
1.73511e-05
0.00028206
-2.82635e-05
2.4418e-05
0.000265122
4.51011e-06
2.49776e-05
0.000241693
2.47707e-05
2.57532e-05
0.000224485
2.46953e-05
3.1736e-05
0.000219403
4.14292e-06
3.33105e-05
0.000226137
-3.06157e-05
2.18152e-05
0.000240535
-5.94434e-05
2.91295e-06
0.000253772
-6.91563e-05
-8.78839e-06
0.000256444
-6.21463e-05
-6.55691e-06
0.00024591
-5.3358e-05
1.39002e-05
0.000229405
-4.98234e-05
3.85051e-05
0.000220703
-5.84598e-05
4.7542e-05
0.000226742
-6.63953e-05
3.24148e-05
0.000236728
-4.71597e-05
8.53677e-06
0.000236698
-1.90202e-06
-8.82204e-06
0.000226777
3.13304e-05
-1.60646e-05
0.000216001
2.97268e-05
-1.52961e-05
0.000209856
9.37411e-06
-6.87812e-06
0.000209725
-1.45617e-06
4.75573e-06
0.00021577
1.25268e-06
1.52502e-05
0.000229423
3.94147e-06
2.09036e-05
7.31276e-07
1.86416e-05
0.000292656
-9.79182e-06
1.61613e-05
0.000300446
2.50649e-06
-7.97342e-06
0.000289044
3.71986e-06
-4.01856e-05
0.000273687
-1.46912e-05
-6.64669e-05
0.000269526
-4.06366e-05
-7.79609e-05
0.000276702
-6.31497e-05
-7.24279e-05
0.000286296
-8.04314e-05
-5.41401e-05
0.000295783
-8.90203e-05
-2.84342e-05
0.000304935
-7.76383e-05
-1.88982e-06
0.000306349
-4.58881e-05
1.46566e-05
0.000296319
-1.74411e-05
1.31135e-05
0.000285153
-1.15771e-05
3.30589e-06
0.000286267
-1.78634e-05
1.21601e-06
0.000298545
-1.63248e-05
9.67312e-06
0.000307403
-7.22259e-06
1.71625e-05
0.000304556
-1.06398e-05
1.52227e-05
0.000298812
-3.47843e-05
9.13556e-06
0.000302498
-5.67563e-05
1.01828e-05
0.00031104
-4.9137e-05
1.7342e-05
0.000309511
-1.51665e-05
2.18979e-05
0.000293958
1.91132e-05
2.62889e-05
0.0002745
3.26809e-05
3.4397e-05
0.00026102
2.10479e-05
3.43299e-05
0.00025731
-1.26452e-05
1.62403e-05
0.000266722
-5.31659e-05
-7.25063e-06
0.000286411
-7.56539e-05
-2.19038e-05
0.000299927
-6.85877e-05
-1.97922e-05
0.000294321
-4.85668e-05
-9.48461e-07
0.000274253
-3.44404e-05
2.92117e-05
0.000255879
-3.61493e-05
4.90393e-05
0.000251263
-4.68125e-05
4.22472e-05
0.000256502
-3.7249e-05
1.8491e-05
0.00025985
7.67675e-07
-3.06003e-06
0.00025816
3.31856e-05
-1.60543e-05
0.000254712
3.36244e-05
-2.18156e-05
0.000250655
1.62757e-05
-1.88174e-05
0.000246101
6.88506e-06
-8.42187e-06
0.000244101
9.34805e-06
3.57831e-06
0.000250237
5.83939e-06
1.4548e-05
-7.25319e-06
2.13811e-05
0.000322956
-2.05748e-05
1.20573e-05
0.000341261
-2.77856e-06
-1.07339e-06
0.000340086
1.434e-05
-3.05393e-05
0.000325287
3.14749e-06
-6.03645e-05
0.000315126
-2.46655e-05
-7.86589e-05
0.000318302
-4.89347e-05
-8.06324e-05
0.000327344
-6.73448e-05
-6.91433e-05
0.000333039
-8.3664e-05
-4.72943e-05
0.000335849
-8.71116e-05
-1.91435e-05
0.00033626
-6.29435e-05
4.10953e-06
0.000330392
-2.42393e-05
9.95768e-06
0.000320858
-3.26863e-06
2.58137e-06
0.000317839
-8.23236e-06
-1.25613e-06
0.000326793
-1.86567e-05
6.33209e-06
0.000339808
-1.75276e-05
1.80117e-05
0.000344939
-1.45014e-05
2.10111e-05
0.000339414
-2.64074e-05
1.28616e-05
0.000330957
-4.59903e-05
5.34404e-06
0.000326901
-5.06257e-05
9.07791e-06
0.00032449
-3.12803e-05
2.00318e-05
0.000317615
1.46339e-07
3.12033e-05
0.000307512
2.49372e-05
3.63787e-05
0.000299511
3.09261e-05
2.75707e-05
0.000294282
1.05844e-05
3.88e-06
0.000296064
-3.19986e-05
-1.97772e-05
0.00031346
-7.14883e-05
-3.15331e-05
0.000336222
-7.93054e-05
-2.54967e-05
0.000340805
-5.71875e-05
-6.38937e-06
0.000321705
-3.10484e-05
2.29387e-05
0.000296724
-1.99999e-05
4.84029e-05
0.000283703
-2.33471e-05
5.09522e-05
0.000284367
-1.71671e-05
3.03917e-05
0.000289465
1.02917e-05
5.65905e-06
0.000293858
3.45949e-05
-1.31783e-05
0.000297612
3.1469e-05
-2.5183e-05
0.000299243
1.55798e-05
-2.86418e-05
0.000296321
1.04634e-05
-2.36365e-05
0.000290949
1.57039e-05
-1.42895e-05
0.000289619
1.07638e-05
-3.62053e-06
-9.91959e-06
7.65731e-06
0.00035347
-1.97997e-05
3.01856e-06
0.000374561
-8.74161e-06
-3.43522e-06
0.000387068
1.3699e-05
-2.53383e-05
0.000380958
1.38807e-05
-5.28657e-05
0.000368728
-6.49728e-06
-7.49742e-05
0.000367085
-2.82425e-05
-8.40974e-05
0.000375837
-4.80572e-05
-7.97147e-05
0.000382267
-7.06256e-05
-6.37644e-05
0.000380401
-8.51392e-05
-3.7729e-05
0.000374524
-7.05731e-05
-1.10003e-05
0.000367197
-3.08665e-05
3.34867e-06
0.000359312
1.77453e-06
2.00953e-06
0.000355391
4.77869e-06
-1.34174e-06
0.000361092
-1.09749e-05
4.54775e-06
0.000374191
-2.01438e-05
1.78167e-05
0.000384153
-1.90801e-05
2.67353e-05
0.000381111
-2.19849e-05
2.15487e-05
0.000364764
-3.10431e-05
8.63892e-06
0.000344358
-3.53564e-05
4.70633e-06
0.000330532
-2.809e-05
1.35272e-05
0.000327004
-1.09906e-05
2.28833e-05
0.00033148
9.30578e-06
2.15775e-05
0.000338588
2.45729e-05
7.57539e-06
0.000341383
2.07713e-05
-1.29805e-05
0.000341735
-9.6122e-06
-3.26397e-05
0.000351864
-5.46083e-05
-3.94876e-05
0.000373281
-8.18332e-05
-2.81759e-05
0.000384488
-6.96965e-05
-5.79064e-06
0.000369058
-3.63337e-05
2.16845e-05
0.000340364
-1.22419e-05
4.6571e-05
0.000321429
-5.41504e-06
5.4687e-05
0.000319327
2.06115e-06
3.90419e-05
0.000325522
2.23957e-05
1.38213e-05
0.000330608
3.87868e-05
-6.6361e-06
0.000333613
3.24069e-05
-2.04904e-05
0.000337587
1.34731e-05
-2.95783e-05
0.00034226
5.39266e-06
-3.29058e-05
0.000344136
1.15175e-05
-2.91939e-05
0.000341977
1.24085e-05
-1.85091e-05
-4.31326e-06
-4.98228e-06
0.000380636
-6.66326e-06
3.69486e-06
0.000396496
-2.30125e-06
-4.48859e-06
0.000419304
1.24624e-05
-2.24832e-05
0.000429523
1.79024e-05
-4.51995e-05
0.00042478
8.87777e-06
-6.74533e-05
0.000422782
-5.20934e-06
-8.25754e-05
0.00043207
-2.44054e-05
-8.59361e-05
0.000440946
-5.19826e-05
-7.70824e-05
0.000437438
-7.48491e-05
-5.66812e-05
0.000424845
-6.89104e-05
-2.97146e-05
0.000412082
-3.31322e-05
-8.55009e-06
0.00040322
3.90312e-06
-1.23342e-07
0.000399066
1.51396e-05
1.74738e-06
0.000401788
2.15044e-06
5.99098e-06
0.000410803
-1.2945e-05
1.55624e-05
0.000419484
-1.84785e-05
2.64631e-05
0.000418713
-2.09149e-05
2.89877e-05
0.000404724
-2.2727e-05
1.80995e-05
0.000382866
-1.92587e-05
3.45567e-06
0.000365173
-1.28899e-05
-1.84003e-06
0.000360998
-8.52602e-06
1.44044e-06
0.000370253
-3.75591e-06
3.234e-06
0.000383584
5.89368e-06
-2.83486e-06
0.000390453
1.44264e-05
-1.64814e-05
0.000391385
3.92158e-06
-3.09233e-05
0.000397262
-3.25083e-05
-3.61912e-05
0.000413918
-7.21537e-05
-2.62155e-05
0.000426588
-7.74265e-05
-4.93463e-06
0.000416243
-4.46383e-05
1.98054e-05
0.000389002
-9.28621e-06
4.38861e-05
0.000366715
8.31957e-06
5.59144e-05
0.000358903
1.87568e-05
4.48388e-05
0.000358268
3.48298e-05
2.18243e-05
0.000356377
4.51137e-05
5.86379e-06
0.000354304
3.4234e-05
-2.30343e-06
0.000358052
9.64667e-06
-1.24818e-05
0.000368948
-6.15351e-06
-2.47761e-05
0.000380325
-3.8352e-06
-2.80321e-05
0.000383754
4.12936e-06
-1.68098e-05
1.22305e-06
-1.54639e-06
0.000414983
1.078e-05
1.29365e-05
0.00042297
1.73993e-05
5.99592e-06
0.000444766
2.47077e-05
-1.53783e-05
0.000467054
2.41288e-05
-3.75353e-05
0.000478425
1.76387e-05
-5.64952e-05
0.000485547
1.15604e-05
-7.20957e-05
0.000498011
-1.4631e-06
-8.24276e-05
0.000508539
-2.8536e-05
-8.40079e-05
0.000503765
-5.59144e-05
-7.26179e-05
0.00048509
-5.64089e-05
-4.9638e-05
0.000465195
-2.64524e-05
-2.47753e-05
0.000452042
7.80108e-06
-8.28138e-06
0.000446334
1.98345e-05
1.13005e-06
0.000447237
1.05289e-05
8.59768e-06
0.000452049
-3.35125e-06
1.67387e-05
0.000454479
-1.04772e-05
2.5114e-05
0.000449965
-1.496e-05
2.96703e-05
0.000439456
-1.71031e-05
2.24963e-05
0.000427069
-1.06013e-05
4.14239e-06
0.000418064
-2.01141e-06
-1.05348e-05
0.000417469
-4.72641e-06
-1.05435e-05
0.000425082
-1.47607e-05
-2.45626e-06
0.000433306
-1.36434e-05
5.93358e-07
0.000434702
2.17373e-06
-4.87374e-06
0.000432569
9.82558e-06
-1.40052e-05
0.000436468
-1.19638e-05
-1.96908e-05
0.000450817
-5.35307e-05
-1.56427e-05
0.000466183
-7.61581e-05
2.9633e-08
0.000465373
-5.40638e-05
2.14455e-05
0.000446404
-1.08585e-05
4.13566e-05
0.00042296
2.17328e-05
5.21019e-05
0.000404915
3.67489e-05
4.7132e-05
0.000391544
4.53373e-05
3.16172e-05
0.000382163
4.84776e-05
1.80517e-05
0.000380011
3.67132e-05
1.11909e-05
0.000386582
1.13412e-05
5.41493e-06
0.000400343
-1.21617e-05
-5.14319e-06
0.000414679
-1.72459e-05
-1.43227e-05
0.000421347
-6.9299e-06
-1.10972e-05
4.47587e-06
3.20658e-06
0.000455859
2.57756e-05
2.11028e-05
0.000461438
3.75658e-05
1.91163e-05
0.000478131
4.16571e-05
5.17503e-06
0.00050038
3.28535e-05
-1.68147e-05
0.000521428
1.79781e-05
-3.68506e-05
0.000542016
1.01103e-05
-5.48518e-05
0.000563371
5.47925e-06
-6.96224e-05
0.000577046
-9.53046e-06
-7.91441e-05
0.000572155
-3.11092e-05
-7.88765e-05
0.000550986
-3.59352e-05
-6.45497e-05
0.000526845
-1.48e-05
-4.02062e-05
0.000508561
1.27177e-05
-1.77348e-05
0.000497766
2.2911e-05
-3.98941e-06
0.00049282
1.60793e-05
5.85087e-06
0.000491597
5.92058e-06
1.57869e-05
0.000489312
-7.22713e-07
2.5784e-05
0.000483516
-5.92924e-06
2.9521e-05
0.000477509
-8.73328e-06
1.98924e-05
0.000476718
-3.94473e-06
-6.13523e-07
0.000482426
2.00444e-06
-1.63161e-05
0.000490062
-6.31979e-06
-1.34588e-05
0.000491676
-2.41956e-05
2.85967e-06
0.000484403
-2.82138e-05
1.52668e-05
0.000474549
-8.48887e-06
1.50399e-05
0.000471972
1.25629e-05
9.45852e-06
0.000480628
7.74702e-06
4.8087e-06
0.000496734
-2.76537e-05
2.81119e-06
0.000511376
-6.1611e-05
7.59768e-06
0.000513905
-5.52815e-05
2.17627e-05
0.000499421
-1.15723e-05
3.94653e-05
0.000475876
3.14782e-05
4.91172e-05
0.000450683
5.22424e-05
4.28138e-05
0.000428856
5.54276e-05
2.975e-05
0.000416407
5.18721e-05
2.46918e-05
0.000416624
4.19503e-05
2.7698e-05
0.000426865
2.35953e-05
2.62505e-05
0.000441315
2.7781e-06
1.4889e-05
0.000454015
-7.61035e-06
3.14639e-06
0.000459909
-1.99793e-06
1.51443e-06
1.17732e-05
1.11603e-05
0.00051676
3.27871e-05
2.70269e-05
0.000517257
4.36678e-05
3.75365e-05
0.000526444
4.94439e-05
2.99311e-05
0.000542209
3.96661e-05
7.64784e-06
0.000562324
1.56415e-05
-1.67585e-05
0.000587505
-5.71181e-06
-3.26493e-05
0.000614789
-1.23442e-05
-4.50557e-05
0.000632821
-1.07239e-05
-6.07795e-05
0.000632066
-1.22334e-05
-7.48903e-05
0.000617758
-1.30179e-05
-7.64502e-05
0.000601646
-1.83575e-06
-6.13566e-05
0.000588584
1.46514e-05
-3.66655e-05
0.000574983
2.28861e-05
-1.49579e-05
0.000559257
2.07216e-05
-6.60927e-07
0.000544279
1.55446e-05
9.8085e-06
0.000533409
8.62092e-06
1.99649e-05
0.000528148
-2.16745e-06
2.84126e-05
0.00053131
-1.35353e-05
2.93459e-05
0.000545937
-1.96858e-05
1.91381e-05
0.000567349
-2.19993e-05
4.5743e-06
0.000581361
-2.76658e-05
-5.13687e-07
0.000576256
-3.58457e-05
1.36378e-05
0.000555607
-3.32365e-05
3.91251e-05
0.000535042
-1.11674e-05
5.49494e-05
0.000528283
1.96264e-05
4.77756e-05
0.000536182
3.28926e-05
2.22095e-05
0.000550659
1.08617e-05
-1.0613e-06
0.000563196
-2.99032e-05
-3.93805e-06
0.000564824
-4.52796e-05
1.11842e-05
0.00054885
-1.4987e-05
3.12004e-05
0.000520834
3.31993e-05
4.30318e-05
0.000491492
6.42156e-05
4.14661e-05
0.000470069
7.29247e-05
3.18353e-05
0.000461558
6.95538e-05
2.60617e-05
0.000464718
5.91555e-05
2.74427e-05
0.000474775
4.2153e-05
2.85713e-05
0.000488244
2.34092e-05
2.20675e-05
0.000502997
1.2434e-05
1.01029e-05
0.000514791
1.39185e-05
3.3999e-06
2.25216e-05
1.03806e-05
0.000570081
3.20474e-05
3.48151e-05
0.000569274
3.44939e-05
4.487e-05
0.000577798
3.27255e-05
4.63287e-05
0.000594104
2.11623e-05
3.3258e-05
0.000613371
6.09329e-07
6.71888e-06
0.00063449
-1.8718e-05
-2.15795e-05
0.000659473
-2.70472e-05
-4.12571e-05
0.000683348
-2.18461e-05
-5.2427e-05
0.000693779
-9.60553e-06
-6.0665e-05
0.000685872
3.72996e-06
-6.76344e-05
0.000669719
1.67938e-05
-6.71312e-05
0.000657156
2.60267e-05
-5.54779e-05
0.000649989
2.68681e-05
-3.77261e-05
0.000642327
2.13426e-05
-2.14016e-05
0.000630183
1.60851e-05
-9.28728e-06
0.000614668
1.07944e-05
1.05538e-06
0.000600722
1.04271e-06
1.30573e-05
0.000596482
-1.42402e-05
2.60245e-05
0.000608515
-3.26902e-05
3.30938e-05
0.000631433
-4.99992e-05
2.99526e-05
0.000648151
-5.93492e-05
2.19549e-05
0.000645263
-5.39047e-05
2.30498e-05
0.000626098
-3.3816e-05
4.09355e-05
0.000604793
-3.63314e-06
5.99338e-05
0.000590957
2.70728e-05
5.56399e-05
0.000586475
4.10458e-05
2.38227e-05
0.00059031
2.51413e-05
-1.25569e-05
0.000601238
-1.34603e-05
-2.61355e-05
0.000609463
-4.17291e-05
-9.88917e-06
0.000603326
-2.79819e-05
1.66168e-05
0.000582343
1.92558e-05
3.64385e-05
0.00055999
6.26971e-05
4.20368e-05
0.000547865
8.53815e-05
3.26147e-05
0.000547141
8.89865e-05
1.58354e-05
0.00055156
7.75632e-05
2.70818e-06
0.000556092
5.6478e-05
-1.7302e-06
0.00056071