/*--------------------------------*- C++ -*----------------------------------*\
| =========                 |                                                 |
| \\      /  F ield         | OpenFOAM: The Open Source CFD Toolbox           |
|  \\    /   O peration     | Version:  2306                                  |
|   \\  /    A nd           | Website:  www.openfoam.com                      |
|    \\/     M anipulation  |                                                 |
\*---------------------------------------------------------------------------*/
FoamFile
{
    version     2.0;
    format      ascii;
    arch        "LSB;label=32;scalar=64";
    class       surfaceScalarField;
    location    "5.5";
    object      phi_0;
}
// * * * * * * * * * * * * * * * * * * * * * * * * * * * * * * * * * * * * * //

dimensions      [0 3 -1 0 0 0 0];

oriented        oriented;

internalField   nonuniform List<scalar> 
175300
(
5.69212e-06
5.4818e-07
1.07316e-07
6.06312e-06
7.33511e-07
4.35132e-07
6.19872e-06
9.92061e-07
9.08896e-07
6.10079e-06
9.71328e-07
1.49574e-06
5.87594e-06
6.47323e-07
2.01981e-06
5.66937e-06
2.54128e-07
2.26254e-06
5.52485e-06
2.76777e-08
2.17519e-06
5.41077e-06
-2.02326e-09
1.84741e-06
5.29543e-06
4.41262e-08
1.43865e-06
5.14246e-06
3.76045e-08
1.14408e-06
4.87722e-06
-1.19772e-08
1.07894e-06
4.45817e-06
-5.98235e-08
1.18042e-06
3.98185e-06
-1.3991e-07
1.29963e-06
3.62176e-06
-2.81012e-07
1.34265e-06
3.47122e-06
-4.55283e-07
1.31144e-06
3.50927e-06
-6.30637e-07
1.21115e-06
3.64301e-06
-7.293e-07
1.02424e-06
3.75744e-06
-6.19644e-07
7.45958e-07
3.83767e-06
-3.63461e-07
4.08219e-07
3.97837e-06
-1.24789e-07
6.12208e-08
4.20115e-06
6.9582e-08
-2.15692e-07
4.42386e-06
2.84653e-07
-4.26288e-07
4.59588e-06
3.70304e-07
-5.38126e-07
4.76019e-06
1.93188e-07
-5.60849e-07
4.97555e-06
-2.34199e-07
-6.10436e-07
5.25987e-06
-6.21767e-07
-8.53205e-07
5.53187e-06
-7.37339e-07
-1.26627e-06
5.64135e-06
-5.50793e-07
-1.61352e-06
5.50766e-06
-2.05059e-07
-1.80827e-06
5.14991e-06
1.82704e-07
-2.00724e-06
4.64401e-06
4.28518e-07
-2.13394e-06
4.18781e-06
2.75666e-07
-2.0179e-06
3.92749e-06
-8.44793e-08
-1.83789e-06
3.83379e-06
-2.45594e-07
-1.79619e-06
3.87627e-06
-1.92714e-07
-1.79247e-06
4.0342e-06
-4.19168e-08
-1.61925e-06
4.25009e-06
2.25677e-07
-1.25375e-06
4.4958e-06
5.33233e-07
-8.38123e-07
4.80879e-06
7.05016e-07
-4.87075e-07
6.23091e-07
-1.91963e-07
1.88806e-05
1.59366e-06
5.59798e-07
2.00863e-05
2.15349e-06
1.73222e-06
2.07081e-05
2.8305e-06
3.25514e-06
2.06389e-05
2.61343e-06
4.9183e-06
2.00341e-05
1.61055e-06
6.17557e-06
1.92984e-05
5.4315e-07
6.6055e-06
1.8715e-05
-3.11537e-08
6.24498e-06
1.82954e-05
-9.57013e-08
5.3562e-06
1.79205e-05
2.53182e-08
4.30158e-06
1.74084e-05
2.71158e-08
3.51716e-06
1.65203e-05
-5.91832e-08
3.26583e-06
1.5192e-05
-1.85653e-07
3.45442e-06
1.37299e-05
-5.18199e-07
3.78699e-06
1.2598e-05
-1.12771e-06
4.01071e-06
1.20347e-05
-1.85562e-06
4.00019e-06
1.19641e-05
-2.44351e-06
3.68279e-06
1.21324e-05
-2.5854e-06
3.04644e-06
1.23281e-05
-2.04801e-06
2.16349e-06
1.25798e-05
-1.16107e-06
1.18353e-06
1.30488e-05
-3.83436e-07
2.50637e-07
1.37207e-05
2.50164e-07
-5.10557e-07
1.44356e-05
8.12447e-07
-1.07113e-06
1.51504e-05
8.59031e-07
-1.37649e-06
1.59611e-05
-6.54317e-08
-1.47815e-06
1.6942e-05
-1.63369e-06
-1.71324e-06
1.80196e-05
-2.88695e-06
-2.45447e-06
1.88919e-05
-3.10753e-06
-3.56784e-06
1.91532e-05
-2.25717e-06
-4.50668e-06
1.86187e-05
-8.66338e-07
-5.0924e-06
1.74389e-05
4.93524e-07
-5.54321e-06
1.59666e-05
1.12861e-06
-5.65695e-06
1.46467e-05
5.05482e-07
-5.32712e-06
1.36813e-05
-5.41449e-07
-5.09485e-06
1.30763e-05
-9.09994e-07
-5.22213e-06
1.29361e-05
-7.05924e-07
-5.23091e-06
1.32755e-05
-2.16925e-07
-4.61382e-06
1.39295e-05
6.86701e-07
-3.47843e-06
1.48122e-05
1.68329e-06
-2.28108e-06
1.59729e-05
2.13441e-06
-1.27105e-06
1.77455e-06
-3.55873e-07
3.46994e-05
2.22249e-06
6.69305e-07
3.7126e-05
3.24415e-06
2.78209e-06
3.871e-05
4.45462e-06
5.47894e-06
3.90785e-05
3.99929e-06
8.32299e-06
3.82037e-05
2.28419e-06
1.03837e-05
3.67314e-05
6.08025e-07
1.10573e-05
3.5426e-05
-2.27992e-07
1.04944e-05
3.45372e-05
-3.15936e-07
9.16995e-06
3.38609e-05
-1.40641e-07
7.59314e-06
3.30174e-05
-1.19692e-07
6.31239e-06
3.15734e-05
-1.92337e-07
5.6813e-06
2.93808e-05
-3.35552e-07
5.68125e-06
2.68406e-05
-9.32925e-07
6.08383e-06
2.46337e-05
-2.18598e-06
6.585e-06
2.32269e-05
-3.77306e-06
6.80324e-06
2.26385e-05
-5.05018e-06
6.43542e-06
2.25506e-05
-5.31473e-06
5.45685e-06
2.2681e-05
-4.22271e-06
4.05347e-06
2.30645e-05
-2.48298e-06
2.48669e-06
2.38689e-05
-9.59747e-07
9.90178e-07
2.50339e-05
3.01722e-07
-2.83712e-07
2.63551e-05
1.25586e-06
-1.21226e-06
2.78132e-05
9.5918e-07
-1.67917e-06
2.95426e-05
-1.36104e-06
-1.75621e-06
3.16009e-05
-4.89044e-06
-2.02113e-06
3.37944e-05
-7.57544e-06
-3.1562e-06
3.55676e-05
-7.90371e-06
-5.0329e-06
3.62138e-05
-5.82438e-06
-6.77549e-06
3.54156e-05
-2.5634e-06
-7.95421e-06
3.34734e-05
4.60238e-07
-8.7119e-06
3.10437e-05
1.74917e-06
-8.76195e-06
2.87551e-05
5.35477e-07
-8.16602e-06
2.67882e-05
-1.37614e-06
-7.89627e-06
2.51767e-05
-1.9781e-06
-8.34705e-06
2.42981e-05
-1.58856e-06
-8.68301e-06
2.44328e-05
-7.57456e-07
-7.94141e-06
2.54065e-05
8.90269e-07
-6.18626e-06
2.70107e-05
2.76982e-06
-4.23006e-06
2.92153e-05
3.54333e-06
-2.55735e-06
2.72129e-06
-1.0297e-06
5.26587e-05
8.91876e-07
-4.41457e-07
5.6851e-05
2.48879e-06
2.53406e-06
6.01093e-05
4.55504e-06
6.51494e-06
6.16511e-05
4.129e-06
1.0871e-05
6.09111e-05
2.01965e-06
1.4201e-05
5.85758e-05
1.45714e-07
1.55007e-05
5.61566e-05
-6.30696e-07
1.4925e-05
5.45254e-05
-6.50272e-07
1.32828e-05
5.34983e-05
-4.6544e-07
1.1341e-05
5.24466e-05
-4.56551e-07
9.67317e-06
5.06937e-05
-4.80024e-07
8.5361e-06
4.79041e-05
-5.03882e-07
7.95225e-06
4.43753e-05
-1.14622e-06
8.00847e-06
4.07987e-05
-2.87489e-06
8.68787e-06
3.78748e-05
-5.37661e-06
9.42638e-06
3.60048e-05
-7.67384e-06
9.4208e-06
3.50877e-05
-8.501e-06
8.42287e-06
3.48242e-05
-7.13469e-06
6.73042e-06
3.51766e-05
-4.57074e-06
4.73252e-06
3.62453e-05
-2.15837e-06
2.71766e-06
3.78916e-05
-9.14824e-08
9.59624e-07
3.98625e-05
1.26709e-06
-2.50334e-07
4.21484e-05
3.2525e-07
-7.74853e-07
4.49156e-05
-4.1154e-06
-5.60034e-07
4.82501e-05
-1.06897e-05
-4.16742e-07
5.19229e-05
-1.57813e-05
-1.61099e-06
5.51431e-05
-1.64787e-05
-4.38999e-06
5.67944e-05
-1.25756e-05
-7.47438e-06
5.62779e-05
-6.36928e-06
-9.85009e-06
5.39487e-05
-6.36423e-07
-1.13737e-05
5.07427e-05
1.95515e-06
-1.1561e-05
4.74979e-05
3.32955e-07
-1.05433e-05
4.43667e-05
-2.49389e-06
-9.92412e-06
4.12651e-05
-3.3397e-06
-1.06349e-05
3.87828e-05
-2.75948e-06
-1.17079e-05
3.77997e-05
-1.80015e-06
-1.15758e-05
3.85306e-05
2.75775e-07
-9.80831e-06
4.06783e-05
2.95916e-06
-7.37741e-06
4.39852e-05
3.8931e-06
-5.16935e-06
2.33961e-06
-3.13052e-06
7.12693e-05
-3.96686e-06
-4.86191e-06
7.7811e-05
-2.94577e-06
-2.03791e-07
8.36641e-05
9.83548e-07
4.7975e-06
8.7585e-05
1.41789e-06
1.11235e-05
8.80041e-05
-2.70722e-07
1.66181e-05
8.50887e-05
-1.44637e-06
1.94622e-05
8.11802e-05
-1.45815e-06
1.93789e-05
7.83867e-05
-1.09994e-06
1.75107e-05
7.6896e-05
-8.92409e-07
1.52847e-05
7.58028e-05
-9.7973e-07
1.35233e-05
7.41072e-05
-1.00733e-06
1.21362e-05
7.12094e-05
-8.09287e-07
1.07521e-05
6.71394e-05
-1.12553e-06
9.77988e-06
6.22871e-05
-2.77864e-06
1.00606e-05
5.72831e-05
-5.77975e-06
1.13779e-05
5.3042e-05
-9.15608e-06
1.22805e-05
5.02122e-05
-1.12003e-05
1.17889e-05
4.88178e-05
-1.03847e-05
1.0166e-05
4.87182e-05
-7.47091e-06
8.02456e-06
4.98093e-05
-4.21036e-06
5.70202e-06
5.17663e-05
-1.10644e-06
3.56131e-06
5.42099e-05
8.79162e-07
2.12629e-06
5.70761e-05
-8.93236e-07
1.89315e-06
6.05232e-05
-8.30804e-06
3.07349e-06
6.48084e-05
-1.93241e-05
4.5759e-06
7.00667e-05
-2.85947e-05
4.14134e-06
7.55712e-05
-3.08952e-05
7.18416e-07
7.95494e-05
-2.47053e-05
-4.71957e-06
8.06258e-05
-1.414e-05
-9.5842e-06
7.89029e-05
-4.04481e-06
-1.30464e-05
7.54909e-05
1.13357e-06
-1.41233e-05
7.15216e-05
-2.31161e-07
-1.27111e-05
6.73193e-05
-3.78264e-06
-1.12159e-05
6.26494e-05
-4.79838e-06
-1.17242e-05
5.79193e-05
-3.90223e-06
-1.35702e-05
5.44918e-05
-2.95466e-06
-1.47282e-05
5.35499e-05
-1.05538e-06
-1.40177e-05
5.52668e-05
1.78924e-06
-1.20372e-05
5.92063e-05
2.44394e-06
-9.91945e-06
-6.28387e-07
-7.81498e-06
8.76882e-05
-1.33927e-05
-1.31221e-05
9.63941e-05
-1.4253e-05
-8.61684e-06
0.000105598
-1.02965e-05
-1.54977e-06
0.000113805
-7.18327e-06
6.37847e-06
0.000117625
-6.86065e-06
1.53159e-05
0.000115497
-5.57662e-06
2.15233e-05
0.000110168
-3.38274e-06
2.33708e-05
0.000105737
-1.90164e-06
2.16898e-05
0.00010358
-1.45478e-06
1.89953e-05
0.000102617
-1.66896e-06
1.72931e-05
0.000101362
-1.8495e-06
1.64213e-05
9.89268e-05
-1.5018e-06
1.4773e-05
9.51089e-05
-1.20312e-06
1.22578e-05
8.98163e-05
-2.05024e-06
1.09992e-05
8.30097e-05
-4.66059e-06
1.22542e-05
7.55711e-05
-8.48344e-06
1.43853e-05
6.9237e-05
-1.19146e-05
1.50854e-05
6.52288e-05
-1.27159e-05
1.39805e-05
6.37175e-05
-1.05416e-05
1.19934e-05
6.427e-05
-6.89014e-06
9.653e-06
6.61203e-05
-2.58653e-06
7.37985e-06
6.85753e-05
4.16792e-07
5.94109e-06
7.1383e-05
-2.15757e-06
6.33882e-06
7.45538e-05
-1.3258e-05
9.13225e-06
7.83379e-05
-2.99181e-05
1.28747e-05
8.36835e-05
-4.49136e-05
1.45041e-05
9.14328e-05
-5.11447e-05
1.16023e-05
9.99136e-05
-4.49998e-05
4.56678e-06
0.000105609
-2.90333e-05
-4.67011e-06
0.00010688
-1.20654e-05
-1.22784e-05
0.000104696
-1.97621e-06
-1.59995e-05
0.000100652
-1.65681e-06
-1.498e-05
9.56978e-05
-5.28015e-06
-1.22809e-05
8.98922e-05
-6.20857e-06
-1.17938e-05
8.32239e-05
-4.71905e-06
-1.38339e-05
7.67665e-05
-3.49838e-06
-1.62368e-05
7.24221e-05
-1.90379e-06
-1.72989e-05
7.15312e-05
3.94482e-07
-1.70852e-05
7.4265e-05
-3.17214e-07
-1.64754e-05
-6.40515e-06
-1.55042e-05
0.000101757
-2.50784e-05
-2.37612e-05
0.000109554
-2.93917e-05
-2.06896e-05
0.000119463
-2.61917e-05
-1.4858e-05
0.000132356
-2.37947e-05
-5.77394e-06
0.000143586
-2.19658e-05
6.41432e-06
0.000146361
-1.57722e-05
1.83754e-05
0.000141299
-8.24547e-06
2.5227e-05
0.000135141
-3.89586e-06
2.55763e-05
0.000132123
-2.63459e-06
2.23254e-05
0.000131578
-2.75528e-06
2.00346e-05
0.000131173
-3.07156e-06
2.02658e-05
0.00012961
-2.8086e-06
2.00067e-05
0.000126816
-1.97078e-06
1.6622e-05
0.000122538
-1.57476e-06
1.26998e-05
0.000115647
-2.86577e-06
1.23323e-05
0.000105709
-5.89091e-06
1.52155e-05
9.47296e-05
-9.66262e-06
1.77078e-05
8.59412e-05
-1.22996e-05
1.77393e-05
8.11663e-05
-1.22199e-05
1.6139e-05
8.00946e-05
-9.29309e-06
1.39081e-05
8.1299e-05
-3.98346e-06
1.15752e-05
8.35403e-05
4.02314e-07
1.00553e-05
8.63064e-05
-2.75267e-06
1.08172e-05
8.92429e-05
-1.74013e-05
1.46659e-05
9.18024e-05
-3.93166e-05
2.01825e-05
9.45288e-05
-5.98134e-05
2.44375e-05
0.000100285
-7.14227e-05
2.44878e-05
0.000111237
-6.87758e-05
1.85818e-05
0.000124206
-5.17284e-05
7.28788e-06
0.000133187
-2.77875e-05
-6.27992e-06
0.000135688
-9.7703e-06
-1.54525e-05
0.000133129
-5.04325e-06
-1.69427e-05
0.000127877
-7.13998e-06
-1.36999e-05
0.000121527
-7.39278e-06
-1.15599e-05
0.000114171
-5.1608e-06
-1.27595e-05
0.000105949
-3.29465e-06
-1.5594e-05
9.84017e-05
-1.2882e-06
-1.80739e-05
9.35199e-05
9.20109e-07
-2.00008e-05
9.25074e-05
-1.61989e-06
-2.20605e-05
-1.22846e-05
-2.38984e-05
0.00011945
-3.32056e-05
-3.2943e-05
0.000123301
-4.29235e-05
-3.32636e-05
0.000129251
-4.08926e-05
-2.93678e-05
0.00014092
-4.08272e-05
-2.14461e-05
0.000158213
-4.3138e-05
-9.0756e-06
0.000170505
-3.55819e-05
7.53576e-06
0.00016994
-1.92051e-05
2.18408e-05
0.000162958
-8.32379e-06
2.77957e-05
0.000159083
-5.4648e-06
2.54366e-05
0.000159847
-5.44095e-06
2.12517e-05
0.000161334
-5.23325e-06
2.14896e-05
0.000160898
-4.68825e-06
2.42208e-05
0.000159218
-3.73194e-06
2.27167e-05
0.000157187
-2.65542e-06
1.66782e-05
0.000153047
-2.57781e-06
1.29154e-05
0.000143825
-3.82285e-06
1.49862e-05
0.000129458
-5.83379e-06
1.92065e-05
0.000114408
-8.40073e-06
2.10679e-05
0.000103745
-1.0579e-05
2.02276e-05
9.90795e-05
-9.90996e-06
1.81633e-05
9.88772e-05
-4.77756e-06
1.57552e-05
0.000101194
8.25715e-07
1.37624e-05
0.00010494
-2.31348e-06
1.37855e-05
0.000109082
-1.91504e-05
1.71108e-05
0.000112057
-4.40397e-05
2.24663e-05
0.000112603
-6.75012e-05
2.81003e-05
0.000112965
-8.30019e-05
3.21902e-05
0.000119166
-8.5921e-05
3.13469e-05
0.000133822
-7.34776e-05
2.24851e-05
0.000151289
-4.8681e-05
6.5826e-06
0.000162965
-2.39557e-05
-9.72123e-06
0.000165029
-1.17334e-05
-1.67184e-05
0.000160129
-9.0198e-06
-1.52897e-05
0.000153402
-7.68688e-06
-1.1785e-05
0.000146811
-5.42137e-06
-1.08642e-05
0.000139428
-2.95771e-06
-1.28367e-05
0.000131502
4.81561e-07
-1.5783e-05
0.000124663
4.16907e-06
-1.90952e-05
0.000119976
1.31862e-06
-2.34759e-05
-1.3254e-05
-2.88202e-05
0.00014668
-3.20457e-05
-3.63935e-05
0.000144447
-4.92245e-05
-4.29431e-05
0.00014543
-5.01169e-05
-4.3323e-05
0.00015153
-5.08908e-05
-3.66903e-05
0.000167011
-6.00631e-05
-2.40846e-05
0.000186391
-5.93191e-05
-6.93729e-06
0.000194529
-3.86634e-05
1.31645e-05
0.000188388
-1.59928e-05
2.62417e-05
0.000181183
-8.41055e-06
2.76412e-05
0.000182698
-1.04389e-05
2.15121e-05
0.000188683
-1.07926e-05
1.87761e-05
0.00019054
-7.22287e-06
2.30737e-05
0.000187931
-3.80936e-06
2.58495e-05
0.000186704
-3.76146e-06
2.10471e-05
0.000188034
-6.2757e-06
1.4578e-05
0.000185493
-7.55327e-06
1.44939e-05
0.000173248
-5.74027e-06
1.96277e-05
0.000153837
-3.92921e-06
2.36071e-05
0.000135516
-5.09714e-06
2.39649e-05
0.00012433
-6.70662e-06
2.22848e-05
0.000120716
-3.7869e-06
2.01417e-05
0.00012245
1.36441e-06
1.79312e-05
0.00012739
-1.79848e-06
1.66081e-05
0.000133459
-1.92676e-05
1.77155e-05
0.00013838
-4.4388e-05
2.09711e-05
0.000139635
-6.7691e-05
2.61349e-05
0.000136678
-8.35095e-05
3.29423e-05
0.000135293
-9.00354e-05
3.85021e-05
0.000144123
-8.55793e-05
3.56033e-05
0.000163729
-6.81016e-05
2.07688e-05
0.000183542
-4.33987e-05
1.28083e-06
0.000190315
-2.0918e-05
-1.26079e-05
0.000181767
-6.1508e-06
-1.54613e-05
0.000169671
-1.24861e-06
-1.22357e-05
0.000164094
-4.16819e-06
-8.40712e-06
0.000163683
-6.13821e-06
-7.50057e-06
0.000163019
-1.16705e-06
-9.62023e-06
0.000160593
7.06677e-06
-1.36199e-05
0.000157042
7.3124e-06
-1.93143e-05
-7.17418e-06
-2.72469e-05
0.000184422
-2.11925e-05
-3.16266e-05
0.000174939
-4.37355e-05
-4.56799e-05
0.00017011
-5.10562e-05
-5.42755e-05
0.000171223
-5.27987e-05
-5.22283e-05
0.00018049
-6.54242e-05
-3.98452e-05
0.000198974
-7.65759e-05
-2.11358e-05
0.000216053
-6.38578e-05
1.08215e-06
0.000218207
-3.26776e-05
2.03658e-05
0.000208338
-1.2397e-05
2.7594e-05
0.000202617
-1.27455e-05
2.2175e-05
0.000209239
-1.89376e-05
1.49684e-05
0.0002179
-1.50615e-05
1.63558e-05
0.000216541
-2.94212e-06
2.16026e-05
0.000209729
2.36886e-06
2.05011e-05
0.000210151
-6.61851e-06
1.42906e-05
0.000217655
-1.85017e-05
1.25102e-05
0.000217848
-1.79019e-05
1.8225e-05
0.000202633
-7.31877e-06
2.46685e-05
0.00017945
2.24907e-07
2.66411e-05
0.000159771
1.32872e-06
2.54845e-05
0.000149291
1.86545e-06
2.43664e-05
0.000148124
2.98699e-06
2.33246e-05
0.000153751
-3.58649e-06
2.10403e-05
0.000162288
-2.2492e-05
1.82067e-05
0.000169689
-4.54487e-05
1.66073e-05
0.000172645
-6.44328e-05
1.91105e-05
0.000169355
-7.66399e-05
2.73444e-05
0.000162679
-8.22324e-05
3.85083e-05
0.00016278
-8.4105e-05
4.32118e-05
0.000177215
-7.89526e-05
3.24997e-05
0.000198151
-6.15277e-05
1.14878e-05
0.000207407
-3.11321e-05
-7.36813e-06
0.000196653
-6.09742e-07
-1.47534e-05
0.00017837
1.24291e-05
-1.2999e-05
0.000168576
4.54945e-06
-6.46449e-06
0.000170771
-7.03307e-06
-6.06999e-07
0.000179131
-6.25706e-06
7.85648e-07
0.000187757
4.231e-06
-1.98007e-06
0.000193364
9.9213e-06
-8.38359e-06
1.65442e-06
-1.81621e-05
0.000226302
-7.52493e-06
-1.83714e-05
0.000213826
-2.696e-05
-3.95421e-05
0.000201699
-4.05281e-05
-5.79305e-05
0.000197976
-4.77478e-05
-6.51322e-05
0.000203002
-6.18447e-05
-5.6909e-05
0.000215869
-8.0667e-05
-3.77487e-05
0.000234121
-8.26617e-05
-1.45626e-05
0.000246936
-5.85682e-05
9.43548e-06
0.000244981
-2.67025e-05
2.37445e-05
0.000233361
-1.3962e-05
2.30687e-05
0.000228172
-1.9705e-05
1.35041e-05
0.000236409
-2.33026e-05
9.00039e-06
0.000245283
-1.03825e-05
1.31641e-05
0.000242258
5.87338e-06
1.65861e-05
0.000234788
1.71633e-06
1.36123e-05
0.000238293
-2.21352e-05
1.03029e-05
0.000249764
-3.74104e-05
1.45689e-05
0.00024992
-2.62284e-05
2.29868e-05
0.000232227
-4.25169e-06
2.72251e-05
0.000207656
9.77768e-06
2.64795e-05
0.000188379
1.40676e-05
2.66182e-05
0.000180422
9.93407e-06
2.88405e-05
0.000184177
-5.9052e-06
2.75998e-05
0.000195118
-3.12254e-05
2.00011e-05
0.00020653
-5.27136e-05
1.01667e-05
0.00021236
-6.32942e-05
6.22891e-06
0.000209537
-6.73426e-05
1.43274e-05
0.000199398
-6.76988e-05
3.12989e-05
0.00019071
-7.06503e-05
4.49601e-05
0.000195186
-7.61838e-05
4.09775e-05
0.000211368
-7.07836e-05
2.02877e-05
0.000221906
-3.99887e-05
-1.60543e-06
0.000214379
2.56425e-06
-1.33071e-05
0.000196576
2.56476e-05
-1.4575e-05
0.000183591
1.72734e-05
-8.04027e-06
0.000181805
-1.69132e-06
1.92516e-06
0.000189236
-7.75621e-06
9.88507e-06
0.000202029
1.58607e-07
1.26038e-05
0.000217058
7.23287e-06
9.36308e-06
5.02356e-06
-7.5655e-07
0.000263544
-1.8191e-06
1.39997e-06
0.000257236
-6.82817e-06
-2.62564e-05
0.000241262
-1.95822e-05
-5.3218e-05
0.000231249
-3.52452e-05
-7.06719e-05
0.000233357
-5.4054e-05
-7.12853e-05
0.000242765
-7.49598e-05
-5.6034e-05
0.000255959
-8.82266e-05
-3.23048e-05
0.0002709
-8.01402e-05
-6.93005e-06
0.000278606
-5.18231e-05
1.48912e-05
0.000272095
-2.36973e-05
2.13797e-05
0.000258597
-1.551e-05
1.33853e-05
0.000254804
-2.09284e-05
4.49136e-06
0.000264935
-1.86385e-05
6.06752e-06
0.000274478
-3.75756e-06
1.32232e-05
0.000271803
2.87794e-06
1.50318e-05
0.000265573
-1.5838e-05
1.0937e-05
0.000270877
-4.49914e-05
1.07138e-05
0.00028231
-5.0217e-05
1.83369e-05
0.000281066
-2.47373e-05
2.48956e-05
0.000262855
7.53372e-06
2.5011e-05
0.000239639
2.5725e-05
2.62245e-05
0.000223469
2.34616e-05
3.23068e-05
0.000219667
6.80675e-07
3.27751e-05
0.000227514
-3.44163e-05
2.00014e-05
0.000242359
-6.15391e-05
1.20912e-06
0.000254741
-6.8869e-05
-9.16413e-06
0.000255775
-6.10832e-05
-4.87976e-06
0.000243994
-5.28469e-05
1.70371e-05
0.000227686
-5.06764e-05
4.06938e-05
0.000220628
-5.99799e-05
4.68319e-05
0.000227951
-6.58904e-05
2.96484e-05
0.000237384
-4.29247e-05
6.1058e-06
0.000235984
2.8747e-06
-1.00901e-05
0.000225454
3.29238e-05
-1.63653e-05
0.000214958
2.80019e-05
-1.46437e-05
0.000209454
7.26461e-06
-5.46912e-06
0.000210075
-1.98388e-06
6.2017e-06
0.000217005
1.52728e-06
1.62724e-05
0.000231703
3.99565e-06
2.11577e-05
8.62436e-07
1.75303e-05
0.000294794
-8.69269e-06
1.42919e-05
0.000300252
3.57368e-06
-1.17801e-05
0.000287582
2.48632e-06
-4.39652e-05
0.000273059
-1.74337e-05
-6.88713e-05
0.000270554
-4.35088e-05
-7.81491e-05
0.000278495
-6.57282e-05
-7.05441e-05
0.000287954
-8.24548e-05
-5.10157e-05
0.000297317
-8.90429e-05
-2.49631e-05
0.000305763
-7.46003e-05
1.16621e-06
0.000305716
-4.1437e-05
1.53446e-05
0.00029479
-1.5067e-05
1.21433e-05
0.000284442
-1.16898e-05
2.41355e-06
0.000287185
-1.81855e-05
1.58962e-06
0.000299946
-1.55378e-05
1.06263e-05
0.000307714
-6.92449e-06
1.73617e-05
0.000303804
-1.2898e-05
1.44796e-05
0.000298586
-3.84911e-05
8.68247e-06
0.000303388
-5.80186e-05
1.07803e-05
0.000311517
-4.63723e-05
1.80986e-05
0.00030838
-1.09473e-05
2.2384e-05
0.000291822
2.17665e-05
2.71072e-05
0.00027265
3.27645e-05
3.49786e-05
0.000260011
1.84201e-05
3.30405e-05
0.000257676
-1.70744e-05
1.34034e-05
0.000268775
-5.71716e-05
-9.45322e-06
0.000288806
-7.62396e-05
-2.25151e-05
0.00030044
-6.65022e-05
-1.83313e-05
0.000292505
-4.68456e-05
2.68535e-06
0.000271733
-3.42092e-05
3.24829e-05
0.000254532
-3.74842e-05
4.95669e-05
0.000251574
-4.7134e-05
3.98472e-05
0.000257172
-3.39538e-05
1.56585e-05
0.000259943
5.55812e-06
-4.93201e-06
0.000257784
3.49575e-05
-1.7085e-05
0.000254188
3.22607e-05
-2.18984e-05
0.000250071
1.44373e-05
-1.78796e-05
0.000245708
6.34483e-06
-6.94195e-06
0.000244403
9.25992e-06
5.05416e-06
0.000251983
4.71587e-06
1.5776e-05
-7.96033e-06
2.15313e-05
0.000325878
-1.98628e-05
1.15418e-05
0.000342447
-1.14582e-07
-4.17406e-06
0.000339134
1.44766e-05
-3.44441e-05
0.000324149
3.12279e-07
-6.34857e-05
0.000315565
-2.79991e-05
-7.98173e-05
0.000320099
-5.16863e-05
-7.96261e-05
0.000328949
-6.97326e-05
-6.66082e-05
0.000333863
-8.51162e-05
-4.38019e-05
0.000336176
-8.54797e-05
-1.58689e-05
0.000335892
-5.82174e-05
5.87204e-06
0.000329274
-1.99986e-05
9.60396e-06
0.000319955
-2.27301e-06
1.68365e-06
0.000318253
-9.40716e-06
-1.07197e-06
0.000328308
-1.92971e-05
7.50748e-06
0.000341002
-1.72736e-05
1.87995e-05
0.000344753
-1.53616e-05
2.04014e-05
0.000338254
-2.90389e-05
1.15545e-05
0.000330034
-4.80173e-05
5.01595e-06
0.000326458
-4.96787e-05
1.00526e-05
0.000323717
-2.79586e-05
2.1412e-05
0.000316252
3.55725e-06
3.21929e-05
0.000306305
2.684e-05
3.60413e-05
0.000298707
3.02251e-05
2.5225e-05
0.00029389
6.73599e-06
8.96198e-07
0.000297224
-3.74879e-05
-2.20138e-05
0.000316352
-7.45425e-05
-3.17018e-05
0.000338194
-7.80332e-05
-2.3768e-05
0.000339749
-5.41415e-05
-3.23724e-06
0.000318773
-2.91948e-05
2.65141e-05
0.000294387
-2.01195e-05
5.00782e-05
0.000283182
-2.34958e-05
4.93277e-05
0.000284958
-1.47783e-05
2.73444e-05
0.000290139
1.39247e-05
3.09955e-06
0.000294373
3.56891e-05
-1.48957e-05
0.000297903
3.00593e-05
-2.60442e-05
0.000299096
1.41207e-05
-2.84424e-05
0.000295807
1.03711e-05
-2.26917e-05
0.000290586
1.56631e-05
-1.29924e-05
0.000290338
9.17079e-06
-2.03104e-06
-1.1909e-05
8.84417e-06
0.000355866
-2.0102e-05
3.21776e-06
0.000376928
-6.3401e-06
-5.35265e-06
0.000387506
1.49537e-05
-2.86494e-05
0.000379954
1.2157e-05
-5.6213e-05
0.000368578
-9.53915e-06
-7.69208e-05
0.000368667
-3.10803e-05
-8.40252e-05
0.000377741
-5.08822e-05
-7.79242e-05
0.00038293
-7.3063e-05
-6.06749e-05
0.000379912
-8.48269e-05
-3.40895e-05
0.000373617
-6.6313e-05
-8.4591e-06
0.000366109
-2.56425e-05
3.98085e-06
0.000358445
4.14858e-06
1.50649e-06
0.000355499
3.74306e-06
-1.25294e-06
0.000362399
-1.27524e-05
5.70106e-06
0.000375796
-2.07148e-05
1.91013e-05
0.000384557
-1.93026e-05
2.66989e-05
0.000379587
-2.30919e-05
2.00145e-05
0.000362084
-3.22531e-05
7.31748e-06
0.000341967
-3.52451e-05
4.99424e-06
0.000329265
-2.64036e-05
1.46524e-05
0.00032686
-8.62691e-06
2.32046e-05
0.000332093
1.16037e-05
2.03289e-05
0.00033913
2.56092e-05
4.99099e-06
0.000341323
1.88401e-05
-1.57846e-05
0.00034213
-1.46487e-05
-3.44249e-05
0.000354024
-5.96071e-05
-3.91399e-05
0.000375704
-8.278e-05
-2.5848e-05
0.000384207
-6.66352e-05
-2.49354e-06
0.000366045
-3.30058e-05
2.50931e-05
0.000337338
-1.09154e-05
4.87191e-05
0.000320323
-4.91039e-06
5.38838e-05
0.00031982
3.93443e-06
3.61926e-05
0.000326303
2.49872e-05
1.10573e-05
0.000331106
3.95368e-05
-8.54111e-06
0.000333962
3.06115e-05
-2.17818e-05
0.000338054
1.16379e-05
-3.0269e-05
0.00034263
5.21706e-06
-3.28425e-05
0.000344137
1.19407e-05
-2.82094e-05
0.000341904
1.13773e-05
-1.6729e-05
-6.46979e-06
-3.44704e-06
0.000381876
-7.03492e-06
3.56729e-06
0.000399182
-1.02554e-06
-6.20364e-06
0.000421481
1.37584e-05
-2.51806e-05
0.000429853
1.71779e-05
-4.81868e-05
0.000424765
6.82922e-06
-6.98494e-05
0.000424246
-7.73235e-06
-8.34891e-05
0.00043431
-2.76381e-05
-8.50876e-05
0.000441848
-5.52645e-05
-7.47153e-05
0.000436423
-7.55468e-05
-5.32784e-05
0.00042308
-6.54326e-05
-2.64482e-05
0.000410562
-2.77767e-05
-6.77057e-06
0.000402269
7.13593e-06
5.61456e-07
0.000398938
1.48651e-05
2.17174e-06
0.000402562
1.4022e-07
6.84275e-06
0.000412031
-1.44063e-05
1.67569e-05
0.000420028
-1.90605e-05
2.71651e-05
0.000417613
-2.13713e-05
2.82356e-05
0.000402143
-2.27848e-05
1.62038e-05
0.000380108
-1.86248e-05
2.02784e-06
0.00036369
-1.21152e-05
-2.03288e-06
0.000361285
-7.94819e-06
1.59576e-06
0.000371626
-2.68889e-06
2.65611e-06
0.000384712
7.37651e-06
-4.26113e-06
0.000390718
1.46934e-05
-1.85338e-05
0.000391724
6.8568e-07
-3.24173e-05
0.000398905
-3.78179e-05
-3.61113e-05
0.00041621
-7.53141e-05
-2.41957e-05
0.000426884
-7.54409e-05
-1.99523e-06
0.000413635
-4.02586e-05
2.29151e-05
0.000385753
-6.35674e-06
4.6229e-05
0.000364955
9.75353e-06
5.5812e-05
0.000358539
2.04129e-05
4.24364e-05
0.00035812
3.65694e-05
1.94326e-05
0.000356031
4.49796e-05
4.61957e-06
0.000354311
3.17917e-05
-3.28873e-06
0.000358917
6.99833e-06
-1.3839e-05
0.000370324
-7.02325e-06
-2.57308e-05
0.000381249
-3.17759e-06
-2.74006e-05
0.000383735
4.42288e-06
-1.48576e-05
3.93724e-07
6.2357e-08
0.000415438
1.14711e-05
1.31275e-05
0.000425117
1.81822e-05
4.15122e-06
0.000447719
2.49284e-05
-1.83387e-05
0.000469159
2.32492e-05
-4.01853e-05
0.000479662
1.62513e-05
-5.87178e-05
0.00048734
9.87028e-06
-7.36167e-05
0.000500368
-4.52779e-06
-8.28259e-05
0.000509492
-3.22706e-05
-8.28544e-05
0.000502297
-5.73664e-05
-6.99167e-05
0.000482406
-5.36538e-05
-4.62592e-05
0.000462873
-2.15991e-05
-2.20945e-05
0.000450705
1.10468e-05
-6.764e-06
0.000445933
1.97684e-05
2.31671e-06
0.000447602
8.81988e-06
9.62993e-06
0.000452524
-4.85345e-06
1.77421e-05
0.00045434
-1.12944e-05
2.58257e-05
0.00044892
-1.55589e-05
2.94219e-05
0.000437848
-1.69307e-05
2.07091e-05
0.000425585
-9.5603e-06
1.86285e-06
0.000417391
-1.57459e-06
-1.15059e-05
0.000417865
-5.62514e-06
-1.00269e-05
0.000425999
-1.52541e-05
-1.80664e-06
0.000433754
-1.21312e-05
1.70444e-07
0.000434554
4.13661e-06
-6.07835e-06
0.000432762
8.92577e-06
-1.52136e-05
0.000437929
-1.64718e-05
-2.01213e-05
0.0004531
-5.81346e-05
-1.45219e-05
0.000467375
-7.6024e-05
2.30387e-06
0.000463978
-4.94835e-05
2.40263e-05
0.000443561
-5.98697e-06
4.3256e-05
0.00042041
2.46026e-05
5.23256e-05
0.000403033
3.81231e-05
4.56779e-05
0.000390126
4.59168e-05
2.98834e-05
0.000381443
4.76866e-05
1.70152e-05
0.000380351
3.41467e-05
1.0585e-05
0.000387915
8.21326e-06
4.47707e-06
0.000402189
-1.39394e-05
-6.4057e-06
0.000416072
-1.68615e-05
-1.46783e-05
0.00042164
-5.60419e-06
-9.74555e-06
5.53461e-06
4.98748e-06
0.000456354
2.73153e-05
2.17425e-05
0.000463246
3.84247e-05
1.80228e-05
0.000480949
4.10547e-05
2.66605e-06
0.000503272
3.07309e-05
-1.9598e-05
0.000524143
1.59791e-05
-3.94208e-05
0.000544927
8.9048e-06
-5.69335e-05
0.000566019
3.82163e-06
-7.10504e-05
0.000577853
-1.22357e-05
-7.93724e-05
0.000570377
-3.27207e-05
-7.74318e-05
0.000547813
-3.41619e-05
-6.16549e-05
0.000523923
-1.09915e-05
-3.70233e-05
0.000506532
1.54456e-05
-1.54563e-05
0.000496624
2.30871e-05
-2.60669e-06
0.000492355
1.48452e-05
7.11728e-06
0.000491328
4.64561e-06
1.7142e-05
0.000488749
-1.6874e-06
2.6778e-05
0.000482702
-6.64642e-06
2.91133e-05
0.000477052
-8.7707e-06
1.78365e-05
0.000477098
-3.22883e-06
-3.08964e-06
0.000483297
2.00551e-06
-1.71611e-05
0.000490488
-8.07343e-06
-1.21254e-05
0.000490979
-2.55497e-05
4.72064e-06
0.000482993
-2.6734e-05
1.5774e-05
0.000473715
-5.30663e-06
1.43868e-05
0.000472568
1.37593e-05
8.55947e-06
0.000482463
4.84589e-06
4.00158e-06
0.000498889
-3.26841e-05
2.73422e-06
0.000512602
-6.35706e-05
8.91157e-06
0.000512915
-5.15752e-05
2.40504e-05
0.000496732
-5.59367e-06
4.12619e-05
0.000472624
3.56798e-05
4.91596e-05
0.000447641
5.35963e-05
4.14039e-05
0.000426707
5.51549e-05
2.87328e-05
0.000415755
5.07798e-05
2.48934e-05
0.000417393
4.00144e-05
2.79608e-05
0.000428464
2.11232e-05
2.53184e-05
0.000443085
7.96281e-07
1.32848e-05
0.000455244
-7.85086e-06
2.29645e-06
0.000460314
-7.02377e-07
2.07395e-06
1.35397e-05
1.26907e-05
0.000516909
3.4017e-05
2.8993e-05
0.000518295
4.45448e-05
3.77777e-05
0.000528436
4.87988e-05
2.78348e-05
0.000544814
3.6814e-05
4.20232e-06
0.000565486
1.19993e-05
-1.9522e-05
0.0005912
-7.99492e-06
-3.45488e-05
0.000617973
-1.28021e-05
-4.69663e-05
0.0006339
-1.07482e-05
-6.26689e-05
0.000630839
-1.23744e-05
-7.55956e-05
0.000615614
-1.19847e-05
-7.51803e-05
0.000599781
2.82615e-07
-5.84793e-05
0.00058679
1.67075e-05
-3.36066e-05
0.000572882
2.34067e-05
-1.26624e-05
0.000557032
2.02672e-05
8.69871e-07
0.000542418
1.46224e-05
1.11642e-05
0.00053227
7.12432e-06
2.13484e-05
0.000527993
-3.94076e-06
2.9198e-05
0.000532582
-1.50289e-05
2.87665e-05
0.00054857
-2.04598e-05
1.74016e-05
0.000569859
-2.25811e-05
3.18702e-06
0.000581726
-2.84168e-05
2.11529e-07
0.000574049
-3.59044e-05
1.64287e-05
0.000552493
-3.11596e-05
4.18834e-05
0.000533276
-7.12553e-06
5.53119e-05
0.000528606
2.27591e-05
4.51206e-05
0.000537853
3.21389e-05
1.81727e-05
0.000552531
6.18384e-06
-3.14557e-06
0.000564226
-3.40978e-05
-2.81937e-06
0.000563744
-4.3984e-05
1.38887e-05
0.000545704
-9.19107e-06
3.34075e-05
0.000516966
3.85689e-05
4.36684e-05
0.000488313
6.66455e-05
4.06236e-05
0.000468478
7.31065e-05
3.09189e-05
0.00046164
6.8525e-05
2.59442e-05
0.000465884
5.72238e-05
2.75393e-05
0.000476417
3.97535e-05
2.79273e-05
0.000490113
2.14336e-05
2.05259e-05
0.000504783
1.18255e-05
8.69645e-06
0.000515902
1.46256e-05
3.42872e-06
2.37036e-05
1.21633e-05
0.000569931
3.23255e-05
3.63831e-05
0.000570073
3.42645e-05
4.58556e-05
0.000579768
3.14625e-05
4.56668e-05
0.000596757
1.84324e-05
3.04591e-05
0.000616238
-2.37401e-06
2.57367e-06
0.000637842
-2.10281e-05
-2.50524e-05
0.000663112
-2.73487e-05
-4.33717e-05
0.000685789
-2.04634e-05
-5.35678e-05
0.000693617
-7.55058e-06
-6.14484e-05
0.00068371
5.87668e-06
-6.78145e-05
0.000667338
1.85512e-05
-6.61146e-05
0.000655658
2.68572e-05
-5.32789e-05
0.000648889
2.65865e-05
-3.536e-05
0.000640855
2.06588e-05
-1.95559e-05
0.000628141
1.53882e-05
-7.88391e-06
0.000612484
9.62959e-06
2.5945e-06
0.000599306
-8.80249e-07
1.49807e-05
0.000596899
-1.69567e-05
2.76185e-05
0.000610942
-3.55936e-05
3.3387e-05
0.000634268
-5.21208e-05
2.90373e-05
0.000649081
-5.94721e-05
2.13176e-05
0.000643575
-5.17407e-05
2.43572e-05
0.00062323
-3.00656e-05
4.36415e-05
0.000602459
9.72724e-07
6.08006e-05
0.000589849
3.01152e-05
5.27382e-05
0.000586495
4.06555e-05
1.86024e-05
0.000591461
2.10745e-05
-1.63389e-05
0.000602747
-1.83118e-05
-2.58267e-05
0.000609685
-4.25769e-05
-6.73503e-06
0.000601388
-2.33952e-05
1.98404e-05
0.00057954
2.54433e-05
3.81893e-05
0.000558269
6.68282e-05
4.16704e-05
0.000547939
8.67662e-05
3.0705e-05
0.000548303
8.80826e-05
1.36733e-05
0.000552841
7.50225e-05
1.31227e-06
0.000557112
5.32881e-05
-1.88611e-06
0.000561721
3.20632e-05