/*--------------------------------*- C++ -*----------------------------------*\
| =========                 |                                                 |
| \\      /  F ield         | OpenFOAM: The Open Source CFD Toolbox           |
|  \\    /   O peration     | Version:  2306                                  |
|   \\  /    A nd           | Website:  www.openfoam.com                      |
|    \\/     M anipulation  |                                                 |
\*---------------------------------------------------------------------------*/
FoamFile
{
    version     2.0;
    format      ascii;
    arch        "LSB;label=32;scalar=64";
    class       volVectorField;
    location    "5.5";
    object      U;
}
// * * * * * * * * * * * * * * * * * * * * * * * * * * * * * * * * * * * * * //

dimensions      [0 1 -1 0 0 0 0];

internalField   nonuniform List<vector> 
60000
(
(0.00846449 3.31493e-05 0.000620579)
(0.00915084 3.83452e-05 0.00110738)
(0.00960229 4.89869e-05 0.00178482)
(0.00968082 4.82373e-05 0.00241639)
(0.00941304 3.2616e-05 0.00274759)
(0.00901503 1.38191e-05 0.00271585)
(0.00870996 2.69147e-06 0.00240992)
(0.00851562 5.21348e-07 0.00197392)
(0.00835769 1.93643e-06 0.0015241)
(0.00818245 -9.74993e-08 0.00116593)
(0.00789284 -5.64689e-06 0.000985624)
(0.00736195 -1.07058e-05 0.000975885)
(0.00662482 -9.7428e-06 0.00104796)
(0.00591987 -4.63547e-06 0.00110886)
(0.00549559 -8.09363e-07 0.00112186)
(0.00541302 -5.43105e-06 0.00103681)
(0.00555624 -1.68773e-05 0.000810323)
(0.00574865 -2.17354e-05 0.000524769)
(0.00589416 -1.41874e-05 0.000271628)
(0.00606185 -3.78886e-06 5.28962e-05)
(0.00634859 4.4178e-06 -0.000126255)
(0.0066989 1.76809e-05 -0.000259389)
(0.00700147 2.72547e-05 -0.000382105)
(0.0072575 2.73659e-05 -0.000580948)
(0.00755453 1.25111e-05 -0.000930122)
(0.00796036 -6.37936e-06 -0.00147554)
(0.00843847 -1.91629e-05 -0.00206827)
(0.00879018 -2.19436e-05 -0.00242698)
(0.00879913 -1.81583e-05 -0.00248781)
(0.00840327 -7.45739e-06 -0.00248978)
(0.00770431 9.90369e-06 -0.00246026)
(0.00693354 1.5208e-05 -0.00227694)
(0.00634175 4.50717e-06 -0.00208064)
(0.00601903 -7.47477e-07 -0.00198953)
(0.00594801 2.90937e-06 -0.00186595)
(0.00610944 4.81279e-06 -0.00152846)
(0.0064084 1.37969e-05 -0.000957448)
(0.00675411 2.64587e-05 -0.000332297)
(0.00717711 3.92336e-05 0.000116312)
(0.00775407 3.9738e-05 0.000361088)
(0.0254779 0.000156577 0.00182844)
(0.0274615 0.000205757 0.00322554)
(0.028905 0.000279112 0.00498748)
(0.0294586 0.000279203 0.00648584)
(0.0289736 0.00019257 0.00715194)
(0.0278505 8.29905e-05 0.00691304)
(0.0268008 1.43905e-05 0.00609161)
(0.0260992 8.31624e-07 0.00505213)
(0.0256013 1.05e-05 0.00401594)
(0.0250783 1.05514e-05 0.00316935)
(0.0241998 6.36361e-07 0.00267795)
(0.0226444 -1.38409e-05 0.00257959)
(0.020567 -4.11128e-05 0.00275004)
(0.0185903 -8.81214e-05 0.00295437)
(0.0173179 -0.000144692 0.00297827)
(0.0168834 -0.000197982 0.00267433)
(0.016976 -0.000223581 0.00206004)
(0.0172221 -0.000188592 0.00136611)
(0.0175134 -0.000111406 0.000754694)
(0.0180085 -4.07435e-05 0.000226809)
(0.0188171 1.67893e-05 -0.000218453)
(0.0197895 8.00624e-05 -0.000592376)
(0.0207716 0.000104625 -0.000986415)
(0.0218312 4.7343e-05 -0.00157698)
(0.0231127 -8.30988e-05 -0.00254849)
(0.0246349 -0.000203105 -0.00396706)
(0.0261594 -0.000241817 -0.0054364)
(0.0271279 -0.00018198 -0.00632223)
(0.0270088 -6.90767e-05 -0.00652874)
(0.0257394 4.92916e-05 -0.00647888)
(0.0237748 0.000119245 -0.00619121)
(0.0217682 7.80001e-05 -0.00567353)
(0.0201024 -2.59076e-05 -0.005381)
(0.0188646 -7.28739e-05 -0.00534083)
(0.0182144 -5.81068e-05 -0.0050001)
(0.0183354 -1.84142e-05 -0.00395457)
(0.0190426 6.18217e-05 -0.00236158)
(0.0200868 0.00015321 -0.000784541)
(0.0215037 0.000204753 0.000308261)
(0.0233615 0.000181344 0.000991616)
(0.042337 0.000300789 0.00231472)
(0.0457842 0.00040857 0.00447254)
(0.048584 0.000553695 0.00715526)
(0.0501656 0.000531843 0.00944706)
(0.0499402 0.000344763 0.0105279)
(0.0481674 0.000130909 0.0102484)
(0.0461142 5.02379e-06 0.00909843)
(0.0446692 -1.85512e-05 0.00767841)
(0.0437658 7.78979e-08 0.0063013)
(0.0429579 1.86981e-06 0.0051251)
(0.0416754 -1.34611e-05 0.00427821)
(0.0393958 -3.88322e-05 0.00388735)
(0.0362571 -0.000110037 0.00399756)
(0.0330273 -0.000244767 0.00436855)
(0.0305678 -0.000405056 0.00452764)
(0.0292681 -0.000533355 0.00412129)
(0.028849 -0.000568321 0.00323756)
(0.028847 -0.000461668 0.00226943)
(0.0291366 -0.000273692 0.00143106)
(0.0298783 -0.000103491 0.000706471)
(0.0311328 3.64995e-05 8.18613e-05)
(0.0326944 0.000158723 -0.000460921)
(0.0344192 0.000164592 -0.00101598)
(0.0364306 -3.83476e-05 -0.00180731)
(0.0388823 -0.000390034 -0.00314916)
(0.0417166 -0.000682001 -0.00522158)
(0.0445032 -0.00075097 -0.00751564)
(0.0463384 -0.000565733 -0.00908221)
(0.0463708 -0.000242632 -0.00965137)
(0.0445181 7.61847e-05 -0.00963643)
(0.041571 0.000227621 -0.00905918)
(0.0385339 0.000110876 -0.00816391)
(0.0357993 -0.000119232 -0.00780399)
(0.0333439 -0.000208299 -0.00802299)
(0.0314868 -0.000166523 -0.00783187)
(0.030877 -6.47621e-05 -0.0064486)
(0.031561 0.000119538 -0.00410694)
(0.0331533 0.000329584 -0.00174945)
(0.0355586 0.000431106 -9.58251e-05)
(0.0387402 0.000360235 0.000984607)
(0.0579717 0.000302032 0.00126033)
(0.063091 0.000476498 0.00398352)
(0.0677 0.000721012 0.0075155)
(0.0710318 0.000683577 0.010763)
(0.0718493 0.000410884 0.0126619)
(0.0697837 0.000126247 0.012787)
(0.0665112 -2.95762e-05 0.01157)
(0.0639827 -5.7871e-05 0.00990999)
(0.0625511 -3.50273e-05 0.00838138)
(0.0615531 -3.03995e-05 0.00710501)
(0.060164 -4.07911e-05 0.00597754)
(0.0576469 -5.99113e-05 0.00508644)
(0.0539553 -0.000160736 0.00481893)
(0.0497003 -0.000392573 0.005248)
(0.0457278 -0.000698319 0.00572924)
(0.0428009 -0.000953147 0.00546852)
(0.0411142 -0.00103074 0.00445582)
(0.0403703 -0.000856251 0.00331753)
(0.0403839 -0.000537574 0.00238911)
(0.0411928 -0.000239582 0.0016195)
(0.0427463 1.22692e-05 0.00096488)
(0.0447894 0.000199358 0.000421938)
(0.0471944 0.000143719 -5.18128e-05)
(0.0500908 -0.000293942 -0.000679389)
(0.0536388 -0.000998617 -0.0019382)
(0.0577984 -0.00156853 -0.00431434)
(0.0621079 -0.00167827 -0.0074515)
(0.0653503 -0.00129473 -0.0101016)
(0.0662309 -0.000644939 -0.0115511)
(0.0644821 -6.31349e-06 -0.0119954)
(0.0610969 0.000300088 -0.0113602)
(0.0573636 0.000114486 -0.010003)
(0.0537221 -0.000262103 -0.00931785)
(0.0500121 -0.000403691 -0.00977932)
(0.0464251 -0.000340918 -0.0101845)
(0.044042 -0.000196232 -0.00917924)
(0.0437272 9.10383e-05 -0.00666021)
(0.0453278 0.000442172 -0.00379888)
(0.0484674 0.000596738 -0.00170993)
(0.052859 0.000449789 -0.000368386)
(0.0707008 -8.85035e-05 -0.00222569)
(0.0775747 9.51319e-05 0.000760489)
(0.0843717 0.000574094 0.00502886)
(0.0902601 0.000585231 0.00947263)
(0.0933004 0.000279182 0.012833)
(0.0919023 1.09187e-05 0.0141937)
(0.0875433 -0.000104344 0.013467)
(0.0835553 -0.000113617 0.0116928)
(0.0813605 -9.44734e-05 0.0100518)
(0.0802386 -9.42701e-05 0.00893811)
(0.079045 -9.62981e-05 0.00789306)
(0.0768182 -8.53437e-05 0.00653603)
(0.0732528 -0.000162948 0.00549237)
(0.0686081 -0.000433684 0.00558372)
(0.0633089 -0.000867898 0.00641983)
(0.0581542 -0.00130056 0.00663522)
(0.0541466 -0.00151379 0.00569731)
(0.0517695 -0.00135128 0.00443629)
(0.0509532 -0.000934481 0.00351034)
(0.0514775 -0.000499295 0.00287097)
(0.053061 -0.000102658 0.00240152)
(0.0553216 0.000169332 0.0021132)
(0.0580813 2.72645e-05 0.00205725)
(0.0613838 -0.000763908 0.00208054)
(0.0653739 -0.00202774 0.00159886)
(0.0702676 -0.0031212 -0.000293512)
(0.0761591 -0.00337703 -0.0038966)
(0.0817603 -0.00262004 -0.00808754)
(0.0848342 -0.00142665 -0.0113741)
(0.0844862 -0.000318313 -0.0132294)
(0.0816492 0.00027357 -0.013232)
(0.0777882 8.21736e-05 -0.011585)
(0.0735576 -0.000426854 -0.01023)
(0.0689322 -0.000622838 -0.0105499)
(0.0637722 -0.000538755 -0.0115913)
(0.0589382 -0.000396572 -0.0115743)
(0.056147 -8.5692e-05 -0.00976426)
(0.0563518 0.000362327 -0.00710629)
(0.0593019 0.000544974 -0.00504181)
(0.0643273 0.000256994 -0.00380519)
(0.0787781 -0.00112903 -0.00846122)
(0.0864444 -0.00117648 -0.00591019)
(0.0950396 -0.000556988 -0.0016295)
(0.104196 -0.000186611 0.00382277)
(0.111269 -0.000240948 0.00937837)
(0.112525 -0.000313621 0.0133123)
(0.108092 -0.000256855 0.0143475)
(0.102515 -0.000180479 0.0129676)
(0.0992374 -0.000165014 0.0110917)
(0.0980109 -0.000193365 0.0101602)
(0.0972601 -0.000198629 0.00975966)
(0.095717 -0.000150703 0.00850265)
(0.0929113 -0.000147189 0.00653501)
(0.0888247 -0.000342854 0.00563295)
(0.0832454 -0.000791425 0.00644564)
(0.0762272 -0.00136776 0.00735721)
(0.0690777 -0.00180928 0.00684099)
(0.0636982 -0.001822 0.00551012)
(0.0609732 -0.00142769 0.00454007)
(0.0605574 -0.00089331 0.00409443)
(0.0617292 -0.000323822 0.00396781)
(0.0637846 8.71636e-05 0.00413304)
(0.0663388 -0.000162483 0.00471119)
(0.0692765 -0.00148023 0.00564719)
(0.0725498 -0.00356495 0.00645234)
(0.0763757 -0.00548976 0.00616089)
(0.0821207 -0.00627179 0.00371412)
(0.0904583 -0.005339 -0.00117555)
(0.098285 -0.0031888 -0.00719453)
(0.101905 -0.00110245 -0.0121029)
(0.101456 3.8336e-05 -0.0141514)
(0.0985334 -1.58682e-05 -0.0130627)
(0.0941881 -0.000596066 -0.0110755)
(0.089127 -0.000823852 -0.0107369)
(0.0832361 -0.000689582 -0.0119106)
(0.0765896 -0.000546486 -0.0127822)
(0.0707347 -0.000298189 -0.0122044)
(0.0677279 0.000108222 -0.0107217)
(0.068428 0.000203676 -0.00967724)
(0.0724142 -0.000367911 -0.00933846)
(0.0841247 -0.00277849 -0.0157131)
(0.0900348 -0.00328433 -0.0143652)
(0.0970958 -0.00280184 -0.0113094)
(0.106872 -0.0022631 -0.00661311)
(0.119239 -0.00192868 0.000318121)
(0.127137 -0.00132723 0.00798086)
(0.125614 -0.000720833 0.0128542)
(0.119245 -0.00033243 0.0134357)
(0.114666 -0.000227118 0.0115144)
(0.113382 -0.000306807 0.0102908)
(0.113402 -0.000373679 0.0107329)
(0.112753 -0.000300494 0.0106343)
(0.110964 -0.000182155 0.00837459)
(0.108231 -0.000220097 0.00597409)
(0.103985 -0.000513844 0.00592558)
(0.0969544 -0.00106654 0.00731687)
(0.0873049 -0.00167391 0.0076105)
(0.0778326 -0.00199551 0.00648981)
(0.0715564 -0.00183531 0.00539554)
(0.0690452 -0.00132173 0.00498403)
(0.0691874 -0.000579061 0.00508787)
(0.0707312 3.54629e-05 0.00554129)
(0.072993 -0.00034918 0.00644231)
(0.0757086 -0.00230594 0.00788345)
(0.078406 -0.00532649 0.00964592)
(0.0803405 -0.00816491 0.0111528)
(0.0826366 -0.00966759 0.0114226)
(0.0890858 -0.00911771 0.00882943)
(0.100545 -0.00653705 0.0022947)
(0.111509 -0.00312753 -0.00632192)
(0.117032 -0.000780776 -0.0124121)
(0.117177 -0.000324611 -0.0136757)
(0.113466 -0.000804305 -0.0120393)
(0.108262 -0.0009583 -0.010948)
(0.102574 -0.000727311 -0.0115805)
(0.095809 -0.000553969 -0.0126305)
(0.0884312 -0.000346819 -0.0128669)
(0.0824466 -2.48217e-05 -0.0127094)
(0.079531 -0.000201465 -0.0134402)
(0.0801839 -0.00133007 -0.0150199)
(0.0921193 -0.00449304 -0.0210271)
(0.094099 -0.00563953 -0.0216423)
(0.0974836 -0.00531257 -0.0197605)
(0.103065 -0.00507528 -0.0163129)
(0.114834 -0.00497734 -0.0105619)
(0.12979 -0.00375521 -0.00161455)
(0.135677 -0.00197317 0.00745243)
(0.130856 -0.000912467 0.0120528)
(0.12502 -0.000532866 0.011412)
(0.123903 -0.00046128 0.00938072)
(0.125593 -0.000575495 0.0098296)
(0.126345 -0.000626655 0.0115303)
(0.125289 -0.000435322 0.0105481)
(0.123873 -0.000196605 0.00710085)
(0.122218 -0.000213689 0.00533929)
(0.11797 -0.000575009 0.00644169)
(0.108707 -0.00109646 0.00758831)
(0.096 -0.00161702 0.00716812)
(0.0848779 -0.00185762 0.00619758)
(0.0785682 -0.00159395 0.00571493)
(0.0766828 -0.000767241 0.00579489)
(0.0775706 7.80645e-05 0.00619691)
(0.080098 -0.000261156 0.0069538)
(0.0835457 -0.00256492 0.00837199)
(0.0869591 -0.00619525 0.0103582)
(0.0887418 -0.00977235 0.0125756)
(0.0879871 -0.0121265 0.0148949)
(0.0884679 -0.0123465 0.0159488)
(0.0961296 -0.0101482 0.0125886)
(0.110221 -0.0062705 0.00379651)
(0.123665 -0.00262972 -0.00609544)
(0.13013 -0.00116422 -0.0115924)
(0.128466 -0.00127593 -0.0123178)
(0.123021 -0.00129782 -0.0112672)
(0.117919 -0.000806688 -0.0108999)
(0.11276 -0.000332082 -0.0113227)
(0.106463 1.07606e-05 -0.0115796)
(0.100221 0.000341258 -0.0119282)
(0.0955964 -0.000104979 -0.0138655)
(0.092797 -0.00200232 -0.0176621)
(0.106067 -0.00506348 -0.0213635)
(0.10244 -0.00732486 -0.0253146)
(0.101843 -0.00731169 -0.025299)
(0.10339 -0.00733782 -0.0222679)
(0.109662 -0.00822394 -0.0171552)
(0.124003 -0.00750361 -0.00950261)
(0.137495 -0.0043899 0.000306753)
(0.137937 -0.00183254 0.0081988)
(0.130306 -0.00119739 0.0103179)
(0.127022 -0.00120355 0.00804672)
(0.131138 -0.00100261 0.00712335)
(0.13544 -0.000852225 0.00965064)
(0.134699 -0.000827083 0.0110951)
(0.132163 -0.000706997 0.00834229)
(0.132511 -0.000495879 0.00500903)
(0.13389 -0.000335924 0.00499001)
(0.129812 -0.000425374 0.00657263)
(0.117838 -0.000757011 0.00708055)
(0.102847 -0.00123347 0.00672993)
(0.091354 -0.00143392 0.00649653)
(0.0857685 -0.000810362 0.00661517)
(0.0851059 0.0001485 0.00693077)
(0.0877147 -4.18998e-05 0.00737442)
(0.0920624 -0.00238308 0.00824133)
(0.0965904 -0.00611318 0.00970307)
(0.0995925 -0.00981196 0.0116421)
(0.0989802 -0.0125574 0.0144357)
(0.0954223 -0.0137849 0.0180153)
(0.0958976 -0.0127731 0.0187216)
(0.106066 -0.00951488 0.0127314)
(0.122652 -0.00549113 0.00227244)
(0.135437 -0.00261313 -0.00666133)
(0.134798 -0.00135383 -0.0107096)
(0.124824 -0.000972237 -0.0105549)
(0.11728 -0.000923287 -0.00886346)
(0.115889 -0.000718615 -0.00780299)
(0.116201 6.00023e-05 -0.00761733)
(0.114907 0.000961096 -0.00807925)
(0.112921 0.000772994 -0.0102324)
(0.110336 -0.00149793 -0.0151565)
(0.122824 -0.00380204 -0.0162164)
(0.115509 -0.00719607 -0.0237693)
(0.109742 -0.00801596 -0.0272988)
(0.108404 -0.00811091 -0.0258788)
(0.11057 -0.00984585 -0.0208967)
(0.119032 -0.010943 -0.013927)
(0.133396 -0.00825744 -0.00532907)
(0.142191 -0.00362621 0.00324528)
(0.138507 -0.00145592 0.00782936)
(0.13032 -0.00198057 0.00666838)
(0.12984 -0.00247326 0.0041613)
(0.137593 -0.00154184 0.00562618)
(0.141697 -0.000367607 0.00889494)
(0.137279 -0.000399276 0.00844923)
(0.132895 -0.00146571 0.00508697)
(0.136528 -0.00197907 0.00376715)
(0.142198 -0.00121583 0.00509383)
(0.138237 -0.000261577 0.00625333)
(0.124421 -0.00017192 0.00655403)
(0.108914 -0.000527292 0.00690316)
(0.0981074 -0.000407392 0.00762876)
(0.0939741 0.000242818 0.0083577)
(0.0956568 -6.86681e-05 0.00844729)
(0.100846 -0.00244537 0.00790739)
(0.106714 -0.00600168 0.00770774)
(0.110868 -0.00931211 0.0087116)
(0.111237 -0.0116179 0.0114774)
(0.107154 -0.0129552 0.0163145)
(0.102415 -0.0133977 0.0203307)
(0.105665 -0.0119863 0.0177699)
(0.119191 -0.00874129 0.00822689)
(0.133169 -0.0044382 -0.00244197)
(0.133649 -0.000750927 -0.00889359)
(0.121359 0.000745366 -0.00949528)
(0.109977 -3.37072e-05 -0.00619321)
(0.107269 -0.0011143 -0.00254065)
(0.111429 -0.00066088 -0.000699874)
(0.117368 0.000822625 -0.000743576)
(0.122496 0.00151495 -0.00284396)
(0.12529 -4.25703e-05 -0.00813608)
(0.134559 -0.00161178 -0.00761803)
(0.12983 -0.00514772 -0.0179667)
(0.120334 -0.00707732 -0.0253256)
(0.114753 -0.00762787 -0.0274436)
(0.115113 -0.00949545 -0.0241723)
(0.119668 -0.0122377 -0.0175816)
(0.129136 -0.011941 -0.00976522)
(0.140665 -0.00742203 -0.00180917)
(0.145484 -0.00272807 0.00413803)
(0.14034 -0.00169798 0.0052726)
(0.132422 -0.00318716 0.00276552)
(0.132968 -0.00343098 0.00220198)
(0.140981 -0.00100117 0.00522066)
(0.144094 0.00117711 0.00709619)
(0.13872 -0.000118146 0.00536402)
(0.134985 -0.00357794 0.00348564)
(0.141258 -0.00466277 0.00421821)
(0.148192 -0.00232018 0.00567123)
(0.143389 0.000153117 0.00615585)
(0.129384 0.00104587 0.00655781)
(0.114779 0.00105795 0.0080204)
(0.10566 0.000768748 0.0100219)
(0.104299 -0.000661102 0.0103675)
(0.10921 -0.0035846 0.00795197)
(0.116657 -0.00670504 0.00492918)
(0.122787 -0.00896801 0.00404693)
(0.12435 -0.0103057 0.00628272)
(0.120318 -0.0108821 0.0118145)
(0.112935 -0.0116298 0.0184384)
(0.109342 -0.0122827 0.0197247)
(0.116372 -0.0109 0.0122938)
(0.127953 -0.00619136 0.00110423)
(0.130393 -0.000271797 -0.00698223)
(0.120915 0.00291459 -0.00885464)
(0.109881 0.00188298 -0.00556834)
(0.104796 -0.000645083 -0.000281213)
(0.106514 -0.00132542 0.00408367)
(0.11246 3.76219e-05 0.00631434)
(0.120644 0.00135941 0.00595763)
(0.129795 0.000960848 0.00147552)
(0.13722 -7.99158e-06 0.00121415)
(0.140104 -0.00200501 -0.0103213)
(0.132222 -0.00439688 -0.0201947)
(0.123137 -0.00614037 -0.0256743)
(0.120615 -0.00835215 -0.0257953)
(0.124216 -0.0115092 -0.0210494)
(0.129977 -0.0134585 -0.0140094)
(0.137834 -0.0114909 -0.00659066)
(0.145803 -0.00644881 -7.29639e-05)
(0.147377 -0.00264732 0.00326821)
(0.140589 -0.00241742 0.00240829)
(0.133326 -0.00365146 0.000865123)
(0.13516 -0.00277107 0.00242963)
(0.142963 0.00019075 0.00515435)
(0.145888 0.0012072 0.0053526)
(0.141306 -0.00231996 0.003634)
(0.138927 -0.00678016 0.00327415)
(0.145433 -0.00667688 0.00488197)
(0.15113 -0.00230164 0.00595565)
(0.146037 0.00172284 0.005969)
(0.13325 0.00340242 0.00741629)
(0.121219 0.00268562 0.010856)
(0.115386 -0.000540952 0.012009)
(0.116321 -0.00513375 0.00770318)
(0.122568 -0.0086422 0.00152429)
(0.131313 -0.00974072 -0.00130963)
(0.136414 -0.00931075 0.00026121)
(0.13371 -0.00858895 0.00559394)
(0.124961 -0.00856386 0.0138898)
(0.116396 -0.010113 0.0192044)
(0.116214 -0.0109172 0.0153372)
(0.123292 -0.00731022 0.00502656)
(0.126869 -0.000343561 -0.00412904)
(0.12269 0.00439188 -0.00813945)
(0.116142 0.00386931 -0.00742671)
(0.11141 0.000706142 -0.0034518)
(0.109757 -0.000878066 0.00204162)
(0.111416 -0.000191688 0.00698537)
(0.116108 0.000796232 0.00992516)
(0.125639 0.000780939 0.00880658)
(0.134846 -0.000434467 0.00524507)
(0.144632 0.000401977 -0.00415942)
(0.14232 -0.000724871 -0.0143861)
(0.133437 -0.00358798 -0.0215359)
(0.127835 -0.0069523 -0.0244699)
(0.129623 -0.010161 -0.0227036)
(0.134753 -0.0128367 -0.0177314)
(0.138961 -0.0135593 -0.0112355)
(0.143695 -0.0106411 -0.00421387)
(0.147332 -0.00548399 0.00106539)
(0.144919 -0.00226407 0.00229614)
(0.13794 -0.0023864 0.000931958)
(0.13451 -0.00310858 0.00115981)
(0.139085 -0.00188629 0.00385793)
(0.146033 -0.000144079 0.00576236)
(0.147478 -0.00142511 0.00482225)
(0.143388 -0.00596164 0.00286149)
(0.141963 -0.00906513 0.00292335)
(0.146771 -0.00668087 0.0045548)
(0.150141 -0.000797038 0.00535801)
(0.145246 0.00389076 0.00681751)
(0.13518 0.00491313 0.0106319)
(0.126932 0.00199982 0.0118772)
(0.12279 -0.00365882 0.00594674)
(0.123457 -0.00921485 -0.00262932)
(0.131541 -0.011301 -0.00643627)
(0.142106 -0.0096881 -0.00451438)
(0.144296 -0.00724118 0.000294927)
(0.136287 -0.00576095 0.0080384)
(0.125023 -0.00660015 0.016174)
(0.119147 -0.00845551 0.0169522)
(0.121229 -0.00668209 0.00908407)
(0.124308 -0.000317268 -0.000547933)
(0.123987 0.00494135 -0.00667726)
(0.122406 0.00509709 -0.0088453)
(0.120746 0.0022196 -0.00777962)
(0.118519 0.000430593 -0.00401973)
(0.116606 0.000592019 0.00116529)
(0.116681 0.000484162 0.0061076)
(0.122212 -0.000546269 0.0086008)
(0.133682 -0.00259502 0.00370843)
(0.145559 0.000292227 -0.00136871)
(0.149816 0.00188721 -0.00956174)
(0.144286 -0.000593957 -0.0172187)
(0.13699 -0.00486696 -0.0219311)
(0.135574 -0.00844476 -0.0223298)
(0.139846 -0.0110884 -0.0197162)
(0.143642 -0.0131866 -0.0153015)
(0.14479 -0.0128825 -0.00859849)
(0.145671 -0.00849593 -0.00157638)
(0.14491 -0.00304513 0.00187329)
(0.140799 -0.0010006 0.00139495)
(0.136913 -0.00219355 0.000910291)
(0.138291 -0.00304072 0.0032524)
(0.14444 -0.00198801 0.00650493)
(0.14944 -0.00158795 0.00693021)
(0.148991 -0.00424378 0.00390584)
(0.14461 -0.0078937 0.00125037)
(0.141533 -0.00824634 0.00219147)
(0.141151 -0.00406392 0.0052951)
(0.139524 0.00142225 0.00857987)
(0.134985 0.00477849 0.0109889)
(0.130968 0.00441327 0.00941604)
(0.128564 5.99659e-06 0.00233766)
(0.126538 -0.00692662 -0.0057728)
(0.129869 -0.011783 -0.00866218)
(0.141345 -0.0113707 -0.00567481)
(0.149583 -0.00774267 -0.00116014)
(0.144912 -0.00454157 0.00420217)
(0.132798 -0.00373873 0.0119222)
(0.123635 -0.00489859 0.0163354)
(0.122084 -0.00407439 0.0122847)
(0.124414 0.000760179 0.00353699)
(0.126258 0.00511239 -0.00398673)
(0.12792 0.00503665 -0.00844169)
(0.129499 0.00272872 -0.0101955)
(0.129288 0.00178036 -0.00949277)
(0.12709 0.00223802 -0.00631138)
(0.124846 0.00122507 -0.00143343)
(0.125685 -0.00176406 0.00306995)
(0.134357 -0.0037334 0.00216488)
(0.142461 -0.00123776 -0.000210875)
(0.151296 0.00236129 -0.00601231)
(0.152094 0.00170153 -0.0131731)
(0.146297 -0.00204475 -0.0190329)
(0.142529 -0.00574352 -0.0210107)
(0.145132 -0.00869463 -0.0198731)
(0.149674 -0.0116717 -0.0174775)
(0.150295 -0.0132402 -0.0125553)
(0.14787 -0.0104286 -0.0051835)
(0.145328 -0.00424093 0.000287263)
(0.142316 8.76981e-05 0.00158749)
(0.139401 -0.000176928 0.00152243)
(0.139362 -0.00258921 0.00345376)
(0.143696 -0.0033416 0.00700629)
(0.1495 -0.00264472 0.00849586)
(0.151574 -0.00326891 0.00554216)
(0.147102 -0.00530277 0.00132186)
(0.138539 -0.00644138 0.000944339)
(0.131214 -0.00506729 0.00443772)
(0.127836 -0.00146122 0.00761443)
(0.128249 0.00254114 0.00745336)
(0.131399 0.00481089 0.00357617)
(0.134233 0.00317778 -0.00254398)
(0.13394 -0.00288598 -0.00788588)
(0.134163 -0.00998545 -0.00871538)
(0.141551 -0.0127645 -0.00444138)
(0.151072 -0.0097094 0.000636008)
(0.150045 -0.00495688 0.00432874)
(0.138638 -0.00227719 0.00952219)
(0.12781 -0.00185723 0.0141489)
(0.124275 -0.000790722 0.0126007)
(0.126365 0.00260963 0.00563973)
(0.129016 0.00536069 -0.00120906)
(0.130178 0.00451216 -0.00533844)
(0.131251 0.0019686 -0.00800266)
(0.133227 0.00125819 -0.0100221)
(0.134951 0.00237086 -0.00954984)
(0.134914 0.00199602 -0.00535925)
(0.13322 -0.00139392 -0.000100741)
(0.133667 -0.00218692 0.0036873)
(0.1364 -0.00134749 0.00124134)
(0.145268 0.0016127 -0.00338991)
(0.152592 0.00240021 -0.0094564)
(0.152224 0.00048428 -0.0155491)
(0.149151 -0.00222893 -0.0188317)
(0.1509 -0.00533569 -0.0188346)
(0.156053 -0.00926214 -0.0177389)
(0.157411 -0.0122059 -0.0152305)
(0.153278 -0.010815 -0.00955454)
(0.148089 -0.00510077 -0.0029456)
(0.144341 0.00040955 0.00104666)
(0.142027 0.00171752 0.00272468)
(0.141544 -0.000524789 0.00431666)
(0.143815 -0.00270487 0.0065474)
(0.147824 -0.00315225 0.00822534)
(0.149998 -0.00328315 0.00722215)
(0.147285 -0.00374245 0.00339384)
(0.13985 -0.00370057 0.000110983)
(0.131771 -0.00302412 0.00019078)
(0.127517 -0.00178716 0.00204581)
(0.128764 0.000129965 0.00236885)
(0.133929 0.00236579 -0.000109774)
(0.138548 0.00303363 -0.00446594)
(0.139307 4.46873e-05 -0.0081082)
(0.138871 -0.006429 -0.00813439)
(0.143066 -0.0121404 -0.0040085)
(0.150867 -0.0116776 0.00108593)
(0.15195 -0.00617907 0.00464492)
(0.143104 -0.00142768 0.00887288)
(0.132751 0.000275406 0.0128102)
(0.127701 0.00141636 0.0117162)
(0.127369 0.00420377 0.00620573)
(0.12726 0.0063518 0.00163027)
(0.125911 0.00512621 -0.000252093)
(0.125666 0.00193757 -0.00209298)
(0.128491 0.000248542 -0.00486981)
(0.133361 0.00113142 -0.00556177)
(0.136702 0.00180166 -0.00210588)
(0.13592 5.8426e-05 0.00238646)
(0.13341 0.00032755 0.00554802)
(0.133332 0.000780196 0.0036687)
(0.138847 0.00220917 -0.000641981)
(0.147388 0.00288531 -0.00591661)
(0.152963 0.0022007 -0.0110701)
(0.154615 0.000847966 -0.0144325)
(0.157539 -0.00163331 -0.0155403)
(0.162845 -0.00600947 -0.0161528)
(0.164576 -0.010028 -0.0162198)
(0.159596 -0.00970256 -0.0129731)
(0.152239 -0.00474958 -0.00648409)
(0.14682 0.000794628 -0.000683835)
(0.144008 0.00279738 0.00267837)
(0.143307 0.00122803 0.00474103)
(0.144506 -0.00109127 0.00624123)
(0.146239 -0.00235086 0.00723804)
(0.146046 -0.00308007 0.0072247)
(0.143333 -0.00328681 0.00487126)
(0.139145 -0.0022291 0.000745305)
(0.135285 -0.000839657 -0.00180522)
(0.133668 -0.000739536 -0.00109508)
(0.134992 -0.00130719 0.000558261)
(0.13828 -0.000560805 0.000194198)
(0.140415 0.00130174 -0.00240981)
(0.139682 0.00126148 -0.00463965)
(0.138875 -0.00299757 -0.00424839)
(0.141753 -0.00938974 -0.00137311)
(0.148188 -0.0117784 0.00227887)
(0.151651 -0.00758311 0.00509965)
(0.147407 -0.00140304 0.00816516)
(0.139404 0.00246361 0.0110573)
(0.132647 0.00457577 0.0105915)
(0.127921 0.00642248 0.00689412)
(0.124124 0.00718911 0.00390398)
(0.121897 0.00510097 0.00325904)
(0.122568 0.000889652 0.00275385)
(0.126073 -0.00236178 0.000727306)
(0.131303 -0.00252688 -0.000892245)
(0.135448 -0.000805376 0.000501239)
(0.135733 0.000339718 0.00386409)
(0.132767 0.0029625 0.00670937)
(0.132703 0.00451322 0.00598496)
(0.136233 0.00510627 0.00309296)
(0.142553 0.00417547 -0.0011726)
(0.149064 0.00293759 -0.00609976)
(0.154718 0.00264037 -0.00998809)
(0.160971 0.0015517 -0.0117483)
(0.167269 -0.00226896 -0.0128421)
(0.169131 -0.00672236 -0.0145631)
(0.164354 -0.007327 -0.0145069)
(0.156648 -0.00317096 -0.0101295)
(0.150233 0.00163433 -0.00379487)
(0.146227 0.00330625 0.000956422)
(0.144045 0.002035 0.00375649)
(0.143287 0.000299995 0.00545966)
(0.143135 -0.000535283 0.00640739)
(0.141955 -0.00108862 0.00657451)
(0.139759 -0.00148935 0.00500356)
(0.138324 -0.000731072 0.00158982)
(0.139172 0.000286774 -0.00129586)
(0.141961 -0.000851123 -0.00135474)
(0.14381 -0.00347185 0.000526095)
(0.142645 -0.00385888 0.00157496)
(0.139557 -0.000920029 0.00100124)
(0.137282 0.00162949 0.00107101)
(0.138085 -0.000286153 0.00267138)
(0.141964 -0.00628032 0.0044642)
(0.147327 -0.0108009 0.00557739)
(0.150664 -0.00873317 0.00607341)
(0.148549 -0.00200046 0.00744461)
(0.142293 0.00379516 0.00920512)
(0.134932 0.006483 0.00869779)
(0.127755 0.00728076 0.00628903)
(0.122321 0.00734819 0.00535975)
(0.120533 0.00594911 0.00682618)
(0.122389 0.00264783 0.00775243)
(0.126288 -0.00090694 0.00620839)
(0.130685 -0.0024449 0.00404438)
(0.133866 -0.0013231 0.00379971)
(0.134244 0.000960407 0.00538589)
(0.136732 0.00473502 0.00638609)
(0.135907 0.00667318 0.00717753)
(0.137234 0.00745856 0.00594456)
(0.140811 0.00579068 0.00235164)
(0.145505 0.00243073 -0.00229226)
(0.151334 0.000137124 -0.00601608)
(0.158773 -7.94908e-05 -0.00807967)
(0.165776 -0.000187307 -0.00973208)
(0.168254 -0.00180285 -0.0119614)
(0.165352 -0.0029735 -0.013571)
(0.160641 -0.00119695 -0.0121454)
(0.156978 0.00189461 -0.00775526)
(0.15386 0.00327159 -0.00311499)
(0.149926 0.00266805 9.79555e-05)
(0.145461 0.00146199 0.00214473)
(0.141851 0.000301886 0.00357122)
(0.139679 -0.000661006 0.00457039)
(0.139133 -0.00101689 0.00497653)
(0.141285 -0.000351297 0.00416694)
(0.146673 0.000399813 0.00198228)
(0.152718 -0.000764057 -2.22661e-05)
(0.154363 -0.00354145 0.000645277)
(0.149903 -0.00442399 0.00429851)
(0.143255 -0.00162263 0.0077048)
(0.13939 0.00218297 0.00796357)
(0.13991 0.00281665 0.00527837)
(0.143179 -0.00144325 0.00293162)
(0.147326 -0.00719329 0.00334783)
(0.150008 -0.00752975 0.00449838)
(0.148026 -0.00135549 0.00485338)
(0.141487 0.00570702 0.0057855)
(0.133307 0.0091719 0.00658863)
(0.126229 0.00946121 0.00637086)
(0.122181 0.00852126 0.0061317)
(0.121694 0.00697503 0.00662323)
(0.123724 0.00460808 0.00699635)
(0.126888 0.00192168 0.00630248)
(0.130709 0.000407035 0.00499867)
(0.134724 0.000905794 0.00433096)
(0.137073 0.00269134 0.00498374)
(0.136829 0.00477651 0.00516171)
(0.135728 0.00622929 0.00619826)
(0.136544 0.00717224 0.00661925)
(0.139861 0.00593124 0.0051814)
(0.144363 0.00216995 0.0014828)
(0.149008 -0.00197217 -0.00318193)
(0.154453 -0.00390389 -0.00670065)
(0.160934 -0.003462 -0.00844364)
(0.165836 -0.00227774 -0.00946988)
(0.165903 -0.00104092 -0.0105358)
(0.162023 0.000783094 -0.0106851)
(0.158186 0.0029456 -0.00890172)
(0.156187 0.00397383 -0.00591313)
(0.154842 0.00376643 -0.00324142)
(0.15249 0.0033176 -0.00148736)
(0.148911 0.0023476 -0.000225352)
(0.145002 -0.000153116 0.00123549)
(0.142318 -0.00357841 0.00322702)
(0.143017 -0.00628302 0.00493849)
(0.147886 -0.0075676 0.00500791)
(0.153951 -0.00772644 0.00323172)
(0.15609 -0.00713103 0.0020598)
(0.152545 -0.00542375 0.00405491)
(0.146781 -0.00162134 0.00728659)
(0.142518 0.00371844 0.00700319)
(0.140466 0.00706821 0.00218704)
(0.140141 0.0048746 -0.00273061)
(0.142083 -0.0017883 -0.0030664)
(0.145369 -0.00623631 0.000125428)
(0.146112 -0.00320343 0.0026564)
(0.142182 0.0044404 0.00395298)
(0.136107 0.0104987 0.00501591)
(0.131758 0.0128894 0.00500017)
(0.13053 0.012691 0.00345632)
(0.131357 0.0108907 0.00146922)
(0.132536 0.00805289 0.000423465)
(0.133429 0.00508024 0.00086597)
(0.134642 0.00327771 0.0022532)
(0.13641 0.00308066 0.00353341)
(0.137497 0.00372892 0.00433229)
(0.13791 0.00520919 0.00602941)
(0.135446 0.00418638 0.00896834)
(0.135575 0.00239555 0.0111624)
(0.139184 7.60064e-05 0.0113597)
(0.145396 -0.00242577 0.00855075)
(0.151979 -0.00432101 0.00329237)
(0.1565 -0.00458161 -0.00254749)
(0.157744 -0.00301758 -0.00715592)
(0.156109 -0.00040461 -0.00963217)
(0.15284 0.00224839 -0.00996533)
(0.1494 0.00415314 -0.00884634)
(0.146814 0.00477867 -0.00754739)
(0.145622 0.00409139 -0.00680599)
(0.146315 0.00269947 -0.00612317)
(0.148827 0.00152385 -0.00491023)
(0.152107 0.000886086 -0.0036208)
(0.154272 0.000436975 -0.00259425)
(0.154156 -0.000710891 -0.00103961)
(0.15278 -0.00359393 0.00179513)
(0.152106 -0.00769714 0.00515205)
(0.152773 -0.0104698 0.00739133)
(0.153405 -0.00940613 0.007745)
(0.151939 -0.00481888 0.00722173)
(0.148268 0.000533451 0.0064807)
(0.144243 0.0042112 0.00435635)
(0.14141 0.00500942 0.000183992)
(0.140494 0.00261874 -0.00383478)
(0.141836 -0.00201487 -0.00414535)
(0.144426 -0.00596869 -0.000356758)
(0.145776 -0.00517743 0.00416982)
(0.144468 0.000697504 0.0068216)
(0.142283 0.00750774 0.00711921)
(0.141771 0.0119472 0.00485042)
(0.143064 0.013409 0.000257032)
(0.144364 0.0121717 -0.00489251)
(0.144366 0.00893539 -0.00843451)
(0.143409 0.00531732 -0.00881978)
(0.142632 0.00349247 -0.00601369)
(0.142156 0.00402593 -0.00157861)
(0.140731 0.00514194 0.002624)
(0.146996 0.00613445 -0.00151494)
(0.148017 0.00435022 0.00228685)
(0.150017 0.00125042 0.00647061)
(0.151471 -0.00160479 0.0105183)
(0.152126 -0.00336453 0.0129603)
(0.153547 -0.00394086 0.0122724)
(0.156614 -0.00291054 0.00815998)
(0.15997 0.000136744 0.00205364)