/*--------------------------------*- C++ -*----------------------------------*\
| =========                 |                                                 |
| \\      /  F ield         | OpenFOAM: The Open Source CFD Toolbox           |
|  \\    /   O peration     | Version:  2306                                  |
|   \\  /    A nd           | Website:  www.openfoam.com                      |
|    \\/     M anipulation  |                                                 |
\*---------------------------------------------------------------------------*/
FoamFile
{
    version     2.0;
    format      ascii;
    arch        "LSB;label=32;scalar=64";
    class       volVectorField;
    location    "5.5";
    object      U_0;
}
// * * * * * * * * * * * * * * * * * * * * * * * * * * * * * * * * * * * * * //

dimensions      [0 1 -1 0 0 0 0];

internalField   nonuniform List<vector> 
60000
(
(0.00855449 3.38005e-05 0.000663033)
(0.00922901 4.02746e-05 0.0011738)
(0.00964699 5.10931e-05 0.00186166)
(0.00968676 4.77166e-05 0.00247179)
(0.00939862 3.0045e-05 0.00276149)
(0.00900787 1.13377e-05 0.00268978)
(0.00871894 1.48702e-06 0.00236384)
(0.00853201 1.50973e-07 0.00192469)
(0.00837433 1.84297e-06 0.00148168)
(0.00819266 -6.46969e-07 0.00113757)
(0.00788356 -6.43259e-06 0.000973491)
(0.0073239 -1.09273e-05 0.00097536)
(0.00656972 -9.57936e-06 0.00105057)
(0.00587554 -4.28128e-06 0.00110997)
(0.00548028 -1.02457e-06 0.00111932)
(0.00542505 -6.63827e-06 0.00102527)
(0.0055817 -1.82612e-05 0.000790968)
(0.00577132 -2.16858e-05 0.000505911)
(0.00591168 -1.31566e-05 0.000254435)
(0.00608564 -2.76187e-06 3.81806e-05)
(0.00638147 5.88481e-06 -0.00013815)
(0.00673093 1.89408e-05 -0.000269773)
(0.00702879 2.75699e-05 -0.000400498)
(0.00728537 2.64476e-05 -0.000615132)
(0.00759258 1.06619e-05 -0.000985279)
(0.00801371 -7.79218e-06 -0.00154192)
(0.00849305 -1.9129e-05 -0.00212016)
(0.00882304 -2.12217e-05 -0.00244564)
(0.00879603 -1.68064e-05 -0.00249026)
(0.00836467 -5.90767e-06 -0.00249327)
(0.00764292 1.12659e-05 -0.00244984)
(0.00687482 1.45749e-05 -0.00225252)
(0.00630638 2.98679e-06 -0.00206636)
(0.0060083 -8.30791e-07 -0.00198493)
(0.00595921 3.18861e-06 -0.00185206)
(0.00613718 4.70476e-06 -0.0014913)
(0.0064446 1.49096e-05 -0.000900842)
(0.00679849 2.79929e-05 -0.000277002)
(0.00723743 4.01767e-05 0.000153825)
(0.00783395 3.93899e-05 0.000388085)
(0.0257319 0.000162302 0.00195945)
(0.0276859 0.000217248 0.00340962)
(0.0290605 0.000288303 0.00517936)
(0.0295194 0.000274073 0.0066102)
(0.0289591 0.000176736 0.00716723)
(0.0278284 6.7166e-05 0.00683511)
(0.0268167 6.48863e-06 0.00597557)
(0.0261453 -1.5896e-06 0.00493816)
(0.0256535 9.82653e-06 0.00392175)
(0.0251082 9.03264e-06 0.00310458)
(0.024171 -7.3254e-07 0.00264587)
(0.02254 -1.53811e-05 0.00257637)
(0.0204214 -4.50882e-05 0.00276206)
(0.0184696 -9.43501e-05 0.00296378)
(0.0172661 -0.000151833 0.00296988)
(0.0168951 -0.000204246 0.00263992)
(0.0170164 -0.000225092 0.0020105)
(0.0172626 -0.000182884 0.0013191)
(0.017558 -0.000103308 0.000712453)
(0.0180772 -3.35324e-05 0.000190096)
(0.0189088 2.36939e-05 -0.000250388)
(0.0198871 8.42139e-05 -0.000626896)
(0.0208743 0.00010261 -0.00104402)
(0.0219518 3.70417e-05 -0.00167475)
(0.0232623 -9.5271e-05 -0.00269653)
(0.0248074 -0.000208363 -0.00413875)
(0.0263131 -0.00023559 -0.00556921)
(0.0272084 -0.000169771 -0.00637658)
(0.0269869 -5.61999e-05 -0.00653813)
(0.0256285 5.83251e-05 -0.0064671)
(0.0236215 0.000119576 -0.006142)
(0.0216224 6.70586e-05 -0.00561987)
(0.019987 -3.65848e-05 -0.00536813)
(0.0187898 -7.49003e-05 -0.00533912)
(0.0182035 -5.5849e-05 -0.00495262)
(0.0183928 -1.36849e-05 -0.00384096)
(0.0191478 7.04871e-05 -0.00221062)
(0.0202319 0.00016179 -0.000648681)
(0.0216985 0.000208118 0.000404578)
(0.0236012 0.000179563 0.00107811)
(0.042763 0.000314528 0.00252321)
(0.046179 0.000432692 0.00475742)
(0.0488984 0.000569895 0.00744786)
(0.0503374 0.000517837 0.00964237)
(0.049953 0.000310701 0.0105633)
(0.0481133 9.79622e-05 0.0101405)
(0.0461072 -1.22495e-05 0.00893128)
(0.0447308 -2.45039e-05 0.0075191)
(0.0438553 -2.14337e-06 0.00617357)
(0.0430201 -1.28232e-06 0.00503084)
(0.0416522 -1.56695e-05 0.00421645)
(0.0392599 -4.25982e-05 0.00386532)
(0.0360461 -0.000120742 0.00401367)
(0.0328217 -0.000261988 0.00439504)
(0.0304394 -0.000423231 0.00452429)
(0.0292324 -0.000546504 0.00407254)
(0.028868 -0.000568325 0.00316658)
(0.0288849 -0.000446553 0.00220359)
(0.0291985 -0.000254308 0.00137317)
(0.0299846 -8.66508e-05 0.000656049)
(0.0312779 5.0089e-05 3.73743e-05)
(0.0328599 0.000163607 -0.000509412)
(0.0346079 0.000155018 -0.0010943)
(0.0366591 -6.73397e-05 -0.00194335)
(0.0391593 -0.000419633 -0.00336584)
(0.0420242 -0.000691613 -0.00549029)
(0.0447733 -0.000732157 -0.00774539)
(0.0464871 -0.000531865 -0.00920346)
(0.0463553 -0.000208492 -0.00968924)
(0.044365 9.76479e-05 -0.00961305)
(0.0413568 0.000225116 -0.0089681)
(0.0383183 8.46492e-05 -0.0080784)
(0.0355927 -0.000140955 -0.00779937)
(0.0331577 -0.000211524 -0.00804911)
(0.0313835 -0.000160866 -0.0077856)
(0.0309071 -5.29242e-05 -0.00629008)
(0.0317083 0.000138815 -0.0038864)
(0.0333918 0.00034773 -0.00154887)
(0.0358875 0.000437542 5.13868e-05)
(0.0391424 0.000356126 0.00112529)
(0.0585795 0.000319322 0.00152687)
(0.0636894 0.000517551 0.00435683)
(0.0682322 0.000746964 0.00791413)
(0.0713912 0.000661073 0.0110636)
(0.0719416 0.000359663 0.0127745)
(0.0696863 7.70266e-05 0.0126969)
(0.0664336 -5.69418e-05 0.0113713)
(0.0640272 -6.90381e-05 0.00971276)
(0.0626726 -3.96451e-05 0.00823222)
(0.0616632 -3.47733e-05 0.00699345)
(0.0601827 -4.27528e-05 0.00588051)
(0.0575317 -6.40662e-05 0.00502014)
(0.0537255 -0.000177109 0.00481626)
(0.0494162 -0.000422642 0.005294)
(0.0454718 -0.000732487 0.00575183)
(0.0426414 -0.000978166 0.00542138)
(0.041053 -0.00103152 0.00437121)
(0.0403733 -0.000830678 0.00324139)
(0.0404448 -0.000504142 0.00232682)
(0.0413222 -0.000210752 0.001568)
(0.0429326 3.33942e-05 0.000923306)
(0.0450133 0.000202896 0.000382722)
(0.0474595 0.000118347 -0.000114669)
(0.0504142 -0.000352793 -0.00080641)
(0.0540338 -0.00105699 -0.00217967)
(0.0582529 -0.00158494 -0.0046686)
(0.0625349 -0.00163901 -0.00781451)
(0.065625 -0.00122727 -0.0103524)
(0.0662844 -0.000576173 -0.0116762)
(0.0643454 3.69477e-05 -0.012003)
(0.0608678 0.000297341 -0.011241)
(0.0571075 7.00321e-05 -0.00986598)
(0.0534377 -0.000297159 -0.00929894)
(0.0496941 -0.000408574 -0.0098459)
(0.046149 -0.000333353 -0.0101945)
(0.0439366 -0.00018034 -0.00904227)
(0.0438393 0.000120157 -0.00641643)
(0.0456196 0.000470032 -0.00355918)
(0.0489087 0.000603744 -0.00153028)
(0.0534165 0.000441357 -0.000193433)
(0.0714839 -7.84431e-05 -0.00193821)
(0.0784004 0.000162961 0.00120157)
(0.0851808 0.000619447 0.00554242)
(0.0909053 0.000559821 0.00992695)
(0.0935755 0.000221301 0.0131103)
(0.0917917 -4.67054e-05 0.0142134)
(0.0873427 -0.000137177 0.0132809)
(0.0835221 -0.000130162 0.0114587)
(0.0814894 -0.000102508 0.0098831)
(0.0804032 -9.98555e-05 0.00883265)
(0.0791362 -9.67002e-05 0.00777973)
(0.0767763 -8.59176e-05 0.00640689)
(0.0730706 -0.000178373 0.00542802)
(0.0682983 -0.000470709 0.00562689)
(0.0629136 -0.000918777 0.0064865)
(0.0577844 -0.00134564 0.00661665)
(0.0539065 -0.00152532 0.00560798)
(0.0516735 -0.00132068 0.00435345)
(0.050977 -0.000887364 0.00345327)
(0.0516047 -0.000455794 0.00283316)
(0.0532642 -7.15083e-05 0.00238256)
(0.0555728 0.000170064 0.00211247)
(0.0583756 -2.36426e-05 0.00205548)
(0.0617318 -0.000869599 0.00203088)
(0.0658084 -0.00213834 0.00142076)
(0.0708378 -0.00316183 -0.000664944)
(0.0768113 -0.00330561 -0.00440637)
(0.0822849 -0.0024905 -0.00856243)
(0.0850798 -0.00130401 -0.0116997)
(0.0844689 -0.000239222 -0.0133647)
(0.0814761 0.00027979 -0.0131399)
(0.0775323 2.27454e-05 -0.0113908)
(0.0732295 -0.000475907 -0.0101557)
(0.0685184 -0.000628967 -0.0106298)
(0.0633097 -0.000530647 -0.0116788)
(0.0585845 -0.000384162 -0.0115312)
(0.0560689 -5.53319e-05 -0.00958151)
(0.0565761 0.0003942 -0.00689334)
(0.0597755 0.000544964 -0.00488141)
(0.064993 0.00023384 -0.0036412)
(0.0796145 -0.00115169 -0.00823765)
(0.0874236 -0.00110103 -0.00548677)
(0.0961382 -0.000480301 -0.00105429)
(0.105265 -0.000178996 0.00446167)
(0.11192 -0.000284828 0.00993184)
(0.112532 -0.000365501 0.0135948)
(0.107754 -0.000284091 0.0142905)
(0.102321 -0.000198806 0.0127213)
(0.0993201 -0.000177454 0.0108872)
(0.0982192 -0.000201141 0.0100781)
(0.097432 -0.000196725 0.00968457)
(0.0957758 -0.000144785 0.00833189)
(0.0928376 -0.000152174 0.00636418)
(0.0885878 -0.000372975 0.00561521)
(0.0827956 -0.000848383 0.00654572)
(0.075626 -0.00143518 0.00739998)
(0.0685341 -0.00184701 0.00676829)
(0.0633785 -0.00180206 0.00541909)
(0.0608858 -0.00137344 0.00448713)
(0.0606409 -0.000833854 0.00407612)
(0.0619152 -0.000277975 0.00398081)
(0.064017 8.62713e-05 0.0041833)
(0.0665889 -0.000250631 0.00478987)
(0.0695314 -0.00165668 0.00571704)
(0.0728323 -0.0037575 0.00643669)
(0.076825 -0.00559126 0.00594957)
(0.0829067 -0.00620767 0.00322408)
(0.091427 -0.00513136 -0.00188266)
(0.0989919 -0.00295034 -0.0078823)
(0.102203 -0.000947858 -0.0125346)
(0.101464 7.28055e-05 -0.0142121)
(0.098337 -8.08099e-05 -0.0128661)
(0.0938496 -0.000656651 -0.0109245)
(0.088682 -0.000829105 -0.0107766)
(0.0826764 -0.000678295 -0.0120328)
(0.0760076 -0.000540246 -0.0128363)
(0.0703439 -0.000278642 -0.0121515)
(0.0676779 0.000128298 -0.0106424)
(0.0687333 0.000181155 -0.00964177)
(0.0730288 -0.000431261 -0.00927652)
(0.0847494 -0.00286154 -0.0156648)
(0.0908497 -0.00323229 -0.0140858)
(0.0981242 -0.00271242 -0.0108559)
(0.10828 -0.00222593 -0.00595008)
(0.120606 -0.00191131 0.00117356)
(0.127628 -0.00132496 0.00870837)
(0.125272 -0.00071247 0.0131455)
(0.118822 -0.000337589 0.0132937)
(0.114621 -0.000240916 0.01126)
(0.113611 -0.000320299 0.0102052)
(0.113646 -0.000371513 0.010756)
(0.112892 -0.000285119 0.0105132)
(0.111009 -0.000171366 0.00809998)
(0.108158 -0.000229758 0.00581696)
(0.103655 -0.000556508 0.0059986)
(0.096262 -0.00114003 0.00742995)
(0.0864215 -0.00174125 0.00759563)
(0.077122 -0.0020082 0.0064044)
(0.0712138 -0.00179178 0.00533806)
(0.0690118 -0.00124951 0.00497335)
(0.0693282 -0.000512713 0.00511485)
(0.0709413 3.69342e-05 0.00560633)
(0.0732182 -0.000482109 0.00654509)
(0.0758981 -0.0025686 0.00801571)
(0.0784957 -0.00561881 0.00977866)
(0.0803955 -0.00835243 0.0112136)
(0.0830289 -0.00965724 0.011248)
(0.0901209 -0.0089007 0.00824115)
(0.101886 -0.00619201 0.00132921)
(0.112497 -0.00282381 -0.00722755)
(0.117474 -0.000662974 -0.0128288)
(0.117144 -0.000374092 -0.0136284)
(0.113127 -0.000865709 -0.0118637)
(0.107821 -0.000955732 -0.0109122)
(0.102042 -0.000709756 -0.0116663)
(0.0951738 -0.000548157 -0.0127073)
(0.0878379 -0.000334435 -0.0129038)
(0.0820727 -2.51774e-05 -0.0127997)
(0.0794616 -0.000271933 -0.0136394)
(0.0804734 -0.00146527 -0.01519)
(0.0922326 -0.00467111 -0.0213045)
(0.0945438 -0.00561497 -0.0215679)
(0.0981064 -0.00522705 -0.0194511)
(0.104166 -0.00507066 -0.015797)
(0.116624 -0.004936 -0.00971804)
(0.131206 -0.0036189 -0.00054304)
(0.135721 -0.00185811 0.00824996)
(0.130218 -0.000874535 0.0122387)
(0.12474 -0.000529493 0.011172)
(0.12414 -0.000469811 0.00921795)
(0.125939 -0.000580906 0.0099315)
(0.126512 -0.000612261 0.0115808)
(0.125359 -0.000406104 0.0102802)
(0.12396 -0.000174174 0.00676986)
(0.122178 -0.000227925 0.00528927)
(0.117481 -0.000626607 0.00658209)
(0.107682 -0.00116728 0.00766036)
(0.0948395 -0.00166564 0.00713501)
(0.0840857 -0.00185123 0.00615206)
(0.0782745 -0.00152564 0.00570413)
(0.076734 -0.000679943 0.00581482)
(0.0778031 9.13959e-05 0.00623793)
(0.0804189 -0.000415044 0.00702152)
(0.0838551 -0.00288345 0.00848325)
(0.0870998 -0.00656762 0.0105183)
(0.0885767 -0.0100645 0.012797)
(0.0877478 -0.0122234 0.0150959)
(0.0888652 -0.0121877 0.0157971)
(0.0974156 -0.00979584 0.0118083)
(0.111855 -0.00585156 0.00261619)
(0.124863 -0.00237556 -0.00699511)
(0.13047 -0.00115528 -0.0119087)
(0.128105 -0.0013283 -0.0122705)
(0.122512 -0.00128627 -0.0111678)
(0.117474 -0.000763379 -0.0108811)
(0.112264 -0.000306829 -0.0113368)
(0.105931 3.38466e-05 -0.0116008)
(0.0997822 0.000336154 -0.0120795)
(0.0952664 -0.000228033 -0.0142677)
(0.0925888 -0.00224088 -0.018172)
(0.105541 -0.00538293 -0.0220778)
(0.102324 -0.00737905 -0.0255972)
(0.102124 -0.00722841 -0.0251319)
(0.104003 -0.00739456 -0.0217866)
(0.111071 -0.00828738 -0.0164196)
(0.125974 -0.00729057 -0.00846622)
(0.13841 -0.00405959 0.0013843)
(0.137382 -0.00168348 0.00877912)
(0.129581 -0.00118991 0.0102416)
(0.127136 -0.00120018 0.00777804)
(0.131763 -0.000972807 0.00717835)
(0.135734 -0.000829817 0.00988013)
(0.13455 -0.000813511 0.0109969)
(0.132109 -0.00068911 0.00792702)
(0.132773 -0.000478284 0.00477422)
(0.13395 -0.00033894 0.00507953)
(0.129093 -0.000460656 0.00671603)
(0.116469 -0.000801857 0.00713766)
(0.101528 -0.00126855 0.00674758)
(0.0905963 -0.00140172 0.00651843)
(0.0855926 -0.000723964 0.00664442)
(0.0853211 0.000172288 0.00695588)
(0.0881529 -0.000199626 0.00739203)
(0.092556 -0.00271711 0.00828462)
(0.0969359 -0.00650017 0.00981505)
(0.0995604 -0.0101427 0.0118778)
(0.09849 -0.0127662 0.0148394)
(0.0950357 -0.0137838 0.0183163)
(0.0965031 -0.0125143 0.0183606)
(0.107672 -0.00910049 0.011657)
(0.124464 -0.00511463 0.00108005)
(0.136151 -0.00244231 -0.00739779)
(0.134015 -0.0013041 -0.0108938)
(0.123672 -0.000976691 -0.010399)
(0.116742 -0.000937064 -0.00865053)
(0.115865 -0.000690675 -0.00767634)
(0.116213 0.00014368 -0.007575)
(0.114837 0.00101035 -0.0081925)
(0.11277 0.000653938 -0.0106769)
(0.109924 -0.00181521 -0.0159187)
(0.122128 -0.00421694 -0.0172785)
(0.114745 -0.00739484 -0.0245186)
(0.109595 -0.00796878 -0.0274541)
(0.108742 -0.00819304 -0.0254701)
(0.111402 -0.0100805 -0.0201536)
(0.120688 -0.0108918 -0.0129922)
(0.135068 -0.00780223 -0.00427639)
(0.14248 -0.00321534 0.00404903)
(0.137664 -0.00137767 0.00799026)
(0.129721 -0.00205911 0.00637022)
(0.130336 -0.00243465 0.00405578)
(0.138393 -0.00137972 0.00590855)
(0.141663 -0.000276394 0.00904128)
(0.136698 -0.000470078 0.00815532)
(0.132844 -0.00159701 0.00474453)
(0.137204 -0.00200325 0.00374833)
(0.142429 -0.00113563 0.00525605)
(0.137288 -0.000211844 0.00638038)
(0.122857 -0.00017259 0.00664867)
(0.107611 -0.000533947 0.00700925)
(0.0974809 -0.000367524 0.00773696)
(0.0940066 0.000243332 0.00841222)
(0.09615 -0.000249784 0.0083949)
(0.101523 -0.00278139 0.00780747)
(0.107262 -0.00635915 0.00771603)
(0.111009 -0.00959951 0.00893836)
(0.110816 -0.0118195 0.0119792)
(0.106387 -0.0130821 0.0169229)
(0.102183 -0.0133628 0.0204163)
(0.106704 -0.0117183 0.0169355)
(0.120952 -0.00831598 0.00693435)
(0.134052 -0.00401869 -0.00346967)
(0.132746 -0.000493141 -0.00927281)
(0.119799 0.000743816 -0.00927708)
(0.109104 -0.000188233 -0.00571872)
(0.107323 -0.00118408 -0.00215598)
(0.112007 -0.000559399 -0.000523603)
(0.118055 0.000958511 -0.000797693)
(0.12304 0.00150738 -0.00327351)
(0.125314 -0.000321977 -0.00901588)
(0.134494 -0.00196037 -0.00892326)
(0.128895 -0.00546127 -0.0191082)
(0.119617 -0.00714266 -0.0259297)
(0.114805 -0.00771003 -0.0273495)
(0.115716 -0.00981588 -0.0234923)
(0.120737 -0.0124649 -0.0166479)
(0.130703 -0.0116742 -0.00878006)
(0.141844 -0.00681437 -0.000943628)
(0.14542 -0.00235964 0.00454296)
(0.139412 -0.00174097 0.0051191)
(0.131888 -0.003296 0.00251586)
(0.133549 -0.00326048 0.00234049)
(0.141711 -0.000666588 0.00551075)
(0.143931 0.00124173 0.00705406)
(0.138101 -0.000470468 0.00507703)
(0.135148 -0.00393923 0.00338473)
(0.142214 -0.00461987 0.00436923)
(0.148379 -0.00203862 0.00582453)
(0.142287 0.000345235 0.00625656)
(0.127842 0.0010902 0.00671313)
(0.113633 0.00103591 0.00826001)
(0.105266 0.000658667 0.0101877)
(0.104634 -0.000950212 0.0102499)
(0.109996 -0.00393063 0.00761562)
(0.117477 -0.00697143 0.00471818)
(0.123182 -0.00914059 0.0041988)
(0.124042 -0.0104258 0.00684307)
(0.119435 -0.010993 0.0126553)
(0.112086 -0.0117748 0.0189551)
(0.109542 -0.0122734 0.0192516)
(0.117634 -0.010552 0.0110579)
(0.128863 -0.00555369 -8.13408e-05)
(0.129827 0.000231473 -0.0075425)
(0.119583 0.00299034 -0.00872006)
(0.108922 0.00161591 -0.00500901)
(0.104576 -0.000867101 0.000338448)
(0.106933 -0.0012926 0.00451961)
(0.113302 0.000216737 0.00647583)
(0.121773 0.00146536 0.00567858)
(0.130726 0.000845161 0.000575491)
(0.138196 -0.000111012 -0.000107608)
(0.139718 -0.00227675 -0.0116927)
(0.131261 -0.00460983 -0.0211295)
(0.122738 -0.00631335 -0.0260106)
(0.121083 -0.00867283 -0.025435)
(0.125092 -0.011893 -0.0202124)
(0.131029 -0.0135214 -0.0130438)
(0.139054 -0.0110286 -0.00570025)
(0.146506 -0.00581979 0.000523579)
(0.146972 -0.00237606 0.00336293)
(0.139567 -0.00249101 0.00218174)
(0.132942 -0.00366301 0.000831071)
(0.135817 -0.00248767 0.002689)
(0.143664 0.000464488 0.00530651)
(0.145759 0.00100464 0.00520244)
(0.140774 -0.00292765 0.00344805)
(0.139214 -0.00713163 0.0033585)
(0.146331 -0.00638706 0.00509665)
(0.151167 -0.00178035 0.00605273)
(0.144952 0.00202107 0.00607743)
(0.131923 0.00343433 0.0077512)
(0.120368 0.00245346 0.0111711)
(0.115219 -0.000985011 0.0118065)
(0.11679 -0.00560937 0.00704805)
(0.123557 -0.00885738 0.00103139)
(0.132234 -0.00971442 -0.00127492)
(0.136485 -0.00924953 0.00078518)
(0.132869 -0.00858503 0.0065423)
(0.123765 -0.00873207 0.0147996)
(0.115815 -0.0103254 0.0192185)
(0.116776 -0.0107675 0.0143374)
(0.124046 -0.0066196 0.00379902)
(0.126764 0.000350187 -0.00488873)
(0.121982 0.00458945 -0.00829395)
(0.115466 0.003584 -0.00711274)
(0.111001 0.000391189 -0.00284513)
(0.109736 -0.000938928 0.0026969)
(0.111803 -8.12062e-05 0.00746818)
(0.117033 0.000883345 0.0100314)
(0.127114 0.000818151 0.0081977)
(0.136444 -0.000277957 0.00433205)
(0.145085 0.000396072 -0.00544396)
(0.141621 -0.000980148 -0.0154519)
(0.132742 -0.0039405 -0.0221573)
(0.127976 -0.00732983 -0.0245026)
(0.130484 -0.0105532 -0.0221712)
(0.135612 -0.0131257 -0.016906)
(0.139698 -0.0134402 -0.0103208)
(0.144377 -0.0100537 -0.00344166)
(0.14742 -0.00487722 0.0014264)
(0.14422 -0.00205693 0.00220947)
(0.137192 -0.00245249 0.000806382)
(0.1346 -0.00306293 0.00133228)
(0.139873 -0.00167544 0.00413372)
(0.146573 -0.000132534 0.0057788)
(0.147231 -0.00188433 0.00456281)
(0.142915 -0.00656617 0.00270083)
(0.142211 -0.0091431 0.00307802)
(0.147371 -0.00612245 0.00474512)
(0.150009 -0.000158823 0.00549103)
(0.144269 0.0041892 0.00717788)
(0.134111 0.00479046 0.0109947)
(0.126255 0.00153313 0.0115324)
(0.122558 -0.00433901 0.00497358)
(0.12403 -0.00966742 -0.00336248)
(0.132918 -0.0112446 -0.00645493)
(0.143003 -0.00939474 -0.00403517)
(0.143827 -0.00705715 0.00112828)
(0.134992 -0.00580503 0.009113)
(0.123925 -0.00685201 0.016702)
(0.119027 -0.00849574 0.0163728)
(0.121683 -0.00612954 0.00793817)
(0.124476 0.000431413 -0.0014822)
(0.123846 0.00522972 -0.00714053)
(0.122198 0.00487405 -0.00888632)
(0.120464 0.00189994 -0.00745951)
(0.118236 0.000318128 -0.00345682)
(0.116515 0.000591908 0.00178054)
(0.11707 0.00041471 0.00656002)
(0.123476 -0.000539152 0.00851383)
(0.135117 -0.00240245 0.0033636)
(0.146671 0.000601414 -0.00225759)
(0.149695 0.00179121 -0.0105818)
(0.143567 -0.00101588 -0.0180198)
(0.136747 -0.00535255 -0.0222288)
(0.136222 -0.00884038 -0.0220817)
(0.140767 -0.0114297 -0.0191683)
(0.144131 -0.0133398 -0.0145174)
(0.144988 -0.0125383 -0.0076791)
(0.145711 -0.00775915 -0.000932358)
(0.144542 -0.00252033 0.00199131)
(0.140216 -0.000958285 0.00127741)
(0.136737 -0.00234323 0.00100962)
(0.138829 -0.00301988 0.00359795)
(0.145201 -0.00189604 0.00670196)
(0.149709 -0.00179262 0.00667516)
(0.148562 -0.00475726 0.00344917)
(0.14402 -0.00822423 0.00114401)
(0.141326 -0.00799008 0.00250085)
(0.141 -0.00343429 0.00571282)
(0.138981 0.00194231 0.0089548)
(0.134332 0.0049548 0.0110434)
(0.130601 0.00415114 0.00878777)
(0.12827 -0.00068307 0.00128295)
(0.126497 -0.00770875 -0.00645642)
(0.130896 -0.0120375 -0.0085932)
(0.142813 -0.0110424 -0.00517825)
(0.149792 -0.00734531 -0.000562377)
(0.14374 -0.00437401 0.0050748)
(0.131434 -0.0038503 0.0127163)
(0.123038 -0.00496859 0.0162525)
(0.122268 -0.00367982 0.0113908)
(0.124729 0.00140092 0.0025404)
(0.126492 0.00534752 -0.00468809)
(0.128126 0.00485239 -0.0088018)
(0.129551 0.00250324 -0.0102492)
(0.129102 0.0017337 -0.00925008)
(0.126832 0.00219884 -0.00582313)
(0.124811 0.000977312 -0.000848319)
(0.12631 -0.00198448 0.0033933)
(0.135053 -0.00370876 0.00212985)
(0.14368 -0.000813111 -0.000768478)
(0.151917 0.00251691 -0.00688257)
(0.151766 0.00137958 -0.0140498)
(0.145863 -0.00254951 -0.0195204)
(0.142862 -0.00617951 -0.0209473)
(0.146056 -0.00908455 -0.0195374)
(0.150271 -0.0119772 -0.0169443)
(0.150204 -0.0131193 -0.011696)
(0.147533 -0.00973752 -0.00432658)
(0.144932 -0.00348653 0.000673688)
(0.141876 0.000349799 0.00162106)
(0.139185 -0.000384388 0.00163008)
(0.139666 -0.00281203 0.00379235)
(0.14441 -0.00334562 0.0072944)
(0.150038 -0.00266581 0.00831405)
(0.15135 -0.00351041 0.00497031)
(0.146114 -0.00557287 0.000985643)
(0.137425 -0.00643949 0.0011813)
(0.130482 -0.00472848 0.00487615)
(0.127556 -0.000982279 0.00777204)
(0.128393 0.00293584 0.00713593)
(0.131753 0.00488095 0.00285657)
(0.134342 0.00271354 -0.00334201)
(0.133789 -0.00376847 -0.00828717)
(0.134598 -0.0106661 -0.00843789)
(0.142813 -0.0127117 -0.00378691)
(0.1517 -0.00919465 0.00117443)
(0.149141 -0.00455405 0.00491234)
(0.137169 -0.0021786 0.0102043)
(0.126957 -0.0018179 0.0143057)
(0.12429 -0.000485003 0.0119714)
(0.126729 0.00304745 0.00474457)
(0.129265 0.005476 -0.0018733)
(0.130293 0.00427153 -0.00572495)
(0.131411 0.00174781 -0.00827987)
(0.133427 0.00127327 -0.0101129)
(0.135044 0.00240837 -0.00923682)
(0.134832 0.00176273 -0.00471176)
(0.133218 -0.00176952 0.000403298)
(0.133742 -0.00229618 0.0036148)
(0.137229 -0.00107959 0.000768739)
(0.146353 0.00184225 -0.00411063)
(0.153009 0.00225137 -0.0102789)
(0.152041 0.000116616 -0.0161368)
(0.149336 -0.00264824 -0.0189274)
(0.151773 -0.0058112 -0.0186365)
(0.156804 -0.00970371 -0.0174418)
(0.157297 -0.0122522 -0.0146446)
(0.152624 -0.0102441 -0.00870059)
(0.147464 -0.0042815 -0.0022659)
(0.1439 0.000867049 0.00138557)
(0.141818 0.00162692 0.00294035)
(0.141658 -0.000859043 0.00455852)
(0.144248 -0.00288836 0.00676492)
(0.148258 -0.00319567 0.0082145)
(0.149948 -0.00335346 0.00684239)
(0.146541 -0.00380654 0.00288086)
(0.138752 -0.00366215 -0.000102533)
(0.13093 -0.00288728 0.000317237)
(0.127304 -0.00158348 0.0021441)
(0.129156 0.000409189 0.00216686)
(0.134514 0.0025974 -0.000614208)
(0.138807 0.00293394 -0.00503455)
(0.139251 -0.000555658 -0.00837611)
(0.139119 -0.00728216 -0.00786436)
(0.143996 -0.0125071 -0.00337087)
(0.151584 -0.0112594 0.00163692)
(0.151386 -0.00555012 0.0051383)
(0.141793 -0.0011065 0.0094566)
(0.131791 0.000398091 0.0130034)
(0.127437 0.00167343 0.0112344)
(0.127382 0.00454508 0.00555123)
(0.127139 0.00641427 0.00126674)
(0.125772 0.00481732 -0.000427669)
(0.125805 0.00161167 -0.002352)
(0.128963 0.000193331 -0.00506777)
(0.133867 0.00123273 -0.00534431)
(0.136855 0.0017275 -0.00152744)
(0.135731 -0.000217108 0.00279434)
(0.1333 0.000328922 0.00555587)
(0.133757 0.000895403 0.00324265)
(0.139808 0.00233228 -0.00128739)
(0.148302 0.00281573 -0.00660821)
(0.153394 0.00197597 -0.0115956)
(0.154983 0.00052742 -0.0146273)
(0.158338 -0.00212226 -0.0155339)
(0.163591 -0.00656628 -0.0161273)
(0.164452 -0.0102008 -0.0159706)
(0.158737 -0.00923846 -0.0122719)
(0.151342 -0.00397248 -0.00565713)
(0.146235 0.00131246 -0.000103894)
(0.143747 0.00279761 0.00303866)
(0.143328 0.000929122 0.00497674)
(0.144704 -0.00134337 0.00637997)
(0.146344 -0.00249148 0.00726675)
(0.145846 -0.00316252 0.00704623)
(0.142854 -0.00324449 0.00442073)
(0.138581 -0.00206101 0.000291403)
(0.134903 -0.000730806 -0.00192467)
(0.13363 -0.000777016 -0.000955343)
(0.135264 -0.00127631 0.000607579)
(0.138587 -0.000328246 -5.67687e-05)
(0.14044 0.0014789 -0.00276951)
(0.139568 0.00100262 -0.00477741)
(0.139076 -0.00374198 -0.00407778)
(0.142482 -0.0100146 -0.000991519)
(0.148969 -0.0116278 0.0026685)
(0.151596 -0.00688163 0.00546172)
(0.14654 -0.000809017 0.00858333)
(0.138457 0.00280786 0.0112306)
(0.131967 0.00481518 0.0103022)
(0.127404 0.00657837 0.006489)
(0.123735 0.00707959 0.00374011)
(0.121815 0.00467143 0.00325349)
(0.122856 0.000403979 0.00262385)
(0.126642 -0.00257864 0.000507403)
(0.131918 -0.00241887 -0.000887921)
(0.135734 -0.000628024 0.00085345)
(0.135608 0.000396343 0.00422636)
(0.132743 0.00317094 0.00678472)
(0.133034 0.00462655 0.00574163)
(0.136968 0.00504615 0.00259583)
(0.143438 0.00396814 -0.00180652)
(0.149859 0.00276907 -0.00668319)
(0.155505 0.00247918 -0.0103127)
(0.161881 0.00114802 -0.0118519)
(0.167922 -0.00286811 -0.012963)
(0.16896 -0.00701147 -0.0146495)
(0.163471 -0.00696019 -0.0141767)
(0.155664 -0.00247685 -0.00938051)
(0.14951 0.00208738 -0.00307115)
(0.145787 0.00330118 0.00143085)
(0.143829 0.00180957 0.00404542)
(0.143219 0.000116143 0.0056227)
(0.143043 -0.000637798 0.00647848)
(0.141719 -0.00117651 0.00648131)
(0.139511 -0.00148673 0.00466605)
(0.138294 -0.000609257 0.00116348)
(0.139426 0.000288697 -0.00148479)
(0.142241 -0.00110823 -0.00123539)
(0.143762 -0.00366019 0.000698935)
(0.142264 -0.00362232 0.00155985)
(0.139154 -0.000493669 0.000944486)
(0.137216 0.0016725 0.00117998)
(0.138466 -0.000861766 0.00283841)
(0.142628 -0.00704476 0.00460284)
(0.147956 -0.010956 0.005671)
(0.150724 -0.00808551 0.00619975)
(0.147907 -0.00115328 0.00768773)
(0.141356 0.00433957 0.00930604)
(0.133985 0.00667851 0.00850439)
(0.126947 0.00729521 0.00611357)
(0.121889 0.00721753 0.005472)
(0.120583 0.00561985 0.00702559)
(0.122777 0.00221013 0.0076942)
(0.126822 -0.00122313 0.00594629)
(0.131178 -0.00246003 0.00389153)
(0.134108 -0.00108987 0.0039225)
(0.134204 0.00122813 0.00561625)
(0.1367 0.0049769 0.00656589)
(0.136038 0.00682314 0.00716906)
(0.137662 0.00734704 0.0056079)
(0.141427 0.00536623 0.00176518)
(0.146245 0.0019755 -0.00287477)
(0.152266 -7.53323e-05 -0.00640037)
(0.159804 -0.000119906 -0.00830984)
(0.166427 -0.000322956 -0.00996713)
(0.168167 -0.00200204 -0.0121876)
(0.164783 -0.00287336 -0.01355)
(0.160085 -0.000760882 -0.0117191)
(0.156541 0.00224951 -0.00714228)
(0.153364 0.00333328 -0.00261325)
(0.149319 0.00254025 0.000424457)
(0.144883 0.00127773 0.00236969)
(0.141443 0.000125256 0.0037435)
(0.139486 -0.000779033 0.00468439)
(0.139242 -0.00102132 0.00496207)
(0.141831 -0.000270123 0.00396078)
(0.147511 0.000371357 0.00168089)
(0.153229 -0.00102548 -0.000134301)
(0.154049 -0.00376426 0.000951111)
(0.14902 -0.00422928 0.0047993)
(0.142513 -0.00110806 0.00796244)
(0.139229 0.00250387 0.00774723)
(0.140231 0.0025597 0.00481198)
(0.143702 -0.00218673 0.00273914)
(0.14782 -0.0076469 0.00350476)
(0.150056 -0.00708373 0.00462251)
(0.147383 -0.000398565 0.00497364)
(0.140455 0.00641085 0.00594514)
(0.132312 0.00939634 0.00665054)
(0.125575 0.0093965 0.00637787)
(0.122001 0.00834133 0.00617555)
(0.121904 0.00670886 0.0066457)
(0.124121 0.00428339 0.00689627)
(0.127355 0.00165646 0.0061024)
(0.131224 0.00034906 0.00483375)
(0.135151 0.00107191 0.00433155)
(0.137218 0.00293523 0.00514191)
(0.136732 0.00492002 0.00531411)
(0.135763 0.00634917 0.00633953)
(0.136895 0.00709034 0.0065848)
(0.140457 0.00550216 0.00482165)
(0.145022 0.00152888 0.000867614)
(0.149726 -0.00245695 -0.0037767)
(0.155339 -0.00402676 -0.0070549)
(0.161788 -0.00334472 -0.0085961)
(0.166152 -0.00209495 -0.00957279)
(0.165508 -0.000793614 -0.0105832)
(0.161364 0.00112382 -0.010533)
(0.157724 0.00320875 -0.00854411)
(0.155936 0.00405273 -0.00552605)
(0.154568 0.00374155 -0.00296068)
(0.152056 0.00322133 -0.0013001)
(0.148364 0.00207166 -3.04522e-05)
(0.144508 -0.000628559 0.00150559)
(0.14214 -0.00406152 0.00351462)
(0.143383 -0.00660238 0.00507133)
(0.148667 -0.00768089 0.00486754)
(0.154539 -0.00765331 0.00297762)
(0.155954 -0.00690505 0.00209254)
(0.151853 -0.00498644 0.00443113)
(0.146091 -0.000944395 0.00747642)
(0.142127 0.00433262 0.00658191)
(0.140331 0.00710925 0.00142523)
(0.14027 0.00419662 -0.003134)
(0.142497 -0.00259769 -0.00282461)
(0.145691 -0.00630744 0.000538312)
(0.145868 -0.00239855 0.00291131)
(0.141477 0.00536741 0.00415191)
(0.135489 0.011018 0.00512401)
(0.131585 0.0129992 0.004897)
(0.130744 0.0125301 0.00317761)
(0.131691 0.0105527 0.0012047)
(0.132804 0.00764303 0.00032635)
(0.13365 0.0047504 0.000955309)
(0.134895 0.00314243 0.00240868)
(0.136631 0.00311453 0.00365339)
(0.137537 0.00383265 0.00443758)
(0.137593 0.00512638 0.00646543)
(0.135367 0.00395476 0.00935217)
(0.135922 0.00206721 0.0113684)
(0.139937 -0.00030666 0.0111739)
(0.146348 -0.00277967 0.00791661)
(0.152793 -0.00450181 0.00242193)
(0.156893 -0.00448258 -0.00333739)
(0.157653 -0.00267953 -0.00764922)
(0.155664 2.87062e-05 -0.00977583)
(0.152266 0.00262129 -0.00983614)
(0.148895 0.0043489 -0.00862482)
(0.146495 0.00477373 -0.00739893)
(0.145567 0.00393819 -0.00673132)
(0.146553 0.0025202 -0.00601531)
(0.149269 0.00140611 -0.00474884)
(0.152525 0.000816934 -0.00346497)
(0.154418 0.000312734 -0.00240136)
(0.154012 -0.00104844 -0.000690843)
(0.152571 -0.00416701 0.00227877)
(0.152048 -0.00824058 0.00557734)
(0.152839 -0.0105855 0.00757029)
(0.153335 -0.0089639 0.00769054)
(0.151553 -0.00410317 0.00708475)
(0.147715 0.00114799 0.00623939)
(0.143781 0.00449769 0.00388547)
(0.141166 0.00485638 -0.000409774)
(0.140535 0.00209129 -0.00413755)
(0.142121 -0.00263188 -0.00387283)
(0.144717 -0.00617986 0.00022306)
(0.145776 -0.00464664 0.00463097)
(0.144232 0.00159671 0.00700689)
(0.142199 0.00821773 0.00699905)
(0.142014 0.0122599 0.00437338)
(0.143422 0.0133461 -0.000443582)
(0.144565 0.0117991 -0.00550671)
(0.144366 0.00840744 -0.0087112)
(0.143344 0.00490525 -0.00863643)
(0.142601 0.00339539 -0.00549245)
(0.142066 0.00414319 -0.000974841)
(0.140464 0.0052178 0.00313459)
(0.147046 0.00600025 -0.00100239)
(0.148286 0.00396245 0.00286858)
(0.150299 0.000798938 0.00708939)
(0.151609 -0.00191405 0.0110088)
(0.152261 -0.00349117 0.0130631)
(0.153901 -0.00387358 0.0118504)
(0.157128 -0.00257035 0.00733898)