/*--------------------------------*- C++ -*----------------------------------*\
| =========                 |                                                 |
| \\      /  F ield         | OpenFOAM: The Open Source CFD Toolbox           |
|  \\    /   O peration     | Version:  2306                                  |
|   \\  /    A nd           | Website:  www.openfoam.com                      |
|    \\/     M anipulation  |                                                 |
\*---------------------------------------------------------------------------*/
FoamFile
{
    version     2.0;
    format      ascii;
    arch        "LSB;label=32;scalar=64";
    class       volScalarField;
    location    "6.5";
    object      nut;
}
// * * * * * * * * * * * * * * * * * * * * * * * * * * * * * * * * * * * * * //

dimensions      [0 2 -1 0 0 0 0];

internalField   nonuniform List<scalar> 
60000
(
7.00758e-05
7.63609e-05
8.25846e-05
8.74777e-05
8.95752e-05
8.81631e-05
8.45253e-05
8.08203e-05
7.79729e-05
7.58729e-05
7.39789e-05
7.11889e-05
6.66911e-05
6.09209e-05
5.5579e-05
5.21994e-05
5.10206e-05
5.13347e-05
5.22398e-05
5.33323e-05
5.50595e-05
5.76863e-05
6.06238e-05
6.35186e-05
6.66234e-05
7.04379e-05
7.53264e-05
8.04905e-05
8.35632e-05
8.28969e-05
7.89716e-05
7.3168e-05
6.70581e-05
6.20446e-05
5.85951e-05
5.68636e-05
5.68806e-05
5.82486e-05
6.08452e-05
6.47342e-05
6.95779e-05
7.59003e-05
8.20874e-05
8.75395e-05
9.09961e-05
9.09018e-05
8.75042e-05
8.32513e-05
8.00798e-05
7.81473e-05
7.6649e-05
7.43426e-05
7.04576e-05
6.53937e-05
6.02819e-05
5.61915e-05
5.3622e-05
5.24354e-05
5.22062e-05
5.27568e-05
5.41883e-05
5.63802e-05
5.90332e-05
6.22182e-05
6.62476e-05
7.12695e-05
7.70876e-05
8.26115e-05
8.57831e-05
8.52934e-05
8.1608e-05
7.64191e-05
7.13918e-05
6.69547e-05
6.26391e-05
5.88968e-05
5.68519e-05
5.71379e-05
5.96415e-05
6.39021e-05
6.45617e-05
7.07727e-05
7.7207e-05
8.38904e-05
8.98508e-05
9.24991e-05
9.02463e-05
8.53059e-05
8.12004e-05
7.90594e-05
7.80861e-05
7.69591e-05
7.47248e-05
7.11971e-05
6.65114e-05
6.11465e-05
5.61636e-05
5.26219e-05
5.08372e-05
5.05198e-05
5.13099e-05
5.28953e-05
5.51515e-05
5.82308e-05
6.23086e-05
6.73718e-05
7.32876e-05
7.95066e-05
8.43327e-05
8.59994e-05
8.43172e-05
8.07527e-05
7.68956e-05
7.30076e-05
6.81475e-05
6.22555e-05
5.70818e-05
5.47641e-05
5.58114e-05
5.93211e-05
5.57001e-05
6.11841e-05
6.76149e-05
7.50043e-05
8.37849e-05
9.06005e-05
9.13646e-05
8.65551e-05
8.11588e-05
7.83376e-05
7.77975e-05
7.80633e-05
7.78911e-05
7.66274e-05
7.35176e-05
6.78669e-05
6.04209e-05
5.34995e-05
4.90236e-05
4.70511e-05
4.67519e-05
4.74556e-05
4.89376e-05
5.12087e-05
5.43256e-05
5.814e-05
6.28676e-05
6.91555e-05
7.63403e-05
8.20057e-05
8.43987e-05
8.37974e-05
8.16866e-05
7.89311e-05
7.48515e-05
6.82118e-05
5.9887e-05
5.32958e-05
5.08504e-05
5.20265e-05
4.52769e-05
4.83005e-05
5.3047e-05
5.92546e-05
6.91295e-05
8.07199e-05
8.7233e-05
8.50963e-05
7.8964e-05
7.49796e-05
7.45429e-05
7.60418e-05
7.77397e-05
7.88729e-05
7.86709e-05
7.52713e-05
6.75123e-05
5.73236e-05
4.86799e-05
4.35655e-05
4.12938e-05
4.06206e-05
4.08181e-05
4.16004e-05
4.31682e-05
4.51007e-05
4.7257e-05
5.10118e-05
5.84677e-05
6.87478e-05
7.73765e-05
8.20117e-05
8.29751e-05
8.18799e-05
7.97197e-05
7.50457e-05
6.63576e-05
5.58933e-05
4.82283e-05
4.49591e-05
3.98914e-05
3.94546e-05
4.06213e-05
4.26271e-05
4.68536e-05
5.82531e-05
7.22825e-05
7.71305e-05
7.26232e-05
6.7611e-05
6.70535e-05
6.95988e-05
7.26058e-05
7.52739e-05
7.81759e-05
7.96642e-05
7.60492e-05
6.58909e-05
5.30859e-05
4.30249e-05
3.72363e-05
3.44063e-05
3.30514e-05
3.25927e-05
3.34049e-05
3.50764e-05
3.62751e-05
3.87878e-05
4.23169e-05
4.68346e-05
5.86108e-05
7.07782e-05
7.73592e-05
7.86502e-05
7.82265e-05
7.72422e-05
7.2819e-05
6.34281e-05
5.23801e-05
4.40128e-05
4.37356e-05
3.78515e-05
3.57228e-05
3.6251e-05
3.96725e-05
4.0258e-05
4.57579e-05
5.78695e-05
5.89036e-05
5.38676e-05
5.33007e-05
5.75921e-05
6.20242e-05
6.47614e-05
6.85549e-05
7.52014e-05
8.00976e-05
7.66196e-05
6.40468e-05
4.91023e-05
3.80741e-05
3.20002e-05
2.91858e-05
2.81823e-05
2.88355e-05
3.13164e-05
3.25313e-05
3.04056e-05
3.62524e-05
4.09033e-05
3.81677e-05
4.77208e-05
6.14475e-05
6.70581e-05
6.74963e-05
6.8923e-05
7.04538e-05
6.80882e-05
6.11872e-05
5.24893e-05
5.58391e-05
4.53413e-05
3.52118e-05
2.95142e-05
3.15708e-05
4.06706e-05
3.66479e-05
3.45155e-05
4.03527e-05
3.51728e-05
3.18307e-05
3.8485e-05
4.63011e-05
4.86295e-05
4.88424e-05
5.63016e-05
7.04265e-05
8.04425e-05
7.71297e-05
6.24654e-05
4.61112e-05
3.50823e-05
3.01036e-05
2.88562e-05
2.96122e-05
3.26433e-05
3.74897e-05
3.67514e-05
2.55836e-05
3.24537e-05
3.8163e-05
3.14791e-05
3.83147e-05
4.38702e-05
3.88554e-05
3.76414e-05
4.5786e-05
5.54628e-05
6.02703e-05
6.04802e-05
5.71292e-05
5.57953e-05
4.35569e-05
3.05617e-05
2.14292e-05
2.53789e-05
3.71041e-05
2.9262e-05
2.78701e-05
2.79739e-05
1.719e-05
1.809e-05
2.68986e-05
3.28173e-05
2.77315e-05
2.46057e-05
3.88612e-05
6.39642e-05
7.97898e-05
7.66556e-05
6.04172e-05
4.34685e-05
3.38562e-05
3.14105e-05
3.28797e-05
3.66263e-05
4.24066e-05
4.80415e-05
4.19175e-05
2.2688e-05
2.88971e-05
3.08877e-05
1.92322e-05
2.03206e-05
2.17675e-05
2.38235e-05
2.44878e-05
2.7584e-05
3.85183e-05
4.9634e-05
3.89399e-05
5.03647e-05
5.13751e-05
3.83391e-05
2.56898e-05
1.84922e-05
2.41177e-05
3.24081e-05
2.39958e-05
2.94932e-05
2.42545e-05
1.16064e-05
1.53121e-05
1.66577e-05
2.15346e-05
1.09344e-05
1.26086e-05
2.77042e-05
5.86709e-05
7.74403e-05
7.35678e-05
5.60912e-05
4.0385e-05
3.41881e-05
3.49385e-05
3.99859e-05
4.75103e-05
5.46673e-05
5.50667e-05
3.82248e-05
1.80022e-05
2.45334e-05
1.8228e-05
1.92419e-05
2.90073e-05
2.83338e-05
2.93989e-05
2.95475e-05
2.80566e-05
3.08442e-05
2.97088e-05
3.1462e-05
4.60071e-05
4.58659e-05
3.24608e-05
2.46098e-05
2.15322e-05
2.47065e-05
2.95116e-05
2.44254e-05
3.09458e-05
1.90344e-05
1.11675e-05
1.41091e-05
1.20665e-05
1.98828e-05
8.18607e-06
1.89097e-05
2.61387e-05
5.36398e-05
7.14981e-05
6.63251e-05
4.99904e-05
3.76114e-05
3.25336e-05
3.542e-05
4.49608e-05
5.65385e-05
6.13216e-05
5.07473e-05
2.56876e-05
1.62467e-05
2.00578e-05
1.98949e-05
2.77532e-05
2.67549e-05
1.84298e-05
1.44156e-05
1.95968e-05
2.74119e-05
2.66264e-05
2.36581e-05
2.98324e-05
4.5153e-05
4.07353e-05
3.09075e-05
2.9031e-05
2.46193e-05
2.5041e-05
2.78682e-05
2.19213e-05
2.37559e-05
9.64586e-06
1.274e-05
1.29075e-05
1.26775e-05
1.75574e-05
1.01277e-05
2.41592e-05
2.56803e-05
4.51565e-05
5.98376e-05
5.40483e-05
3.90242e-05
2.44187e-05
2.27323e-05
3.10092e-05
4.42369e-05
5.80706e-05
5.6941e-05
3.81773e-05
1.90988e-05
1.84769e-05
1.75284e-05
2.13652e-05
2.95437e-05
3.30667e-05
2.72106e-05
1.68835e-05
1.65346e-05
2.7466e-05
2.63224e-05
1.68839e-05
3.41088e-05
4.30257e-05
3.71654e-05
3.43456e-05
3.24345e-05
2.41618e-05
2.38881e-05
2.23611e-05
1.59123e-05
1.59762e-05
5.00759e-06
1.33026e-05
1.29438e-05
1.27081e-05
1.51676e-05
1.32856e-05
2.42218e-05
2.15245e-05
2.6304e-05
3.19409e-05
2.91693e-05
2.50301e-05
2.09256e-05
2.3405e-05
2.47614e-05
4.1029e-05
5.34846e-05
4.56945e-05
2.84811e-05
2.06388e-05
1.65597e-05
1.53024e-05
2.25582e-05
3.3526e-05
3.92762e-05
3.66804e-05
3.08615e-05
3.36594e-05
2.87405e-05
2.09106e-05
1.63008e-05
3.50673e-05
4.01422e-05
3.88734e-05
3.88488e-05
3.18189e-05
2.38316e-05
2.20984e-05
1.686e-05
1.38669e-05
1.16198e-05
8.25312e-06
1.39834e-05
1.18765e-05
1.30244e-05
1.59304e-05
1.55025e-05
2.78523e-05
3.0226e-05
1.81892e-05
1.4124e-05
2.59486e-05
2.78389e-05
2.22423e-05
1.96471e-05
2.23397e-05
4.10595e-05
4.43454e-05
3.36367e-05
2.51347e-05
1.94621e-05
1.47222e-05
1.38957e-05
1.91161e-05
2.92411e-05
3.72172e-05
3.90169e-05
2.35982e-05
2.22926e-05
2.67441e-05
1.56771e-05
1.75766e-05
3.48273e-05
4.02492e-05
4.24109e-05
3.83888e-05
3.0784e-05
2.66678e-05
2.18505e-05
1.53434e-05
1.40256e-05
1.21713e-05
1.20734e-05
1.26704e-05
9.29327e-06
1.52604e-05
1.99766e-05
2.13533e-05
2.4624e-05
1.99733e-05
1.65682e-05
2.32351e-05
2.96526e-05
2.67548e-05
1.97186e-05
1.51662e-05
2.84011e-05
3.8862e-05
3.37257e-05
2.69114e-05
2.11441e-05
1.41051e-05
1.23634e-05
1.37358e-05
1.11829e-05
1.55556e-05
2.24493e-05
1.43245e-05
1.81559e-05
2.68237e-05
3.05207e-05
1.62141e-05
2.27561e-05
3.69933e-05
4.26557e-05
4.12298e-05
3.5261e-05
3.16013e-05
2.62695e-05
1.76233e-05
1.30833e-05
1.48777e-05
1.38626e-05
1.11967e-05
1.09385e-05
1.37454e-05
1.91733e-05
2.10841e-05
1.69679e-05
1.71247e-05
2.1121e-05
2.04267e-05
2.40463e-05
2.84893e-05
2.2543e-05
1.24074e-05
1.96415e-05
3.28054e-05
3.20853e-05
2.69326e-05
2.04446e-05
1.64787e-05
1.95281e-05
2.06693e-05
1.99882e-05
1.84158e-05
1.49203e-05
1.42827e-05
2.00209e-05
2.56114e-05
3.22455e-05
3.15784e-05
2.41195e-05
2.66854e-05
3.51143e-05
3.78814e-05
3.41704e-05
3.29238e-05
3.0053e-05
2.09755e-05
1.11946e-05
8.64925e-06
1.06812e-05
1.02641e-05
1.24877e-05
1.44042e-05
1.2863e-05
1.48284e-05
1.99826e-05
2.3277e-05
2.25511e-05
1.72725e-05
1.80327e-05
2.82472e-05
2.90139e-05
1.51355e-05
8.41806e-06
2.3301e-05
2.95748e-05
2.80108e-05
2.19328e-05
2.03383e-05
1.99043e-05
1.78148e-05
1.71922e-05
1.63877e-05
1.30931e-05
1.53373e-05
2.55368e-05
2.8704e-05
2.89615e-05
2.89771e-05
2.90591e-05
2.99763e-05
2.89414e-05
2.63094e-05
2.45022e-05
2.60685e-05
2.95717e-05
2.81851e-05
2.15188e-05
1.24091e-05
6.6404e-06
7.94531e-06
1.12863e-05
1.46145e-05
1.66858e-05
1.99309e-05
2.34782e-05
2.46834e-05
2.37512e-05
2.02315e-05
1.54519e-05
2.36304e-05
3.14509e-05
2.3156e-05
7.75881e-06
1.41677e-05
2.2094e-05
2.6582e-05
2.6502e-05
2.14938e-05
1.35015e-05
1.53325e-05
2.00684e-05
1.65155e-05
8.4937e-06
1.51615e-05
1.96094e-05
2.25318e-05
2.17695e-05
2.22055e-05
2.22664e-05
2.49571e-05
2.87388e-05
2.49865e-05
1.80185e-05
1.73986e-05
1.99732e-05
2.28255e-05
2.45335e-05
2.46517e-05
2.20719e-05
1.59608e-05
9.05771e-06
1.23752e-05
2.36525e-05
3.02332e-05
2.59817e-05
1.75278e-05
2.36481e-05
2.70099e-05
1.76207e-05
2.09525e-05
3.79347e-05
3.70762e-05
1.80029e-05
1.34119e-05
2.50333e-05
2.94055e-05
2.82503e-05
2.59371e-05
2.6143e-05
2.57972e-05
2.42003e-05
2.34215e-05
1.98105e-05
1.18803e-05
1.48961e-05
1.99945e-05
2.18312e-05
2.08058e-05
1.81532e-05
1.7011e-05
1.90472e-05
2.01725e-05
1.85436e-05
1.74821e-05
1.63318e-05
1.37954e-05
1.46679e-05
1.60967e-05
1.96182e-05
2.35173e-05
2.24246e-05
1.7791e-05
1.77378e-05
2.47835e-05
2.77438e-05
2.13479e-05
1.94015e-05
2.52019e-05
2.42374e-05
1.55405e-05
1.70268e-05
2.47309e-05
1.73505e-05
1.0705e-05
2.73865e-05
3.48429e-05
3.86474e-05
4.48753e-05
4.78799e-05
4.3494e-05
3.40314e-05
2.42792e-05
1.66226e-05
2.4483e-05
2.28847e-05
2.30868e-05
2.50339e-05
2.54351e-05
2.19555e-05
1.84411e-05
1.48178e-05
1.00476e-05
1.35342e-05
1.95241e-05
1.93152e-05
1.46029e-05
1.31361e-05
1.66432e-05
1.91404e-05
1.91615e-05
1.87775e-05
1.90281e-05
1.69145e-05
1.12024e-05
5.92873e-06
7.096e-06
1.25048e-05
2.0882e-05
2.60809e-05
2.61826e-05
1.78478e-05
7.742e-06
9.69407e-06
8.24801e-06
2.41381e-05
3.63748e-05
4.30749e-05
4.66136e-05
4.43903e-05
3.88151e-05
3.43879e-05
3.14046e-05
2.80018e-05
3.12844e-05
3.04464e-05
2.96068e-05
2.77653e-05
2.45195e-05
1.92839e-05
1.37118e-05
1.50398e-05
1.77217e-05
1.93032e-05
2.24344e-05
2.32345e-05
1.97155e-05
1.48118e-05
1.05361e-05
7.34054e-06
9.38852e-06
1.20563e-05
1.16368e-05
1.09231e-05
1.35072e-05
1.85273e-05
1.84891e-05
1.75835e-05
2.33422e-05
3.03677e-05
3.37411e-05
2.98082e-05
1.92686e-05
1.17015e-05
1.26316e-05
2.25304e-05
3.40804e-05
3.88178e-05
3.60241e-05
2.88037e-05
2.31558e-05
2.24944e-05
2.61404e-05
3.01399e-05
2.27014e-05
2.34727e-05
1.98152e-05
1.53198e-05
1.23702e-05
1.19263e-05
1.27215e-05
1.31028e-05
1.25718e-05
1.11797e-05
1.17153e-05
1.3882e-05
1.3806e-05
1.44007e-05
1.83646e-05
2.05822e-05
1.8623e-05
1.46179e-05
1.26775e-05
1.38527e-05
1.38859e-05
1.31614e-05
1.74087e-05
1.90153e-05
1.89603e-05
2.55803e-05
3.13713e-05
3.04782e-05
2.37444e-05
1.63625e-05
1.43768e-05
1.92311e-05
2.62019e-05
2.78776e-05
2.34509e-05
1.89805e-05
1.6804e-05
1.38351e-05
1.12876e-05
1.65022e-05
1.16831e-05
1.14109e-05
1.16993e-05
1.28339e-05
1.31658e-05
1.29029e-05
1.09387e-05
8.46283e-06
8.2933e-06
8.20336e-06
1.09351e-05
1.55982e-05
1.74974e-05
1.98511e-05
2.36227e-05
2.26672e-05
1.70786e-05
1.28329e-05
1.26669e-05
1.37481e-05
1.12635e-05
5.63651e-06
9.5312e-06
1.44106e-05
1.77491e-05
1.97489e-05
1.86705e-05
1.40514e-05
8.96363e-06
8.36046e-06
9.615e-06
1.16141e-05
1.47709e-05
1.61947e-05
1.64388e-05
1.61374e-05
1.37253e-05
1.01688e-05
9.1146e-06
1.07683e-05
1.32905e-05
7.81547e-06
6.55266e-06
1.1993e-05
1.40215e-05
1.43728e-05
1.38718e-05
1.10038e-05
8.10926e-06
8.59139e-06
1.16765e-05
1.47894e-05
1.49402e-05
1.1567e-05
8.67643e-06
9.65071e-06
1.02514e-05
8.94891e-06
9.90013e-06
1.67483e-05
2.33194e-05
2.41869e-05
2.02332e-05
1.78433e-05
1.87155e-05
2.14541e-05
2.56591e-05
2.74271e-05
2.37227e-05
1.4817e-05
5.57329e-06
6.23371e-06
1.03124e-05
1.33424e-05
1.7004e-05
2.02872e-05
2.14284e-05
1.84174e-05
1.38637e-05
1.36106e-05
5.66131e-05
6.20064e-05
6.78272e-05
7.26161e-05
7.59437e-05
7.81275e-05
7.94446e-05
7.98363e-05
7.94565e-05
7.88995e-05
7.84714e-05
7.74507e-05
7.50044e-05
7.13397e-05
6.77374e-05
6.516e-05
6.36124e-05
6.26069e-05
6.18122e-05
6.14674e-05
6.22839e-05
6.44699e-05
6.73457e-05
7.0032e-05
7.27489e-05
7.62326e-05
8.08569e-05
8.58738e-05
8.91949e-05
8.90826e-05
8.57143e-05
8.1048e-05
7.63786e-05
7.1444e-05
6.55148e-05
5.94447e-05
5.515e-05
5.29579e-05
5.22743e-05
5.324e-05
5.63125e-05
6.14294e-05
6.65631e-05
7.12414e-05
7.52753e-05
7.85265e-05
8.07488e-05
8.18919e-05
8.21241e-05
8.18408e-05
8.13433e-05
8.03052e-05
7.82723e-05
7.53239e-05
7.21813e-05
6.94942e-05
6.72281e-05
6.50786e-05
6.31793e-05
6.22105e-05
6.26988e-05
6.43293e-05
6.64696e-05
6.87929e-05
7.19451e-05
7.67092e-05
8.29565e-05
8.90252e-05
9.24724e-05
9.24689e-05
8.95691e-05
8.50765e-05
8.05641e-05
7.65623e-05
7.16203e-05
6.47552e-05
5.76385e-05
5.28016e-05
5.11453e-05
5.2488e-05
5.23825e-05
5.68788e-05
6.19549e-05
6.72401e-05
7.2394e-05
7.68282e-05
7.99827e-05
8.18758e-05
8.27276e-05
8.27545e-05
8.24117e-05
8.19385e-05
8.10986e-05
7.94046e-05
7.68384e-05
7.3882e-05
7.07695e-05
6.74502e-05
6.4257e-05
6.20284e-05
6.13186e-05
6.18402e-05
6.30415e-05
6.47359e-05
6.75612e-05
7.23363e-05
7.90502e-05
8.61554e-05
9.11046e-05
9.31066e-05
9.23886e-05
8.91696e-05
8.51235e-05
8.22754e-05
7.92987e-05
7.28867e-05
6.2994e-05
5.41455e-05
4.97058e-05
4.95297e-05
4.62866e-05
4.94397e-05
5.43673e-05
6.04004e-05
6.68083e-05
7.26261e-05
7.68595e-05
7.94517e-05
8.08642e-05
8.12751e-05
8.12114e-05
8.14482e-05
8.20616e-05
8.20838e-05
8.07349e-05
7.80855e-05
7.44869e-05
7.01532e-05
6.55077e-05
6.14693e-05
5.88212e-05
5.75805e-05
5.72771e-05
5.77042e-05
5.91292e-05
6.2358e-05
6.79635e-05
7.53469e-05
8.23177e-05
8.75405e-05
9.07904e-05
9.0748e-05
8.79543e-05
8.60859e-05
8.57193e-05
8.21726e-05
7.19546e-05
5.89965e-05
4.97613e-05
4.59264e-05
4.08197e-05
4.07404e-05
4.41758e-05
5.01018e-05
5.7275e-05
6.44167e-05
7.00018e-05
7.33136e-05
7.51083e-05
7.59353e-05
7.62919e-05
7.71452e-05
7.89184e-05
8.06389e-05
8.11461e-05
8.0034e-05
7.71954e-05
7.27126e-05
6.70131e-05
6.10905e-05
5.6089e-05
5.24539e-05
4.99284e-05
4.8282e-05
4.73874e-05
4.78587e-05
5.05896e-05
5.60876e-05
6.34941e-05
7.157e-05
7.98448e-05
8.56615e-05
8.62676e-05
8.52695e-05
8.70428e-05
8.82443e-05
8.21234e-05
6.86329e-05
5.47813e-05
4.53691e-05
4.18598e-05
3.51817e-05
3.43657e-05
3.74161e-05
4.32376e-05
5.07073e-05
5.77991e-05
6.22295e-05
6.41853e-05
6.52359e-05
6.62731e-05
6.77715e-05
7.00847e-05
7.25866e-05
7.46219e-05
7.61754e-05
7.62599e-05
7.37202e-05
6.84652e-05
6.1496e-05
5.44291e-05
4.83004e-05
4.32322e-05
3.92397e-05
3.66295e-05
3.57191e-05
3.61573e-05
3.86109e-05
4.22835e-05
4.67045e-05
5.60156e-05
6.89842e-05
7.6617e-05
7.76322e-05
7.99863e-05
8.57103e-05
8.71974e-05
7.9337e-05
6.6139e-05
5.31496e-05
5.53603e-05
3.93064e-05
3.02595e-05
2.85994e-05
3.00684e-05
3.38127e-05
4.0235e-05
4.57597e-05
4.76328e-05
4.79676e-05
4.96503e-05
5.25038e-05
5.52736e-05
5.71663e-05
5.86046e-05
6.19956e-05
6.69499e-05
6.98138e-05
6.83248e-05
6.26957e-05
5.47606e-05
4.67615e-05
3.9911e-05
3.46514e-05
3.17131e-05
3.18296e-05
3.26401e-05
3.1725e-05
3.18781e-05
3.10893e-05
3.06455e-05
4.09739e-05
5.63714e-05
6.22044e-05
6.34111e-05
7.04653e-05
7.96408e-05
8.19223e-05
7.68696e-05
6.84023e-05
7.44305e-05
5.70749e-05
3.54126e-05
2.66015e-05
2.66609e-05
2.73044e-05
2.64376e-05
2.88343e-05
3.14954e-05
2.93515e-05
2.76849e-05
3.14657e-05
3.63663e-05
3.75124e-05
3.50043e-05
3.55079e-05
4.43141e-05
5.56422e-05
6.27364e-05
6.30857e-05
5.69879e-05
4.79778e-05
4.01542e-05
3.49008e-05
3.28254e-05
3.51717e-05
4.04786e-05
4.05529e-05
3.34128e-05
2.68649e-05
2.22433e-05
2.22219e-05
3.22862e-05
4.22224e-05
3.94721e-05
3.97585e-05
5.23678e-05
6.64724e-05
7.40635e-05
7.76315e-05
8.04236e-05
7.78257e-05
5.32097e-05
2.97627e-05
2.55685e-05
2.99599e-05
3.01738e-05
2.24758e-05
2.07926e-05
2.21043e-05
1.59236e-05
1.26882e-05
1.6711e-05
2.19623e-05
2.00234e-05
1.33684e-05
1.63165e-05
2.9015e-05
4.67655e-05
5.84371e-05
5.92092e-05
5.10661e-05
4.18578e-05
3.61182e-05
3.29943e-05
3.28205e-05
3.87916e-05
4.57868e-05
4.17142e-05
3.17308e-05
2.23567e-05
1.77631e-05
2.02789e-05
2.4772e-05
2.1812e-05
1.34893e-05
1.72162e-05
2.63613e-05
4.49996e-05
6.49679e-05
5.91292e-05
8.2289e-05
7.43974e-05
4.58941e-05
2.48463e-05
2.60934e-05
3.38114e-05
3.26898e-05
2.00842e-05
1.79073e-05
1.79516e-05
8.89263e-06
1.34618e-05
1.54032e-05
1.72055e-05
1.41135e-05
1.63902e-05
2.03327e-05
2.04626e-05
4.0562e-05
5.49982e-05
5.34439e-05
4.34399e-05
3.57284e-05
2.99145e-05
2.52689e-05
2.92606e-05
4.01634e-05
4.49055e-05
3.59448e-05
2.75215e-05
1.85672e-05
1.64627e-05
1.47907e-05
1.86942e-05
1.85568e-05
1.93357e-05
2.4168e-05
1.84832e-05
2.69261e-05
2.22512e-05
5.97455e-05
7.95401e-05
6.48947e-05
3.75457e-05
2.02577e-05
2.65502e-05
3.56508e-05
3.25868e-05
1.82633e-05
1.61092e-05
1.38689e-05
1.28581e-05
2.13474e-05
1.72368e-05
1.48665e-05
1.49666e-05
2.49758e-05
2.82879e-05
1.86853e-05
3.38739e-05
4.59088e-05
4.17041e-05
3.28375e-05
2.46662e-05
1.69567e-05
2.04049e-05
3.04473e-05
3.97936e-05
3.66303e-05
2.79917e-05
2.10971e-05
1.03783e-05
1.43667e-05
1.80572e-05
2.86958e-05
2.83254e-05
1.80794e-05
2.6122e-05
2.77656e-05
2.83797e-05
2.41364e-05
6.21896e-05
6.99522e-05
5.22616e-05
2.92421e-05
1.89751e-05
2.72358e-05
3.4126e-05
2.90724e-05
1.82453e-05
1.67694e-05
1.36093e-05
1.58257e-05
2.06312e-05
1.85289e-05
1.72863e-05
1.61296e-05
2.64897e-05
3.00028e-05
1.70356e-05
2.22995e-05
2.95806e-05
2.66166e-05
2.12306e-05
1.49049e-05
1.54994e-05
2.40119e-05
2.81646e-05
3.2249e-05
2.42413e-05
2.00587e-05
1.16803e-05
6.26508e-06
1.73732e-05
2.25713e-05
3.32995e-05
3.54235e-05
2.14997e-05
2.78421e-05
3.17458e-05
1.67827e-05
3.30559e-05
6.12968e-05
5.78838e-05
4.00041e-05
2.36813e-05
2.08691e-05
2.6741e-05
2.97608e-05
2.42459e-05
1.90209e-05
1.65017e-05
1.23417e-05
1.57709e-05
2.08065e-05
2.15282e-05
1.83896e-05
1.4853e-05
2.2973e-05
2.69503e-05
1.74488e-05
7.06601e-06
1.16455e-05
1.89221e-05
1.98999e-05
1.25196e-05
1.65585e-05
1.92732e-05
2.51124e-05
2.13966e-05
1.66653e-05
1.38912e-05
1.05409e-05
1.10643e-05
1.85866e-05
1.81605e-05
2.69714e-05
3.21357e-05
2.55372e-05
2.50832e-05
2.73376e-05
7.04693e-06
4.38339e-05
5.83522e-05
4.88847e-05
3.3519e-05
2.42751e-05
2.31882e-05
2.5098e-05
2.36065e-05
2.0069e-05
1.86024e-05
1.61728e-05
1.53812e-05
2.00893e-05
2.27571e-05
2.10114e-05
1.49675e-05
1.05047e-05
2.16818e-05
2.62573e-05
1.862e-05
1.60587e-05
1.85981e-05
1.95689e-05
1.82294e-05
1.2047e-05
1.32828e-05
1.94791e-05
2.30168e-05
1.46349e-05
1.48212e-05
1.60925e-05
1.45339e-05
1.08279e-05
1.26113e-05
1.11697e-05
2.00365e-05
2.32072e-05
1.67432e-05
2.45752e-05
1.73461e-05
2.3359e-05
5.41943e-05
5.75369e-05
4.45574e-05
3.30728e-05
2.83627e-05
2.70636e-05
2.5362e-05
2.22579e-05
2.15039e-05
2.15695e-05
2.03923e-05
2.12234e-05
2.24281e-05
2.09374e-05
1.84036e-05
1.58983e-05
1.59233e-05
1.63742e-05
1.94745e-05
2.48671e-05
2.05725e-05
1.18798e-05
1.40381e-05
1.37335e-05
1.2284e-05
1.4846e-05
2.32028e-05
1.92319e-05
1.50967e-05
1.59723e-05
1.6517e-05
1.28148e-05
1.02283e-05
8.57424e-06
1.24911e-05
1.78397e-05
2.14763e-05
2.23985e-05
2.75329e-05
1.05478e-05
3.76289e-05
6.35737e-05
6.3404e-05
5.20829e-05
4.2704e-05
3.63933e-05
3.16218e-05
2.63385e-05
2.38426e-05
2.57532e-05
2.69654e-05
2.48749e-05
2.12951e-05
1.94712e-05
1.93274e-05
1.73127e-05
1.54474e-05
1.67919e-05
2.17101e-05
2.43443e-05
1.65221e-05
8.07675e-06
1.4283e-05
1.58833e-05
1.39092e-05
1.29789e-05
2.02129e-05
2.14969e-05
1.65284e-05
1.36711e-05
1.27193e-05
1.33625e-05
1.6213e-05
1.80664e-05
1.14009e-05
1.4637e-05
2.19083e-05
2.39719e-05
2.52134e-05
2.70085e-05
1.47822e-05
3.78579e-05
6.45578e-05
7.24664e-05
6.55722e-05
5.13513e-05
3.75665e-05
2.8179e-05
2.31794e-05
2.23864e-05
2.44994e-05
2.5553e-05
2.22983e-05
2.07184e-05
2.18043e-05
1.90446e-05
1.36253e-05
1.27096e-05
1.61137e-05
1.60821e-05
1.10346e-05
1.06097e-05
1.77764e-05
2.20911e-05
1.90285e-05
1.47494e-05
1.64116e-05
2.1384e-05
2.04611e-05
1.65401e-05
1.4762e-05
1.53602e-05
1.68821e-05
1.91346e-05
1.94407e-05
1.81264e-05
2.78129e-05
3.06197e-05
2.85738e-05
2.35373e-05
2.27028e-05
2.1789e-05
2.87087e-05
4.90184e-05
6.43342e-05
6.21014e-05
4.59237e-05
2.87956e-05
1.86985e-05
1.72121e-05
1.82752e-05
1.57598e-05
1.37209e-05
2.17207e-05
2.60756e-05
2.2319e-05
1.77271e-05
1.88345e-05
1.75676e-05
1.09323e-05
6.86743e-06
1.02371e-05
1.81466e-05
2.73552e-05
2.97541e-05
2.31684e-05
1.78594e-05
1.76936e-05
2.10325e-05
2.43981e-05
2.3727e-05
1.86044e-05
1.53185e-05
1.43471e-05
1.46595e-05
2.01936e-05
2.70221e-05
2.68408e-05
2.50959e-05
2.11874e-05
1.57309e-05
1.80795e-05
2.66833e-05
2.48472e-05
2.43855e-05
4.39483e-05
5.138e-05
4.2684e-05
2.91104e-05
1.67679e-05
6.7582e-06
7.40546e-06
1.17725e-05
1.37544e-05
1.76334e-05
2.54712e-05
3.17978e-05
3.19629e-05
2.48109e-05
1.60461e-05
1.43066e-05
1.62802e-05
1.56848e-05
1.71683e-05
2.36751e-05
2.36198e-05
1.92088e-05
2.04572e-05
2.45888e-05
3.16071e-05
3.63682e-05
3.33852e-05
2.4161e-05
1.59831e-05
1.65849e-05
2.29338e-05
1.5375e-05
1.5328e-05
1.91906e-05
2.29447e-05
2.16897e-05
1.75547e-05
1.76528e-05
2.33465e-05
2.49613e-05
1.95974e-05
2.07542e-05
2.54367e-05
2.27127e-05
1.85816e-05
1.83721e-05
1.6749e-05
1.47058e-05
1.75677e-05
2.10559e-05
2.72768e-05
3.54244e-05
3.60021e-05
2.56068e-05
1.1933e-05
1.21464e-05
1.82021e-05
2.24236e-05
2.16223e-05
1.45435e-05
1.22473e-05
1.50776e-05
2.18289e-05
2.88568e-05
3.36747e-05
3.6313e-05
3.61332e-05
3.36714e-05
2.77365e-05
1.92024e-05
1.56094e-05
1.64419e-05
1.42361e-05
1.71161e-05
2.01855e-05
2.07302e-05
1.83789e-05
1.63195e-05
1.63794e-05
1.63409e-05
1.47365e-05
1.5653e-05
1.68016e-05
1.34972e-05
9.5826e-06
1.18468e-05
1.45652e-05
1.63772e-05
2.08846e-05
2.71032e-05
2.93672e-05
2.56092e-05
2.13601e-05
1.69447e-05
7.8048e-06
7.34674e-06
1.73941e-05
2.61522e-05
2.92441e-05
2.51987e-05
1.99928e-05
1.81501e-05
1.98754e-05
2.48369e-05
2.59567e-05
2.37635e-05
2.60091e-05
3.26884e-05
3.57941e-05
3.19227e-05
2.39886e-05
2.79316e-05
2.4972e-05
2.20187e-05
1.88357e-05
1.46868e-05
1.28291e-05
1.50441e-05
1.3356e-05
1.10284e-05
1.57789e-05
2.17636e-05
2.44672e-05
2.23618e-05
1.73709e-05
1.17233e-05
7.77043e-06
1.03357e-05
1.39169e-05
1.58484e-05
1.92682e-05
1.98191e-05
1.40021e-05
1.01032e-05
8.7908e-06
5.11492e-06
1.23848e-05
2.23527e-05
2.84766e-05
2.88046e-05
2.40189e-05
2.03027e-05
2.04798e-05
2.19179e-05
2.01451e-05
1.55269e-05
1.5765e-05
2.00408e-05
2.46257e-05
2.88332e-05
2.99856e-05
1.72842e-05
1.68885e-05
1.37959e-05
1.22786e-05
1.21665e-05
1.06743e-05
8.79667e-06
1.14024e-05
1.44155e-05
1.53734e-05
1.74143e-05
2.05324e-05
2.26966e-05
2.26132e-05
2.13979e-05
2.10166e-05
2.20351e-05
2.46348e-05
2.5843e-05
2.3043e-05
1.87865e-05
1.59065e-05
1.19197e-05
7.10557e-06
6.99411e-06
9.00415e-06
9.59296e-06
1.42779e-05
2.12448e-05
2.2527e-05
1.96376e-05
1.93376e-05
1.85905e-05
1.46471e-05
1.25655e-05
1.10896e-05
6.35516e-06
5.1457e-06
9.16706e-06
1.38642e-05
1.29427e-05
1.09238e-05
1.06652e-05
1.14553e-05
1.05615e-05
1.01409e-05
1.10046e-05
1.20733e-05
1.20079e-05
9.43245e-06
8.36219e-06
1.21656e-05
1.36585e-05
1.30007e-05
1.51375e-05
1.63316e-05
1.36106e-05
1.01743e-05
1.10732e-05
1.51561e-05
1.72364e-05
1.48641e-05
1.17543e-05
1.12448e-05
1.15922e-05
1.66403e-05
2.36261e-05
2.66822e-05
2.50599e-05
2.09878e-05
1.58559e-05
1.2197e-05
1.22572e-05
1.43548e-05
1.66417e-05
1.68212e-05
1.41086e-05
1.0305e-05
1.00664e-05
1.26331e-05
8.00363e-06
6.85791e-06
1.09812e-05
1.65759e-05
1.81766e-05
1.77092e-05
1.65518e-05
1.74367e-05
2.04996e-05
2.26935e-05
2.37244e-05
2.46041e-05
2.34767e-05
1.89119e-05
1.3187e-05
1.23809e-05
1.45573e-05
1.34483e-05
9.9271e-06
1.20546e-05
1.68061e-05
1.81548e-05
1.79734e-05
1.8135e-05
1.65972e-05
2.00226e-05
2.88968e-05
3.13346e-05
2.58263e-05
2.07919e-05
1.84168e-05
1.67966e-05
1.78759e-05
2.18091e-05
2.55683e-05
2.52458e-05
2.18258e-05
1.73135e-05
1.02831e-05
6.24079e-06
4.42464e-05
4.64554e-05
5.00706e-05
5.45953e-05
5.93225e-05
6.34741e-05
6.66412e-05
6.86212e-05
6.9553e-05
7.0015e-05
7.03852e-05
7.03103e-05
6.92958e-05
6.77554e-05
6.67736e-05
6.67392e-05
6.70776e-05
6.73012e-05
6.74116e-05
6.76428e-05
6.83937e-05
6.96471e-05
7.06036e-05
7.09952e-05
7.16114e-05
7.31568e-05
7.60312e-05
8.02016e-05
8.39902e-05
8.56363e-05
8.51371e-05
8.33475e-05
8.03309e-05
7.48161e-05
6.60899e-05
5.64319e-05
4.92243e-05
4.51413e-05
4.34503e-05
4.33181e-05
4.31518e-05
4.51717e-05
4.86148e-05
5.30679e-05
5.80815e-05
6.30737e-05
6.74386e-05
7.06436e-05
7.26718e-05
7.38069e-05
7.4208e-05
7.38175e-05
7.27758e-05
7.16874e-05
7.11443e-05
7.10252e-05
7.07266e-05
7.00313e-05
6.93096e-05
6.90925e-05
6.96066e-05
7.0445e-05
7.08702e-05
7.08975e-05
7.1535e-05
7.37172e-05
7.76267e-05
8.26045e-05
8.68472e-05
8.89403e-05
8.88401e-05
8.71573e-05
8.46087e-05
8.06455e-05
7.37705e-05
6.38577e-05
5.36948e-05
4.67418e-05
4.35365e-05
4.25759e-05
4.03568e-05
4.1722e-05
4.4885e-05
4.94506e-05
5.50262e-05
6.10096e-05
6.66045e-05
7.1144e-05
7.44273e-05
7.6452e-05
7.72816e-05
7.71965e-05
7.66957e-05
7.62482e-05
7.60214e-05
7.57479e-05
7.48907e-05
7.32874e-05
7.13663e-05
6.98212e-05
6.91088e-05
6.89889e-05
6.8799e-05
6.8398e-05
6.86374e-05
7.06723e-05
7.47464e-05
8.02452e-05
8.54714e-05
8.9063e-05
9.04107e-05
8.96071e-05
8.8128e-05
8.67154e-05
8.33644e-05
7.48251e-05
6.16512e-05
4.99086e-05
4.33783e-05
4.08043e-05
3.67926e-05
3.71352e-05
3.9886e-05
4.44846e-05
5.04114e-05
5.71093e-05
6.36993e-05
6.94882e-05
7.409e-05
7.72945e-05
7.90004e-05
7.96369e-05
7.99856e-05
8.04753e-05
8.09474e-05
8.09376e-05
7.99481e-05
7.77645e-05
7.45582e-05
7.09249e-05
6.78084e-05
6.56678e-05
6.41638e-05
6.28912e-05
6.22569e-05
6.3416e-05
6.68775e-05
7.23847e-05
7.84872e-05
8.40823e-05
8.80175e-05
8.89518e-05
8.84248e-05
8.9294e-05
9.05155e-05
8.64311e-05
7.32307e-05
5.64817e-05
4.45869e-05
3.90214e-05
3.39632e-05
3.23077e-05
3.40516e-05
3.8263e-05
4.4008e-05
5.07566e-05
5.76908e-05
6.41171e-05
6.96715e-05
7.41509e-05
7.72252e-05
7.90143e-05
8.03271e-05
8.18432e-05
8.34624e-05
8.44686e-05
8.42805e-05
8.2554e-05
7.89503e-05
7.34172e-05
6.70907e-05
6.14841e-05
5.72024e-05
5.3993e-05
5.17882e-05
5.13508e-05
5.3548e-05
5.83817e-05
6.43773e-05
7.11488e-05
7.8601e-05
8.28678e-05
8.3145e-05
8.48687e-05
9.04202e-05
9.37803e-05
8.61598e-05
6.7979e-05
4.99328e-05
3.927e-05
3.41053e-05
2.8939e-05
2.84769e-05
3.18372e-05
3.68412e-05
4.23979e-05
4.83019e-05
5.39703e-05
5.9287e-05
6.44316e-05
6.91226e-05
7.26359e-05
7.50478e-05
7.72099e-05
7.9669e-05
8.20133e-05
8.3696e-05
8.42085e-05
8.23779e-05
7.68456e-05
6.81586e-05
5.8575e-05
5.00079e-05
4.33067e-05
3.88065e-05
3.70759e-05
3.88205e-05
4.33449e-05
4.79878e-05
5.14057e-05
5.96865e-05
6.936e-05
7.13187e-05
7.13115e-05
7.87185e-05
9.06994e-05
9.44396e-05
8.22883e-05
6.12761e-05
4.40689e-05
3.93258e-05
2.96268e-05
2.49975e-05
2.66751e-05
3.14509e-05
3.55577e-05
3.87076e-05
4.12482e-05
4.32651e-05
4.61262e-05
5.11797e-05
5.69284e-05
6.12226e-05
6.37343e-05
6.55922e-05
6.79518e-05
7.14619e-05
7.5773e-05
7.87892e-05
7.70683e-05
6.92449e-05
5.77543e-05
4.58071e-05
3.59924e-05
2.98788e-05
2.74903e-05
2.9115e-05
3.39789e-05
3.88885e-05
3.97031e-05
3.86001e-05
4.86712e-05
5.46585e-05
4.99988e-05
5.30286e-05
7.10777e-05
8.94768e-05
9.19837e-05
7.67013e-05
5.51868e-05
5.08787e-05
3.63165e-05
2.68575e-05
2.29716e-05
2.68655e-05
3.19761e-05
3.37278e-05
3.2992e-05
3.10458e-05
2.88452e-05
2.93739e-05
3.28879e-05
3.75509e-05
4.05348e-05
3.95643e-05
3.67731e-05
3.78612e-05
4.60052e-05
5.84811e-05
6.62901e-05
6.45539e-05
5.55371e-05
4.43746e-05
3.52301e-05
3.00013e-05
2.80888e-05
2.95424e-05
3.35516e-05
3.7329e-05
3.65169e-05
3.28796e-05
3.15606e-05
3.86752e-05
3.23009e-05
2.12088e-05
3.21096e-05
6.25246e-05
8.58571e-05
8.80214e-05
7.16957e-05
6.80264e-05
4.84316e-05
3.61347e-05
2.63017e-05
2.12002e-05
2.68592e-05
3.22307e-05
3.17816e-05
2.7945e-05
2.3843e-05
2.11844e-05
2.20061e-05
2.17389e-05
2.04153e-05
1.75163e-05
1.70245e-05
2.39752e-05
2.52288e-05
2.15336e-05
3.5948e-05
4.7611e-05
4.70029e-05
4.0779e-05
3.54787e-05
3.40149e-05
3.58984e-05
3.76143e-05
3.75476e-05
3.68615e-05
4.11236e-05
3.32401e-05
2.71833e-05
2.57041e-05
2.93204e-05
1.26129e-05
1.58213e-05
2.02117e-05
5.41782e-05
8.17058e-05
8.50939e-05
8.21673e-05
6.36403e-05
4.76688e-05
3.84926e-05
2.59795e-05
1.89062e-05
2.81734e-05
3.4263e-05
3.19139e-05
2.62687e-05
2.11646e-05
1.84935e-05
2.01856e-05
2.0047e-05
1.91304e-05
2.07693e-05
2.57646e-05
3.49368e-05
3.62653e-05
2.04401e-05
2.12484e-05
3.26229e-05
3.39891e-05
3.19159e-05
3.23087e-05
3.61872e-05
3.96605e-05
3.75595e-05
3.0054e-05
2.78618e-05
3.75776e-05
2.17648e-05
2.28708e-05
1.9529e-05
2.68262e-05
6.09519e-06
2.5271e-05
1.74448e-05
4.7228e-05
7.9273e-05
7.67623e-05
7.52527e-05
5.76195e-05
4.82773e-05
3.9745e-05
2.29927e-05
1.89925e-05
3.13749e-05
3.66565e-05
3.36552e-05
2.71233e-05
1.9312e-05
1.54292e-05
1.94901e-05
2.13301e-05
1.64665e-05
9.43535e-06
1.02311e-05
2.42612e-05
2.87933e-05
1.3978e-05
1.88937e-05
2.85184e-05
2.96141e-05
2.96185e-05
3.01946e-05
3.0624e-05
3.10757e-05
2.4738e-05
1.62272e-05
1.62919e-05
2.46314e-05
1.36077e-05
2.02614e-05
1.52873e-05
2.51762e-05
1.08255e-05
3.17236e-05
1.93789e-05
4.50549e-05
4.73282e-05
7.14728e-05
6.50375e-05
5.14943e-05