/*--------------------------------*- C++ -*----------------------------------*\
| =========                 |                                                 |
| \\      /  F ield         | OpenFOAM: The Open Source CFD Toolbox           |
|  \\    /   O peration     | Version:  2306                                  |
|   \\  /    A nd           | Website:  www.openfoam.com                      |
|    \\/     M anipulation  |                                                 |
\*---------------------------------------------------------------------------*/
FoamFile
{
    version     2.0;
    format      ascii;
    arch        "LSB;label=32;scalar=64";
    class       surfaceScalarField;
    location    "6.5";
    object      phi;
}
// * * * * * * * * * * * * * * * * * * * * * * * * * * * * * * * * * * * * * //

dimensions      [0 3 -1 0 0 0 0];

oriented        oriented;

internalField   nonuniform List<scalar> 
175300
(
5.08034e-06
5.33342e-07
-2.20862e-07
5.52073e-06
4.42931e-07
9.95956e-08
5.89479e-06
5.94892e-07
4.38131e-07
6.05656e-06
8.43818e-07
8.93864e-07
5.96357e-06
9.52156e-07
1.43233e-06
5.72103e-06
7.87634e-07
1.92467e-06
5.48682e-06
4.71023e-07
2.1809e-06
5.3222e-06
2.23765e-07
2.11529e-06
5.2017e-06
1.25509e-07
1.80606e-06
5.09002e-06
1.07131e-07
1.42523e-06
4.94026e-06
7.20044e-08
1.16673e-06
4.69751e-06
-3.90116e-09
1.12089e-06
4.32703e-06
-6.27494e-08
1.21024e-06
3.90123e-06
-1.26503e-07
1.30407e-06
3.57586e-06
-2.44705e-07
1.32764e-06
3.43675e-06
-3.92383e-07
1.26784e-06
3.46687e-06
-5.43431e-07
1.12726e-06
3.58719e-06
-6.39185e-07
9.11292e-07
3.70504e-06
-5.87807e-07
6.50592e-07
3.80558e-06
-3.99994e-07
3.56516e-07
3.96526e-06
-1.7852e-07
3.37671e-08
4.18915e-06
3.17435e-08
-2.22998e-07
4.40733e-06
2.79477e-07
-4.1652e-07
4.57852e-06
3.84388e-07
-4.81109e-07
4.73777e-06
1.99168e-07
-4.52347e-07
4.92673e-06
-2.38288e-07
-4.59679e-07
5.17648e-06
-6.97899e-07
-6.81456e-07
5.43269e-06
-8.89951e-07
-1.11168e-06
5.53261e-06
-6.69159e-07
-1.51027e-06
5.40147e-06
-2.4673e-07
-1.75876e-06
5.0665e-06
1.81028e-07
-1.98236e-06
4.60382e-06
4.44651e-07
-2.14568e-06
4.16468e-06
3.55977e-07
-2.07411e-06
3.89022e-06
2.52029e-08
-1.88463e-06
3.78861e-06
-1.78177e-07
-1.78728e-06
3.84079e-06
-1.75339e-07
-1.73601e-06
4.002e-06
-3.17887e-08
-1.55668e-06
4.19755e-06
2.28437e-07
-1.2204e-06
4.41213e-06
4.78878e-07
-8.3918e-07
6.08666e-07
-5.14071e-07
1.69557e-05
1.43784e-06
-4.64671e-07
1.83781e-05
1.20156e-06
5.006e-07
1.95783e-05
1.70533e-06
1.6718e-06
2.02184e-05
2.43423e-06
3.14662e-06
2.01205e-05
2.65994e-06
4.72314e-06
1.94482e-05
2.13835e-06
5.97838e-06
1.86427e-05
1.27451e-06
6.47923e-06
1.80153e-05
5.99468e-07
6.15816e-06
1.75879e-05
3.06424e-07
5.26328e-06
1.72342e-05
2.32603e-07
4.23087e-06
1.67504e-05
1.3722e-07
3.52236e-06
1.59335e-05
-3.02856e-08
3.3338e-06
1.47404e-05
-1.95363e-07
3.51094e-06
1.3431e-05
-4.83402e-07
3.77861e-06
1.24129e-05
-1.01122e-06
3.9266e-06
1.18952e-05
-1.64504e-06
3.83074e-06
1.18201e-05
-2.16934e-06
3.43115e-06
1.19833e-05
-2.34241e-06
2.76412e-06
1.22081e-05
-1.98673e-06
1.93769e-06
1.2505e-05
-1.2909e-06
1.05267e-06
1.30009e-05
-5.31806e-07
1.70378e-07
1.36637e-05
1.93564e-07
-5.46879e-07
1.43618e-05
8.52788e-07
-1.03284e-06
1.50671e-05
8.67233e-07
-1.1898e-06
1.58564e-05
-6.34115e-08
-1.13235e-06
1.67825e-05
-1.73151e-06
-1.24334e-06
1.77936e-05
-3.24437e-06
-1.92692e-06
1.86114e-05
-3.65776e-06
-3.09308e-06
1.88122e-05
-2.64083e-06
-4.18251e-06
1.82545e-05
-9.7253e-07
-4.94017e-06
1.71337e-05
5.27256e-07
-5.52067e-06
1.57771e-05
1.23414e-06
-5.75118e-06
1.45274e-05
7.79676e-07
-5.48346e-06
1.35746e-05
-2.18649e-07
-5.1671e-06
1.29807e-05
-7.29511e-07
-5.12606e-06
1.28485e-05
-6.47024e-07
-5.02945e-06
1.31528e-05
-1.50511e-07
-4.43363e-06
1.37306e-05
7.24336e-07
-3.4086e-06
1.45319e-05
1.51424e-06
-2.31599e-06
1.79603e-06
-1.36675e-06
3.11283e-05
2.02776e-06
-1.24935e-06
3.3813e-05
1.3966e-06
5.01702e-07
3.6199e-05
2.3551e-06
2.59809e-06
3.77721e-05
3.73241e-06
5.23144e-06
3.80738e-05
4.158e-06
7.97588e-06
3.70929e-05
3.35045e-06
1.00921e-05
3.55186e-05
2.04725e-06
1.09402e-05
3.41431e-05
1.00096e-06
1.04718e-05
3.32334e-05
4.68441e-07
9.10134e-06
3.25924e-05
2.71796e-07
7.48432e-06
3.18052e-05
9.67389e-08
6.27044e-06
3.04708e-05
-1.31644e-07
5.73994e-06
2.84848e-05
-3.6315e-07
5.7632e-06
2.62063e-05
-9.08697e-07
6.09161e-06
2.42299e-05
-2.00929e-06
6.45501e-06
2.29445e-05
-3.38456e-06
6.51356e-06
2.23792e-05
-4.52363e-06
6.02442e-06
2.23067e-05
-4.87245e-06
5.02123e-06
2.24967e-05
-4.13386e-06
3.70436e-06
2.29463e-05
-2.73552e-06
2.26625e-06
2.37765e-05
-1.20722e-06
8.45566e-07
2.49168e-05
2.94076e-07
-3.89375e-07
2.62082e-05
1.42424e-06
-1.18928e-06
2.76521e-05
1.01067e-06
-1.39817e-06
2.93465e-05
-1.3645e-06
-1.18839e-06
3.13254e-05
-5.16541e-06
-1.21311e-06
3.34266e-05
-8.41942e-06
-2.20058e-06
3.5103e-05
-9.11052e-06
-4.11537e-06
3.56116e-05
-6.64815e-06
-6.09199e-06
3.4727e-05
-2.79031e-06
-7.59422e-06
3.28535e-05
5.41112e-07
-8.64467e-06
3.06128e-05
1.99265e-06
-8.93684e-06
2.84822e-05
1.06991e-06
-8.44494e-06
2.66012e-05
-7.92106e-07
-8.02499e-06
2.50486e-05
-1.66725e-06
-8.18409e-06
2.41796e-05
-1.46487e-06
-8.32727e-06
2.42263e-05
-5.5783e-07
-7.60797e-06
2.50536e-05
1.06068e-06
-6.04594e-06
2.65184e-05
2.53844e-06
-4.28475e-06
2.89464e-06
-2.73138e-06
4.70211e-05
1.23688e-06
-3.48394e-06
5.1312e-05
-3.44633e-07
-8.80757e-07
5.53961e-05
1.02322e-06
2.16283e-06
5.86101e-05
3.35264e-06
6.07091e-06
6.00711e-05
4.33116e-06
1.02982e-05
5.92313e-05
3.63429e-06
1.37247e-05
5.67988e-05
2.35739e-06
1.53522e-05
5.42828e-05
1.2812e-06
1.50445e-05
5.25844e-05
5.80997e-07
1.33902e-05
5.15768e-05
1.80697e-07
1.13127e-05
5.05961e-05
-1.28089e-07
9.61652e-06
4.89696e-05
-3.90701e-07
8.56855e-06
4.64225e-05
-5.6874e-07
8.06601e-06
4.32484e-05
-1.19713e-06
8.09921e-06
4.00534e-05
-2.73281e-06
8.60431e-06
3.7395e-05
-4.85594e-06
9.0698e-06
3.562e-05
-6.85449e-06
8.85687e-06
3.47439e-05
-7.79105e-06
7.82792e-06
3.45671e-05
-6.9949e-06
6.25472e-06
3.5007e-05
-4.96305e-06
4.41471e-06
3.61017e-05
-2.50689e-06
2.48951e-06
3.77142e-05
1.5387e-08
7.40365e-07
3.96545e-05
1.68928e-06
-3.57651e-07
4.19394e-05
5.63855e-07
-5.00627e-07
4.46583e-05
-4.06924e-06
1.49095e-07
4.78551e-05
-1.10819e-05
6.58762e-07
5.1375e-05
-1.72258e-05
-1.69581e-07
5.44589e-05
-1.86206e-05
-2.85599e-06
5.58998e-05
-1.41128e-05
-6.19463e-06
5.52038e-05
-6.89e-06
-9.04567e-06
5.29092e-05
-5.9128e-07
-1.10839e-05
4.99503e-05
2.32728e-06
-1.17376e-05
4.69777e-05
1.16631e-06
-1.0975e-05
4.4052e-05
-1.61849e-06
-1.02157e-05
4.10975e-05
-2.89626e-06
-1.05152e-05
3.86631e-05
-2.57026e-06
-1.1241e-05
3.75631e-05
-1.3974e-06
-1.10333e-05
3.80731e-05
7.5499e-07
-9.48969e-06
4.00005e-05
2.8536e-06
-7.37326e-06
3.11502e-06
-5.39934e-06
6.32913e-05
-1.71588e-06
-8.21752e-06
6.93789e-05
-5.42631e-06
-5.43796e-06
7.56881e-05
-5.10564e-06
-9.32906e-07
8.14639e-05
-1.0147e-06
4.08289e-06
8.53362e-05
1.41639e-06
1.02101e-05
8.57556e-05
1.72037e-06
1.57874e-05
8.28552e-05
1.42653e-06
1.90938e-05
7.88685e-05
1.09104e-06
1.95935e-05
7.59166e-05
5.73355e-07
1.7944e-05
7.43544e-05
-3.12741e-08
1.55551e-05
7.33003e-05
-5.75731e-07
1.35949e-05
7.17153e-05
-9.24964e-07
1.21746e-05
6.90445e-05
-9.4181e-07
1.0895e-05
6.53663e-05
-1.32458e-06
1.00205e-05
6.10383e-05
-2.82393e-06
1.0175e-05
5.65128e-05
-5.27962e-06
1.1089e-05
5.25218e-05
-8.07321e-06
1.15957e-05
4.97758e-05
-1.01373e-05
1.10096e-05
4.84735e-05
-1.01288e-05
9.55788e-06
4.84758e-05
-8.02276e-06
7.62814e-06
4.96069e-05
-4.68945e-06
5.38833e-06
5.1551e-05
-8.36754e-07
3.1697e-06
5.40099e-05
1.64809e-06
1.80298e-06
5.69523e-05
-3.18422e-07
1.92277e-06
6.03668e-05
-8.02482e-06
3.6631e-06
6.43595e-05
-1.96187e-05
5.77589e-06
6.92339e-05
-3.04312e-05
5.95395e-06
7.45079e-05
-3.40315e-05
2.85885e-06
7.82671e-05
-2.73574e-05
-2.55525e-06
7.91052e-05
-1.5333e-05
-7.97039e-06
7.73516e-05
-4.29784e-06
-1.22007e-05
7.42107e-05
1.51171e-06
-1.4089e-05
7.06376e-05
9.04402e-07
-1.32488e-05
6.67964e-05
-2.57856e-06
-1.17698e-05
6.2389e-05
-4.21012e-06
-1.18111e-05
5.77802e-05
-3.67451e-06
-1.31277e-05
5.42786e-05
-2.36382e-06
-1.39996e-05
5.31073e-05
-1.50571e-07
-1.33968e-05
5.45338e-05
2.10116e-06
-1.17955e-05
1.87995e-06
-1.00596e-05
7.8384e-05
-6.92915e-06
-1.55885e-05
8.53473e-05
-1.46125e-05
-1.35859e-05
9.3547e-05
-1.67642e-05
-9.46124e-06
0.000102515
-1.29278e-05
-2.82817e-06
0.000110723
-7.92921e-06
5.01035e-06
0.000114778
-4.93039e-06
1.39396e-05
0.000113
-2.40171e-06
2.06127e-05
0.000107796
-4.64076e-07
2.33709e-05
0.000103118
8.91607e-08
2.24001e-05
0.000100675
-4.42441e-07
1.97624e-05
9.96111e-05
-1.2706e-06
1.77454e-05
9.8398e-05
-1.86348e-06
1.66007e-05
9.61175e-05
-1.75805e-06
1.49462e-05
9.26356e-05
-1.59958e-06
1.26652e-05
8.792e-05
-2.43023e-06
1.14689e-05
8.18065e-05
-4.42493e-06
1.22674e-05
7.48872e-05
-7.31666e-06
1.37086e-05
6.87656e-05
-1.04857e-05
1.40994e-05
6.48258e-05
-1.22318e-05
1.31996e-05
6.33739e-05
-1.12418e-05
1.15465e-05
6.39686e-05
-7.57949e-06
9.32503e-06
6.58637e-05
-2.2006e-06
6.87495e-06
6.84706e-05
1.54983e-06
5.37216e-06
7.16063e-05
-1.2022e-06
6.03436e-06
7.50029e-05
-1.25628e-05
9.30182e-06
7.84376e-05
-2.96248e-05
1.35914e-05
8.28918e-05
-4.63348e-05
1.59341e-05
8.98986e-05
-5.44194e-05
1.38839e-05
9.8011e-05
-4.86547e-05
7.33652e-06
0.000103501
-3.14746e-05
-1.85722e-06
0.000104736
-1.31663e-05
-1.03994e-05
0.000102837
-1.92448e-06
-1.53744e-05
9.93181e-05
-3.08375e-07
-1.54201e-05
9.49073e-05
-3.70268e-06
-1.30906e-05
8.94799e-05
-5.41205e-06
-1.22268e-05
8.29737e-05
-4.43743e-06
-1.36186e-05
7.65029e-05
-2.80035e-06
-1.55024e-05
7.20581e-05
-6.96443e-07
-1.64036e-05
7.09865e-05
1.17939e-06
-1.64093e-05
-3.1189e-07
-1.61741e-05
9.45074e-05
-1.19011e-05
-2.30214e-05
9.95312e-05
-2.53823e-05
-2.34351e-05
0.000106442
-3.17349e-05
-2.11128e-05
0.000115709
-2.95475e-05
-1.60043e-05
0.000128238
-2.53652e-05
-7.53326e-06
0.000139832
-2.08313e-05
4.31038e-06
0.000143633
-1.29864e-05
1.65273e-05
0.000139377
-5.6319e-06
2.44428e-05
0.000133115
-2.01605e-06
2.61197e-05
0.000129482
-1.5977e-06
2.35102e-05
0.0001285
-2.44204e-06
2.10759e-05
0.000127973
-3.32059e-06
2.08232e-05
0.000126449
-3.2965e-06
2.02522e-05
0.00012384
-2.56061e-06
1.7117e-05
0.000120021
-2.28762e-06
1.35658e-05
0.000113884
-3.05992e-06
1.2897e-05
0.000104766
-4.93735e-06
1.48178e-05
9.43199e-05
-8.08233e-06
1.65864e-05
8.56545e-05
-1.15532e-05
1.67027e-05
8.07792e-05
-1.2959e-05
1.55869e-05
7.96177e-05
-1.02225e-05
1.36341e-05
8.08623e-05
-3.5918e-06
1.11121e-05
8.33751e-05
1.81879e-06
9.4349e-06
8.67604e-05
-1.44421e-06
1.03874e-05
9.04534e-05
-1.62597e-05
1.44975e-05
9.32206e-05
-3.81314e-05
2.00606e-05
9.50098e-05
-5.97261e-05
2.45012e-05
9.92455e-05
-7.35789e-05
2.55667e-05
0.000109042
-7.262e-05
2.11778e-05
0.000121436
-5.523e-05
1.10317e-05
0.000130332
-3.03767e-05
-2.91212e-06
0.00013322
-1.06829e-05
-1.37317e-05
0.000131394
-3.80094e-06
-1.69199e-05
0.00012692
-5.24351e-06
-1.45787e-05
0.000121042
-6.3153e-06
-1.23491e-05
0.000113782
-4.72308e-06
-1.29497e-05
0.000105461
-2.4907e-06
-1.51219e-05
9.79178e-05
-4.21036e-08
-1.7181e-05
9.32641e-05
1.6907e-06
-1.89644e-05
-1.23425e-06
-2.10179e-05
0.000118326
-1.23218e-05
-2.66206e-05
0.000118209
-3.1995e-05
-3.09795e-05
0.000120511
-4.42338e-05
-3.24825e-05
0.000125409
-4.44588e-05
-3.00249e-05
0.000136023
-4.28206e-05
-2.34279e-05
0.000152984
-4.22022e-05
-1.19059e-05
0.000166777
-3.38756e-05
4.32679e-06
0.000168573
-1.81696e-05
1.96062e-05
0.000162537
-7.76361e-06
2.73934e-05
0.000157879
-4.86486e-06
2.65136e-05
0.000157548
-5.18438e-06
2.27794e-05
0.000158541
-5.80902e-06
2.26488e-05
0.000158034
-5.62574e-06
2.47024e-05
0.000156354
-4.47716e-06
2.31438e-05
0.00015446
-3.32865e-06
1.76969e-05
0.000150818
-2.88448e-06
1.40379e-05
0.000142482
-3.0981e-06
1.51083e-05
0.000129096
-4.45029e-06
1.81541e-05
0.00011453
-7.70257e-06
1.97617e-05
0.000103632
-1.13233e-05
1.94247e-05
9.84968e-05
-1.09511e-05
1.78695e-05
9.80782e-05
-4.36423e-06
1.53996e-05
0.00010052
2.58025e-06
1.32466e-05
0.00010477
-4.71005e-07
1.35688e-05
0.000109904
-1.74967e-05
1.71482e-05
0.000114041
-4.22443e-05
2.19897e-05
0.000114831
-6.58593e-05
2.66572e-05
0.000113746
-8.2585e-05
3.097e-05
0.000117788
-8.7994e-05
3.24487e-05
0.000130863
-7.70733e-05
2.61809e-05
0.000147722
-5.24163e-05
1.09621e-05
0.000159826
-2.63368e-05
-6.47655e-06
0.000163115
-1.12594e-05
-1.58203e-05
0.000159555
-7.32171e-06
-1.58892e-05
0.000153451
-6.40392e-06
-1.27559e-05
0.000146662
-4.58311e-06
-1.15451e-05
0.000138749
-1.8882e-06
-1.28876e-05
0.000130597
1.53553e-06
-1.52531e-05
0.000124311
4.2298e-06
-1.81208e-05
1.16733e-06
-2.18975e-05
0.000153549
-6.76517e-06
-2.41367e-05
0.000147316
-2.9401e-05
-3.24502e-05
0.000142628
-4.83666e-05
-4.00596e-05
0.00014166
-5.29297e-05
-4.27755e-05
0.000146208
-5.2869e-05
-3.87763e-05
0.000160412
-5.8399e-05
-2.7981e-05
0.000180541
-5.72902e-05
-1.15054e-05
0.000191973
-3.97941e-05
8.95181e-06
0.000188835
-1.83519e-05
2.4363e-05
0.000182
-9.82201e-06
2.80894e-05
0.000182015
-1.05689e-05
2.31157e-05
0.000186749
-1.15262e-05
2.05116e-05
0.000188582
-9.1423e-06
2.41562e-05
0.000186486
-5.55576e-06
2.64416e-05
0.000185345
-4.20909e-06
2.20084e-05
0.000186368
-5.33085e-06
1.58721e-05
0.000183964
-5.71043e-06
1.49453e-05
0.000172768
-4.19804e-06
1.86775e-05
0.000154473
-3.75942e-06
2.2096e-05
0.000136149
-6.25739e-06
2.28254e-05
0.000124033
-7.80654e-06
2.179e-05
0.000119623
-3.20196e-06
1.97853e-05
0.000121059
3.69149e-06
1.74684e-05
0.000126123
9.25231e-07
1.65767e-05
0.000132959
-1.68756e-05
1.80735e-05
0.000139434
-4.22828e-05
2.05809e-05
0.000142355
-6.54608e-05
2.38914e-05
0.000139548
-8.09046e-05
2.95836e-05
0.000136027
-8.88219e-05
3.6987e-05
0.000141913
-8.6873e-05
3.80589e-05
0.000159689
-7.16319e-05
2.60477e-05
0.000179889
-4.71543e-05
6.24061e-06
0.000189281
-2.24569e-05
-1.03826e-05
0.000183755
-6.34219e-06
-1.55051e-05
0.000172799
-4.80212e-07
-1.33719e-05
0.00016625
-2.5407e-06
-9.77868e-06
0.000163969
-3.94759e-06
-8.47039e-06
0.000161882
2.67442e-07
-9.92115e-06
0.000159534
6.3143e-06
-1.31866e-05
5.80641e-06
-1.77762e-05
0.000193874
3.8749e-08
-1.451e-05
0.000186546
-1.8507e-05
-2.60049e-05
0.000174809
-4.04352e-05
-4.022e-05
0.000166953
-5.18542e-05
-5.13951e-05
0.000165876
-5.44763e-05
-5.34869e-05
0.000173357
-6.2954e-05
-4.45634e-05
0.000191088
-7.26444e-05
-2.73019e-05
0.000210683
-6.39205e-05
-5.71444e-06
0.000217161
-3.77428e-05
1.64726e-05
0.000209685
-1.71309e-05
2.70248e-05
0.00020349
-1.4612e-05
2.36748e-05
0.000208548
-2.00085e-05
1.70103e-05
0.000216526
-1.7828e-05
1.80584e-05
0.000215835
-6.5591e-06
2.27599e-05
0.000209833
1.04945e-06
2.15926e-05
0.00020997
-3.94943e-06
1.54964e-05
0.000216545
-1.33803e-05
1.28743e-05
0.000217067
-1.44096e-05
1.70641e-05
0.000203472
-7.54755e-06
2.28234e-05
0.000180996
-2.06264e-06
2.51323e-05
0.000160266
-2.11828e-07
2.46743e-05
0.000148357
2.59184e-06
2.38303e-05
0.000146324
5.98604e-06
2.27207e-05
0.000151607
1.85258e-07
2.09897e-05
0.00016051
-1.93164e-05
1.87964e-05
0.000169433
-4.35198e-05
1.63926e-05
0.000174772
-6.26894e-05
1.6254e-05
0.000173254
-7.3276e-05
2.21842e-05
0.000165909
-7.83385e-05
3.43581e-05
0.00016269
-8.17176e-05
4.36386e-05
0.000173781
-8.0131e-05
3.75482e-05
0.000194502
-6.55961e-05
1.73173e-05
0.000206939
-3.52797e-05
-3.55322e-06
0.000199978
-3.78559e-06
-1.38947e-05
0.000182975
1.20557e-05
-1.41857e-05
0.000171938
6.78739e-06
-8.74301e-06
0.000171714
-3.43125e-06
-2.93029e-06
0.000177576
-3.83938e-06
-7.45541e-07
0.000185057
3.35929e-06
-2.40086e-06
6.66166e-06
-7.04224e-06
0.000225869
8.50415e-07
3.72787e-06
0.000227505
-7.65045e-06
-1.11513e-05
0.000214892
-2.28696e-05
-3.16807e-05
0.000199763
-3.86789e-05
-5.18481e-05
0.000192946
-4.8285e-05
-6.38574e-05
0.000195843
-5.91558e-05
-6.13164e-05
0.000207246
-7.43753e-05
-4.5725e-05
0.000225862
-7.98838e-05
-2.2519e-05
0.000242625
-6.3491e-05
2.97071e-06
0.000245396
-3.51659e-05
2.13628e-05
0.000235526
-1.92256e-05
2.4032e-05
0.000229292
-2.19885e-05
1.58451e-05
0.000235884
-2.62322e-05
1.11154e-05
0.000244194
-1.49769e-05
1.45582e-05
0.000241773
3.21035e-06
1.75902e-05
0.000234762
4.81153e-06
1.47123e-05
0.000237357
-1.3689e-05
1.08338e-05
0.000248168
-3.02433e-05
1.34126e-05
0.000249998
-2.60378e-05
2.08448e-05
0.000234201
-8.40252e-06
2.53578e-05
0.000209176
6.88508e-06
2.5336e-05
0.000188199
1.44569e-05
2.58176e-05
0.000179082
1.30893e-05
2.80444e-05
0.000181941
-1.02932e-06
2.74655e-05
0.000192257
-2.66736e-05
2.10738e-05
0.000204481
-5.08998e-05
1.08642e-05
0.000213066
-6.32064e-05
3.46463e-06
0.000213294
-6.50757e-05
7.47352e-06
0.000204298
-6.30948e-05
2.43163e-05
0.000193284
-6.52227e-05
4.26173e-05
0.000193658
-7.40354e-05
4.49126e-05
0.000208229
-7.39498e-05
2.66963e-05
0.000221031
-4.68612e-05
3.69619e-06
0.000217063
-3.62767e-06
-1.13255e-05
0.000200692
2.37235e-05
-1.52365e-05
0.000186893
1.95957e-05
-1.06426e-05
0.000183155
2.56362e-06
-1.18514e-06
0.0001879
-3.95363e-06
6.8546e-06
0.000197856
6.39013e-07
1.09065e-05
3.72119e-06
1.01895e-05
0.000245469
-4.14234e-06
2.07236e-05
0.000260963
-5.23306e-06
9.15728e-06
0.000257585
-4.76253e-06
-1.65044e-05
0.000240578
-1.61836e-05
-4.4184e-05
0.000226987
-3.32687e-05
-6.57326e-05
0.000225816
-5.051e-05
-7.32467e-05
0.000233679
-6.77679e-05
-6.39108e-05
0.000246621
-8.16576e-05
-4.27255e-05
0.000263556
-8.17216e-05
-1.58018e-05
0.000276332
-6.18558e-05
9.90747e-06
0.000274313
-3.38263e-05
2.10293e-05
0.000261693
-2.0913e-05
1.56462e-05
0.000255868
-2.3751e-05
6.86499e-06
0.000263814
-2.22014e-05
7.28019e-06
0.000272948
-6.5454e-06
1.36109e-05
0.000271419
5.13712e-06
1.58221e-05
0.000265528
-6.34733e-06
1.21193e-05
0.000269366
-3.38774e-05
1.04964e-05
0.000280853
-4.76066e-05
1.65607e-05
0.000282035
-3.04557e-05
2.29155e-05
0.0002649
2.1487e-06
2.35148e-05
0.000240712
2.45482e-05
2.50623e-05
0.000223683
2.53003e-05
3.1547e-05
0.000218856
5.60416e-06
3.34375e-05
0.000224531
-2.75784e-05
2.25858e-05
0.000237753
-5.75046e-05
3.76408e-06
0.000252125
-7.01867e-05
-9.60418e-06
0.000257547
-6.30134e-05
-1.05394e-05
0.000249097
-5.0554e-05
7.78178e-06
0.000232437
-4.47764e-05
3.50621e-05
0.000221713
-5.53693e-05
4.86297e-05
0.000225919
-6.72524e-05
3.61671e-05
0.000235813
-5.04549e-05
1.20696e-05
0.000236914
-5.1861e-06
-6.77275e-06
0.000228163
2.90091e-05
-1.56043e-05
0.000217848
2.94155e-05
-1.63835e-05
0.000211345
1.17916e-05
-9.09933e-06
0.000209918
2.59377e-06
2.22136e-06
0.000213486
3.91686e-06
1.26948e-05
2.20344e-06
1.99569e-05
0.000264378
-1.05771e-05
2.08728e-05
0.000288327
-1.26941e-05
1.92599e-05
0.000298076
2.52535e-06
-1.62215e-06
0.00028732
5.19151e-06
-3.31464e-05
0.00027011
-1.29959e-05
-6.06178e-05
0.000262832
-3.74296e-05
-7.65793e-05
0.000268116
-5.75685e-05
-7.67694e-05
0.000278222
-7.40003e-05
-6.20079e-05
0.000289646
-8.6694e-05
-3.59996e-05
0.00030185
-8.24593e-05
-7.1831e-06
0.000306398
-5.49906e-05
1.29413e-05
0.000298103
-2.52234e-05
1.35446e-05
0.000286733
-1.58816e-05
4.65534e-06
0.000286484
-1.97074e-05
2.51256e-06
0.000297499
-1.64869e-05
1.03746e-05
0.000306366
-5.38942e-06
1.76997e-05
0.000304802
-5.3742e-06
1.64423e-05
0.000299555
-2.62342e-05
1.04614e-05
0.000302453
-5.11955e-05
1.04755e-05
0.00031106
-5.03474e-05
1.63012e-05
0.000310414
-1.84847e-05
2.01035e-05
0.000295291
1.72228e-05
2.50278e-05
0.000276045
3.10782e-05
3.45442e-05
0.000262478
2.061e-05
3.60817e-05
0.000257208
-9.32592e-06
1.92826e-05
0.000263631
-4.76992e-05
-4.81451e-06
0.000281979
-7.40927e-05
-2.10329e-05
0.000297917
-7.10674e-05
-2.24919e-05
0.000296016
-4.83443e-05
-7.54152e-06
0.000277538
-3.10348e-05
2.4144e-05
0.000258141
-3.29314e-05
4.85783e-05
0.000251344
-4.73218e-05
4.57052e-05
0.000255409
-4.09396e-05
2.24948e-05
0.000259062
-3.59594e-06
-1.01451e-07
0.000258617
2.97589e-05
-1.46254e-05
0.000256195
3.25006e-05
-2.18909e-05
0.00025214
1.8427e-05
-2.00759e-05
0.000246574
1.1132e-05
-1.05427e-05
0.000242644
1.26795e-05
4.43312e-07
5.58287e-06
1.14723e-05
0.000295618
-1.08791e-05
4.65408e-06
0.000317709
-2.13803e-05
1.24855e-05
0.000337527
-3.40146e-06
3.50413e-06
0.00033819
1.46559e-05
-2.3818e-05
0.000322394
5.36559e-06
-5.32144e-05
0.000308523
-1.93355e-05
-7.50084e-05
0.000308559
-4.18432e-05
-8.32211e-05
0.000318055
-6.06601e-05
-7.65442e-05
0.000326925
-8.04769e-05
-5.59078e-05
0.000333329
-9.04437e-05
-2.60802e-05
0.000336515
-7.19397e-05
2.94567e-07
0.00033213
-3.40278e-05
9.16545e-06
0.000322463
-9.44665e-06
3.17321e-06
0.000318016
-9.98733e-06
-6.38477e-07
0.000325141
-1.73234e-05
6.58212e-06
0.000337715
-1.48764e-05
1.84706e-05
0.000344819
-1.07555e-05
2.27704e-05
0.000341742
-1.99161e-05
1.56101e-05
0.000333669
-3.978e-05
7.29486e-06
0.00032933
-4.97489e-05
8.79336e-06
0.000327764
-3.46063e-05
1.80927e-05
0.000321567
-3.39442e-06
2.97924e-05
0.000310533
2.15033e-05
3.76445e-05
0.000301395
2.84331e-05
3.1877e-05
0.000295427
1.23324e-05
9.13346e-06
0.000295097
-2.48717e-05
-1.587e-05
0.00030941
-6.50893e-05
-3.05188e-05
0.000332231
-7.91274e-05
-2.79162e-05
0.000340442
-5.89534e-05
-1.21158e-05
0.000324684
-3.01658e-05
1.66117e-05
0.000300243
-1.82361e-05
4.58938e-05
0.000285109
-2.40882e-05
5.34738e-05
0.000283407
-2.07377e-05
3.49845e-05
0.000287587
5.98157e-06
9.69601e-06
0.000292624
3.11468e-05
-1.06956e-05
0.0002977
3.0235e-05
-2.40946e-05
0.00029997
1.75213e-05
-2.85138e-05
0.000296659
1.43862e-05
-2.44175e-05
0.000290324
1.91962e-05
-1.6932e-05
1.15824e-05
-7.91264e-06
0.000338338
-3.69754e-06
-9.16793e-06
0.000348639
-1.8924e-05
1.47141e-06
0.00037043
-8.75856e-06
-1.30707e-06
0.000384627
1.32897e-05
-1.98569e-05
0.000378367
1.58637e-05
-4.56417e-05
0.000362819
-4.58501e-08
-6.97924e-05
0.000357135
-1.97083e-05
-8.45877e-05
0.000365139
-4.05531e-05
-8.59586e-05
0.00037523
-6.67818e-05
-7.25997e-05
0.000378397
-8.73165e-05
-4.61069e-05
0.000375879
-7.91222e-05
-1.65239e-05
0.000369896
-4.15322e-05
5.32705e-07
0.000361496
-6.10463e-06
1.12679e-06
0.000355905
2.05015e-06
-1.64036e-06
0.000359413
-8.69175e-06
3.97872e-06
0.000371328
-1.63232e-05
1.7923e-05
0.000383052
-1.62564e-05
2.84123e-05
0.000384121
-1.86463e-05
2.45898e-05
0.000370547
-2.68753e-05
1.17711e-05
0.000350418
-3.3983e-05
6.29592e-06
0.000335581
-3.03585e-05
1.37658e-05
0.000330434
-1.43844e-05
2.37269e-05
0.000332779
5.44375e-06
2.46804e-05
0.000338769
2.08165e-05
1.3039e-05
0.00034193
2.03975e-05
-7.00477e-06
0.000341668
-3.94204e-06
-2.79961e-05
0.000349149
-4.5919e-05
-3.82035e-05
0.000369347
-7.74508e-05
-3.14037e-05
0.00038319
-7.04682e-05
-1.24749e-05
0.000371822
-3.71396e-05
1.45907e-05
0.000344607
-1.25626e-05
4.26032e-05
0.000324021
-7.08885e-06
5.5746e-05
0.000319394
-1.17573e-06
4.30882e-05
0.000323966
1.88063e-05
1.86534e-05
0.000329163
3.65789e-05
-3.19727e-06
0.000333129
3.24463e-05
-1.85487e-05
0.000337833
1.57779e-05
-2.85282e-05
0.000342407
8.82025e-06
-3.26075e-05
0.000343787
1.44061e-05
-3.07028e-05
1.36807e-05
-2.25097e-05
0.000377799
1.03749e-06
-5.73634e-06
0.000376896
-6.19468e-06
1.72452e-06
0.000392571
-2.0413e-06
-2.75754e-06
0.000416055
1.19909e-05
-1.75831e-05
0.000426298
2.02379e-05
-3.86898e-05
0.000419166
1.56693e-05
-6.18319e-05
0.000413253
3.92987e-06
-8.08863e-05
0.000420564
-1.55847e-05
-8.9855e-05
0.000432328
-4.66633e-05
-8.49772e-05
0.000434848
-7.57512e-05
-6.56857e-05
0.000427049
-7.68749e-05
-3.71879e-05
0.000416145
-4.44541e-05
-1.31725e-05
0.000406455
-5.13022e-06
-2.92529e-06
0.000400486
1.13626e-05
-4.92428e-07
0.000401215
4.11859e-06
4.45439e-06
0.000408912
-8.42308e-06
1.48806e-05
0.000418245
-1.50271e-05
2.70498e-05
0.00042071
-1.89176e-05
3.09586e-05
0.000409963
-2.10176e-05
2.12166e-05
0.000388948
-1.8926e-05
6.74722e-06
0.000369541
-1.41269e-05
9.61268e-07
0.00036285
-1.0198e-05
3.94225e-06
0.000370204
-6.56063e-06
5.87446e-06
0.000383146
2.14156e-06
3.81066e-07
0.000390243
1.19269e-05
-1.17927e-05
0.000390055
7.0231e-06
-2.60446e-05
0.000393637
-2.43979e-05
-3.32016e-05
0.000409188
-6.56361e-05
-2.7355e-05
0.000424246
-7.65365e-05
-1.0033e-05
0.000418433
-4.72366e-05
1.38134e-05
0.000393803
-1.31536e-05
4.00235e-05
0.00037079
4.076e-06
5.5741e-05
0.000360934
1.54402e-05
4.71844e-05
0.000359062
3.31804e-05
2.50122e-05
0.000356925
4.53747e-05
8.84673e-06
0.000354638
3.61514e-05
-3.2215e-07
0.000357866
1.30977e-05
-1.15061e-05
0.000368085
-2.58018e-06
-2.4271e-05
0.000379316
-1.61773e-06
-2.85206e-05
4.5318e-06
-1.98191e-05
0.000416973
1.59224e-06
1.00992e-07
0.000411767
8.95091e-06
1.11863e-05
0.000418589
1.71611e-05
7.51563e-06
0.000440205
2.50654e-05
-1.00035e-05
0.000462712
2.67975e-05
-3.12947e-05
0.000473225
2.42947e-05
-5.07361e-05
0.000477538
2.065e-05
-6.8704e-05
0.00048768
8.65771e-06
-8.34256e-05
0.000500225
-2.12161e-05
-8.95771e-05
0.000501325
-5.50166e-05
-8.10002e-05
0.000488454
-6.34638e-05
-5.80094e-05
0.000471012
-3.74582e-05
-3.13005e-05
0.000456913
-1.34818e-06
-1.28942e-05
0.000448983
1.62874e-05
-2.6972e-06
0.000448076
1.17831e-05
5.94251e-06
0.000451991
8.92644e-07
1.47665e-05
0.000454611
-6.70316e-06
2.47393e-05
0.000451746
-1.29289e-05
3.10488e-05
0.000442941
-1.60814e-05
2.51153e-05
0.000430478
-1.0315e-05
7.43903e-06
0.000420294
-2.20313e-06
-7.44828e-06
0.000418482
-4.60172e-06
-8.79233e-06
0.000425484
-1.5824e-05
-1.71547e-06
0.000433805
-1.73478e-05
2.2729e-06
0.000434865
-2.17729e-06
-1.96008e-06
0.000430925
1.03258e-05
-1.03679e-05
0.000432375
-5.31799e-06
-1.64472e-05
0.000445564
-4.60579e-05
-1.48358e-05
0.000462297
-7.33716e-05
-2.64009e-06
0.000465839
-5.79674e-05
1.71188e-05
0.000450568
-1.86752e-05
3.83219e-05
0.00042792
1.37844e-05
5.18837e-05
0.000408974
3.20127e-05
4.86925e-05
0.000394465
4.54043e-05
3.30654e-05
0.000383846
5.1874e-05
1.90712e-05
0.000379857
4.10952e-05
1.22083e-05
0.000384751
1.53677e-05
6.61451e-06
0.000397491
-8.68871e-06
-4.19554e-06
0.000412046
-1.51952e-05
-1.418e-05
-7.65828e-06
-1.27961e-05
0.000456207
8.45426e-06
8.57342e-06
0.000452055
2.29341e-05
1.85503e-05
0.000455839
3.71589e-05
1.94024e-05
0.000471476
4.37435e-05
9.22219e-06
0.00049356
3.76601e-05
-1.00849e-05
0.000514584
2.53703e-05
-3.00546e-05
0.000534353
1.85019e-05
-4.91655e-05
0.000555529
1.39722e-05
-6.66416e-05
0.000571667
-2.55622e-06
-8.07492e-05
0.000571908
-2.90506e-05
-8.48986e-05
0.000555864
-4.11538e-05
-7.24811e-05
0.000533884
-2.42549e-05
-4.72037e-05
0.00051505
4.21126e-06
-2.31771e-05
0.000502345
1.89742e-05
-7.92372e-06
0.000495805
1.66916e-05
2.45772e-06
0.000493561
9.45306e-06
1.2815e-05
0.000490851
3.1674e-06
2.38992e-05
0.000485063
-3.22438e-06
3.00179e-05
0.000478529
-6.93141e-06
2.26826e-05
0.000476186
-2.44906e-06
3.08592e-06
0.000481453
3.15434e-06
-1.41343e-05
0.000490833
-4.94468e-06
-1.37845e-05
0.000494792
-2.41742e-05
1.41596e-06
0.000488295
-3.19836e-05
1.46669e-05
0.000476579
-1.47873e-05
1.62637e-05
0.000470737
9.49429e-06
1.2746e-05
0.000476718
1.12312e-05
9.42297e-06
0.000491915
-2.0123e-05
5.20752e-06
0.000508209
-5.62112e-05
5.45291e-06
0.000514853
-5.8122e-05
1.73251e-05
0.000504904
-2.17223e-05
3.65196e-05
0.000483148
2.07321e-05
4.90073e-05
0.000457339
4.61513e-05
4.40574e-05
0.000433425
5.55664e-05
2.99981e-05
0.000418275
5.59334e-05
2.37841e-05
0.000416166
4.6516e-05
2.72779e-05
0.000424778
2.70282e-05
2.75314e-05
0.000438253
5.63279e-06
1.72024e-05
0.000451181
-6.11186e-06
4.96319e-06
-3.07404e-06
1.32258e-06
0.000516432
2.06022e-05
7.83807e-06
0.000513422
3.08042e-05
2.32022e-05
0.000512478
4.37628e-05
3.54356e-05
0.000520136
5.31826e-05
3.23573e-05
0.000534793
4.77093e-05
1.37502e-05
0.000553797
2.6397e-05
-9.00794e-06
0.000578083
4.20937e-06
-2.53865e-05
0.000606509
-6.10015e-06
-3.89061e-05
0.000628642
-8.14411e-06
-5.71926e-05
0.000632765
-1.25564e-05
-7.56272e-05
0.000621201
-1.68749e-05
-8.07854e-05
0.000605871
-8.74865e-06
-6.72223e-05
0.000593342
7.52947e-06
-4.30171e-05
0.000580751
1.80834e-05
-2.0674e-05
0.000565595
1.94999e-05
-4.65866e-06
0.000550181
1.79428e-05
6.38858e-06
0.000537511
1.34044e-05
1.6252e-05
0.000529474
3.29049e-06
2.5593e-05
0.000529093
-7.49169e-06
2.90923e-05
0.000540315
-1.3962e-05
2.12805e-05
0.00056136
-1.84201e-05
6.74131e-06
0.000580271
-2.72205e-05
-1.20176e-06
0.000581618
-3.87537e-05
9.6055e-06
0.000563214
-4.03711e-05
3.42197e-05
0.000539697
-2.07724e-05
5.32084e-05
0.000528433
1.24461e-05
5.29813e-05
0.000533083
3.27944e-05
3.37274e-05
0.000546714
1.78393e-05
7.89211e-06
0.00056044
-2.16189e-05
-3.20155e-06
0.000566248
-4.47063e-05
5.60347e-06
0.000555324
-2.38957e-05
2.51986e-05
0.000529445
2.12306e-05
4.05458e-05
0.000498295
5.60271e-05
4.14609e-05
0.000472883
7.03736e-05
3.16331e-05
0.00046056
7.15322e-05
2.56695e-05
0.00046159
6.34429e-05
2.87256e-05
0.000470929
4.67048e-05
3.20693e-05
0.000484281
2.73199e-05
2.67024e-05
0.000499248
1.5026e-05
1.3757e-05
1.39716e-05
4.15532e-06
0.000572571
2.72016e-05
2.07834e-05
0.000568466
3.18106e-05
3.09237e-05
0.000565942
3.66994e-05
4.10303e-05
0.000572171
3.8315e-05
4.56102e-05
0.000586702
3.01874e-05
3.78007e-05
0.000604926
1.07123e-05
1.62303e-05
0.000624704
-9.83745e-06
-1.08832e-05
0.000648855
-2.23348e-05
-3.31028e-05
0.000675414
-2.27631e-05
-4.81831e-05
0.000692523
-1.5238e-05
-5.99239e-05
0.000691176
-4.19798e-06
-6.93283e-05
0.000677343
9.59219e-06
-7.07127e-05
0.000663635
2.1558e-05
-6.09469e-05
0.000654934
2.50384e-05
-4.38083e-05
0.000647099
2.16154e-05
-2.62765e-05
0.00063595
1.79095e-05
-1.29017e-05
0.00062077
1.41469e-05
-3.05867e-06
0.000605255
6.44471e-06
7.25396e-06
0.000597811
-5.48743e-06
2.06052e-05
0.000605584
-2.18717e-05
3.05693e-05
0.000625925
-4.14691e-05
3.06001e-05
0.000644645
-5.73668e-05
2.3167e-05
0.000647062
-5.93794e-05
2.15165e-05
0.00063177
-4.42455e-05
3.66141e-05
0.000610091
-1.54594e-05
5.82861e-05
0.000593999
1.91311e-05
6.11482e-05
0.000586998
4.15044e-05
3.54793e-05
0.000588176
3.28772e-05
-1.09145e-06
0.000597896
-4.15855e-06
-2.23267e-05
0.000608095
-3.87324e-05
-1.46613e-05
0.000606366
-3.4976e-05
9.32575e-06
0.000586997
6.9126e-06
3.1491e-05
0.000561269
5.25197e-05
4.10935e-05
0.000543703
8.09923e-05
3.51519e-05
0.000539315
9.09722e-05
2.0693e-05
0.000543402
8.43488e-05
7.81196e-06
0.000549307
6.47903e-05
2.03181e-06
0.000555615