/*--------------------------------*- C++ -*----------------------------------*\
| =========                 |                                                 |
| \\      /  F ield         | OpenFOAM: The Open Source CFD Toolbox           |
|  \\    /   O peration     | Version:  2306                                  |
|   \\  /    A nd           | Website:  www.openfoam.com                      |
|    \\/     M anipulation  |                                                 |
\*---------------------------------------------------------------------------*/
FoamFile
{
    version     2.0;
    format      ascii;
    arch        "LSB;label=32;scalar=64";
    class       surfaceScalarField;
    location    "6.5";
    object      phi_0;
}
// * * * * * * * * * * * * * * * * * * * * * * * * * * * * * * * * * * * * * //

dimensions      [0 3 -1 0 0 0 0];

oriented        oriented;

internalField   nonuniform List<scalar> 
175300
(
5.13225e-06
5.27506e-07
-1.89264e-07
5.57582e-06
4.56935e-07
1.26103e-07
5.9361e-06
6.30176e-07
4.70569e-07
6.07027e-06
8.81578e-07
9.39384e-07
5.95663e-06
9.51843e-07
1.48556e-06
5.71071e-06
7.46776e-07
1.96945e-06
5.48465e-06
4.23443e-07
2.19615e-06
5.32748e-06
1.8867e-07
2.10303e-06
5.21002e-06
1.08894e-07
1.77684e-06
5.09695e-06
9.98125e-08
1.39527e-06
4.94125e-06
6.25356e-08
1.15083e-06
4.68495e-06
-1.08355e-08
1.12077e-06
4.3e-06
-6.71094e-08
1.2172e-06
3.87207e-06
-1.35811e-07
1.30867e-06
3.55906e-06
-2.59992e-07
1.32654e-06
3.43602e-06
-4.1154e-07
1.26223e-06
3.47924e-06
-5.63846e-07
1.11806e-06
3.60424e-06
-6.50745e-07
8.99764e-07
3.71889e-06
-5.77248e-07
6.33625e-07
3.81897e-06
-3.7771e-07
3.33195e-07
3.98469e-06
-1.58425e-07
1.10316e-08
4.21145e-06
5.84721e-08
-2.45085e-07
4.42621e-06
2.98363e-07
-4.28936e-07
4.59451e-06
3.7756e-07
-4.87398e-07
4.75374e-06
1.6781e-07
-4.59693e-07
4.95144e-06
-2.8534e-07
-4.82733e-07
5.20945e-06
-7.22596e-07
-7.30122e-07
5.45851e-06
-8.66769e-07
-1.16813e-06
5.54089e-06
-6.2518e-07
-1.54847e-06
5.38735e-06
-1.99165e-07
-1.78265e-06
5.03512e-06
2.15449e-07
-2.00598e-06
4.56272e-06
4.53137e-07
-2.15008e-06
4.13378e-06
3.23329e-07
-2.05286e-06
3.87709e-06
-1.02676e-08
-1.86671e-06
3.79104e-06
-1.90493e-07
-1.78402e-06
3.85511e-06
-1.69071e-07
-1.73154e-06
4.02243e-06
-1.39579e-08
-1.53627e-06
4.22076e-06
2.54629e-07
-1.18777e-06
4.44156e-06
5.02714e-07
-8.0648e-07
6.18179e-07
-4.84388e-07
1.71251e-05
1.41396e-06
-3.60623e-07
1.8548e-05
1.25555e-06
5.96511e-07
1.97116e-05
1.81495e-06
1.79566e-06
2.0284e-05
2.5351e-06
3.29579e-06
2.01228e-05
2.64259e-06
4.87292e-06
1.9425e-05
2.01265e-06
6.078e-06
1.86331e-05
1.13275e-06
6.49634e-06
1.80299e-05
4.94947e-07
6.10793e-06
1.76166e-05
2.54549e-07
5.17891e-06
1.72591e-05
2.08271e-07
4.15194e-06
1.6751e-05
1.13268e-07
3.47946e-06
1.58906e-05
-4.68085e-08
3.32958e-06
1.46591e-05
-2.11861e-07
3.52876e-06
1.33462e-05
-5.2424e-07
3.79894e-06
1.236e-05
-1.07717e-06
3.9361e-06
1.18843e-05
-1.7183e-06
3.82218e-06
1.18411e-05
-2.22923e-06
3.40324e-06
1.20161e-05
-2.35652e-06
2.72021e-06
1.22409e-05
-1.93701e-06
1.87905e-06
1.25466e-05
-1.21161e-06
9.83669e-07
1.30602e-05
-4.51862e-07
9.87864e-08
1.37324e-05
2.69156e-07
-6.0131e-07
1.44309e-05
8.87045e-07
-1.0655e-06
1.51412e-05
8.36118e-07
-1.20955e-06
1.59416e-05
-1.93738e-07
-1.16162e-06
1.6887e-05
-1.88669e-06
-1.32139e-06
1.79031e-05
-3.30417e-06
-2.06855e-06
1.86845e-05
-3.55754e-06
-3.24781e-06
1.88237e-05
-2.46937e-06
-4.29404e-06
1.82022e-05
-8.01605e-07
-5.01339e-06
1.70395e-05
6.33016e-07
-5.56586e-06
1.56684e-05
1.23507e-06
-5.73798e-06
1.44366e-05
6.68663e-07
-5.43394e-06
1.3513e-05
-3.19203e-07
-5.14682e-06
1.29565e-05
-7.56365e-07
-5.13716e-06
1.28684e-05
-6.24412e-07
-5.01683e-06
1.32076e-05
-9.25541e-08
-4.36799e-06
1.38112e-05
8.07979e-07
-3.31179e-06
1.46423e-05
1.57968e-06
-2.21949e-06
1.81535e-06
-1.27684e-06
3.14422e-05
1.974e-06
-1.08028e-06
3.41306e-05
1.50625e-06
6.76784e-07
3.64692e-05
2.5668e-06
2.82955e-06
3.79408e-05
3.91851e-06
5.50145e-06
3.81209e-05
4.12558e-06
8.23431e-06
3.70591e-05
3.13405e-06
1.02547e-05
3.5483e-05
1.80289e-06
1.09634e-05
3.41531e-05
8.11035e-07
1.03862e-05
3.32821e-05
3.64574e-07
8.96513e-06
3.26443e-05
2.20907e-07
7.35714e-06
3.18186e-05
5.65462e-08
6.19121e-06
3.0412e-05
-1.53884e-07
5.71184e-06
2.83584e-05
-3.88374e-07
5.77352e-06
2.60592e-05
-9.86716e-07
6.125e-06
2.41156e-05
-2.14501e-06
6.48851e-06
2.28898e-05
-3.5394e-06
6.51876e-06
2.23794e-05
-4.64568e-06
5.98951e-06
2.23367e-05
-4.89266e-06
4.95171e-06
2.25408e-05
-4.03109e-06
3.60841e-06
2.30149e-05
-2.57605e-06
2.1544e-06
2.38781e-05
-1.05001e-06
7.37174e-07
2.504e-05
4.27777e-07
-4.75153e-07
2.63439e-05
1.45561e-06
-1.23808e-06
2.78075e-05
8.79025e-07
-1.42124e-06
2.95289e-05
-1.67307e-06
-1.22313e-06
3.15398e-05
-5.50027e-06
-1.33025e-06
3.36415e-05
-8.53086e-06
-2.43469e-06
3.5247e-05
-8.87523e-06
-4.39145e-06
3.56425e-05
-6.25352e-06
-6.31123e-06
3.46474e-05
-2.40708e-06
-7.74177e-06
3.27066e-05
7.66316e-07
-8.71789e-06
3.04428e-05
1.98616e-06
-8.90292e-06
2.83219e-05
8.55247e-07
-8.36403e-06
2.64576e-05
-9.73932e-07
-8.00691e-06
2.4946e-05
-1.70861e-06
-8.22878e-06
2.41576e-05
-1.42452e-06
-8.33708e-06
2.42923e-05
-4.60249e-07
-7.52032e-06
2.5192e-05
1.20872e-06
-5.89431e-06
2.67247e-05
2.64713e-06
-4.1271e-06
2.91706e-06
-2.58226e-06
4.75074e-05
1.13172e-06
-3.2585e-06
5.18223e-05
-2.736e-07
-5.39977e-07
5.58695e-05
1.36844e-06
2.50855e-06
5.89627e-05
3.67609e-06
6.48606e-06
6.02311e-05
4.32229e-06
1.07089e-05
5.92062e-05
3.36532e-06
1.4e-05
5.67091e-05
2.04405e-06
1.5418e-05
5.42536e-05
1.01436e-06
1.49381e-05
5.26402e-05
4.14201e-07
1.32044e-05
5.16645e-05
9.28397e-08
1.1137e-05
5.06463e-05
-1.86518e-07
9.49347e-06
4.8927e-05
-4.11106e-07
8.49111e-06
4.62797e-05
-5.85054e-07
8.0302e-06
4.30445e-05
-1.28964e-06
8.11768e-06
3.98453e-05
-2.92256e-06
8.66467e-06
3.72358e-05
-5.10005e-06
9.11583e-06
3.55395e-05
-7.07589e-06
8.84517e-06
3.47316e-05
-7.85951e-06
7.75713e-06
3.46025e-05
-6.85848e-06
6.13929e-06
3.50937e-05
-4.71594e-06
4.26968e-06
3.62431e-05
-2.25147e-06
2.34025e-06
3.78947e-05
2.13752e-07
6.30386e-07
3.98638e-05
1.69956e-06
-4.09504e-07
4.21839e-05
2.72699e-07
-4.97665e-07
4.4947e-05
-4.64251e-06
1.46798e-07
4.82009e-05
-1.1698e-05
5.39925e-07
5.17404e-05
-1.74571e-05
-4.78864e-07
5.47335e-05
-1.82076e-05
-3.29857e-06
5.60067e-05
-1.3379e-05
-6.59733e-06
5.51407e-05
-6.1647e-06
-9.34085e-06
5.27406e-05
-1.52883e-07
-1.12395e-05
4.97377e-05
2.35496e-06
-1.17005e-05
4.67532e-05
8.46212e-07
-1.08409e-05
4.38058e-05
-1.89135e-06
-1.0172e-05
4.08553e-05
-2.95109e-06
-1.05972e-05
3.85113e-05
-2.51814e-06
-1.13208e-05
3.7568e-05
-1.28957e-06
-1.09884e-05
3.82339e-05
9.38598e-07
-9.32995e-06
4.02955e-05
2.98927e-06
-7.18019e-06
3.0933e-06
-5.20672e-06
6.39509e-05
-2.02193e-06
-7.98136e-06
7.01223e-05
-5.47989e-06
-5.06607e-06
7.64436e-05
-4.60519e-06
-3.87598e-07
8.21155e-05
-4.34461e-07
4.66002e-06
8.57343e-05
1.5306e-06
1.08481e-05
8.58123e-05
1.4966e-06
1.62738e-05
8.26968e-05
1.13658e-06
1.92905e-05
7.87422e-05
7.98431e-07
1.95092e-05
7.59401e-05
3.53387e-07
1.77113e-05
7.44746e-05
-1.62721e-07
1.53302e-05
7.34113e-05
-6.58116e-07
1.34395e-05
7.17304e-05
-9.39472e-07
1.20439e-05
6.89345e-05
-9.25142e-07
1.07681e-05
6.51445e-05
-1.38433e-06
9.95906e-06
6.07317e-05
-3.00921e-06
1.02276e-05
5.61816e-05
-5.5738e-06
1.11932e-05
5.22595e-05
-8.4145e-06
1.16493e-05
4.96362e-05
-1.0333e-05
1.09762e-05
4.845e-05
-1.00325e-05
9.45426e-06
4.85549e-05
-7.71154e-06
7.472e-06
4.97734e-05
-4.31589e-06
5.20767e-06
5.17754e-05
-5.43732e-07
3.03468e-06
5.42733e-05
1.63315e-06
1.77215e-06
5.7251e-05
-8.20838e-07
2.00541e-06
6.07092e-05
-8.99318e-06
3.81173e-06
6.48007e-05
-2.06808e-05
5.79329e-06
6.9793e-05
-3.09738e-05
5.64654e-06
7.5037e-05
-3.35107e-05
2.24545e-06
7.85907e-05
-2.61582e-05
-3.26963e-06
7.917e-05
-1.40664e-05
-8.5623e-06
7.72364e-05
-3.47382e-06
-1.25673e-05
7.39983e-05
1.68566e-06
-1.41175e-05
7.03735e-05
5.17705e-07
-1.3047e-05
6.64611e-05
-2.93919e-06
-1.16464e-05
6.19846e-05
-4.27213e-06
-1.18951e-05
5.7408e-05
-3.60545e-06
-1.32944e-05
5.4088e-05
-2.2785e-06
-1.40726e-05
5.31725e-05
7.0243e-09
-1.33268e-05
5.48423e-05
2.20333e-06
-1.16507e-05
1.74037e-06
-9.88737e-06
7.90923e-05
-7.63361e-06
-1.54741e-05
8.62564e-05
-1.50074e-05
-1.32667e-05
9.45981e-05
-1.63421e-05
-8.90402e-06
0.000103607
-1.22308e-05
-1.98099e-06
0.000111587
-7.49824e-06
5.94542e-06
0.000115113
-4.91352e-06
1.47998e-05
0.000112835
-2.47902e-06
2.11201e-05
0.000107514
-6.57417e-07
2.34328e-05
0.000103034
-1.28479e-07
2.21458e-05
0.000100797
-6.06476e-07
1.94736e-05
9.97909e-05
-1.3821e-06
1.75821e-05
9.85024e-05
-1.87759e-06
1.64689e-05
9.60941e-05
-1.69319e-06
1.47244e-05
9.24722e-05
-1.5756e-06
1.24383e-05
8.75827e-05
-2.52792e-06
1.14182e-05
8.12954e-05
-4.67459e-06
1.23988e-05
7.43315e-05
-7.7212e-06
1.38611e-05
6.83449e-05
-1.08581e-05
1.41496e-05
6.46253e-05
-1.22983e-05
1.3144e-05
6.33802e-05
-1.09493e-05
1.14089e-05
6.41237e-05
-7.08858e-06
9.13295e-06
6.6099e-05
-1.7684e-06
6.72803e-06
6.87427e-05
1.53829e-06
5.37666e-06
7.18859e-05
-1.95422e-06
6.24842e-06
7.52633e-05
-1.40123e-05
9.66533e-06
7.87601e-05
-3.12854e-05
1.3866e-05
8.34864e-05
-4.74313e-05
1.58256e-05
9.07735e-05
-5.42867e-05
1.32445e-05
9.88439e-05
-4.71481e-05
6.34568e-06
0.00010397
-2.94217e-05
-2.9702e-06
0.000104853
-1.16599e-05
-1.12085e-05
0.000102721
-1.3822e-06
-1.5637e-05
9.90594e-05
-6.48846e-07
-1.51992e-05
9.45219e-05
-4.11556e-06
-1.2837e-05
8.89589e-05
-5.46796e-06
-1.22398e-05
8.23808e-05
-4.32833e-06
-1.38254e-05
7.60154e-05
-2.72813e-06
-1.57023e-05
7.18447e-05
-5.93289e-07
-1.65052e-05
7.11087e-05
1.18252e-06
-1.64445e-05
-6.93148e-07
-1.61662e-05
9.49506e-05
-1.31771e-05
-2.32311e-05
0.000100283
-2.63607e-05
-2.33763e-05
0.00010744
-3.15754e-05
-2.07332e-05
0.000117055
-2.88503e-05
-1.53099e-05
0.0001298
-2.48565e-05
-6.43227e-06
0.000140915
-2.0321e-05
5.66863e-06
0.000143764
-1.24922e-05
1.76381e-05
0.000138973
-5.43971e-06
2.49363e-05
0.000132829
-2.07349e-06
2.59712e-05
0.000129543
-1.74231e-06
2.31301e-05
0.000128737
-2.56531e-06
2.0886e-05
0.000128168
-3.33844e-06
2.07899e-05
0.000126532
-3.18835e-06
2.0048e-05
0.00012381
-2.42899e-06
1.66976e-05
0.000119795
-2.24047e-06
1.32749e-05
0.000113325
-3.16266e-06
1.29455e-05
0.000103911
-5.26688e-06
1.50584e-05
9.34478e-05
-8.54454e-06
1.6765e-05
8.50609e-05
-1.18574e-05
1.67312e-05
8.05639e-05
-1.28289e-05
1.54931e-05
7.9692e-05
-9.67803e-06
1.34452e-05
8.10854e-05
-2.98806e-06
1.09438e-05
8.36622e-05
1.85547e-06
9.44511e-06
8.70564e-05
-2.438e-06
1.06706e-05
9.06513e-05
-1.81625e-05
1.49879e-05
9.327e-05
-4.03191e-05
2.05584e-05
9.51785e-05
-6.14495e-05
2.47802e-05
9.99817e-05
-7.40745e-05
2.53318e-05
0.000110355
-7.13346e-05
2.02494e-05
0.000122707
-5.28157e-05
9.54449e-06
0.000131093
-2.79411e-05
-4.43964e-06
0.000133431
-9.40555e-06
-1.45211e-05
0.000131215
-3.84333e-06
-1.68592e-05
0.00012651
-5.59608e-06
-1.42114e-05
0.00012048
-6.34558e-06
-1.22116e-05
0.000113087
-4.56823e-06
-1.31016e-05
0.000104757
-2.39528e-06
-1.53735e-05
9.73957e-05
6.68769e-08
-1.74243e-05
9.30318e-05
1.64334e-06
-1.92218e-05
-1.89248e-06
-2.13032e-05
0.000118167
-1.408e-05
-2.7265e-05
0.000118423
-3.37559e-05
-3.14473e-05
0.00012107
-4.45451e-05
-3.24978e-05
0.000126408
-4.38706e-05
-2.95679e-05
0.000137792
-4.26086e-05
-2.24388e-05
0.000155029
-4.18912e-05
-1.03724e-05
0.000167811
-3.27902e-05
6.14276e-06
0.000168338
-1.71188e-05
2.09024e-05
0.000162007
-7.33552e-06
2.76858e-05
0.000157805
-4.89075e-06
2.60931e-05
0.000157851
-5.26786e-06
2.24421e-05
0.000158824
-5.77807e-06
2.27306e-05
0.000158167
-5.458e-06
2.47337e-05
0.000156448
-4.26633e-06
2.26998e-05
0.000154484
-3.17937e-06
1.71007e-05
0.000150486
-2.84325e-06
1.38428e-05
0.000141562
-3.2379e-06
1.5357e-05
0.000127768
-4.77602e-06
1.84822e-05
0.00011331
-8.10797e-06
1.99136e-05
0.000102928
-1.14409e-05
1.93972e-05
9.8341e-05
-1.05114e-05
1.77043e-05
9.82715e-05
-3.64882e-06
1.52011e-05
0.000100901
2.69874e-06
1.31884e-05
0.00010524
-1.63509e-06
1.37803e-05
0.000110292
-1.97143e-05
1.756e-05
0.000114102
-4.47189e-05
2.24715e-05
0.000114532
-6.78926e-05
2.72156e-05
0.0001137
-8.37347e-05
3.14224e-05
0.000118736
-8.75759e-05
3.2184e-05
0.00013263
-7.49844e-05
2.47986e-05
0.000149444
-4.95309e-05
8.92323e-06
0.000160777
-2.41323e-05
-8.07843e-06
0.000163182
-1.05942e-05
-1.62352e-05
0.0001591
-7.33696e-06
-1.55777e-05
0.00015286
-6.39638e-06
-1.24298e-05
0.000146008
-4.44937e-06
-1.15168e-05
0.000138056
-1.75348e-06
-1.30783e-05
0.000130001
1.77076e-06
-1.55404e-05
0.000123891
4.29995e-06
-1.85038e-05
4.47296e-07
-2.24282e-05
0.00015286
-8.51582e-06
-2.51066e-05
0.000146691
-3.18274e-05
-3.35882e-05
0.000142527
-4.94906e-05
-4.08198e-05
0.000142112
-5.25759e-05
-4.2763e-05
0.000147511
-5.29252e-05
-3.79065e-05
0.000162748
-5.89399e-05
-2.63655e-05
0.00018268
-5.64836e-05
-9.39777e-06
0.00019247
-3.74801e-05
1.10994e-05
0.000188115
-1.68304e-05
2.54095e-05
0.000181592
-9.55843e-06
2.78481e-05
0.000182436
-1.07399e-05
2.24916e-05
0.000187293
-1.13637e-05
2.04884e-05
0.000188678
-8.62414e-06
2.44728e-05
0.000186417
-5.12987e-06
2.62514e-05
0.00018553
-4.17652e-06
2.12865e-05
0.000186563
-5.50863e-06
1.53891e-05
0.000183486
-5.8017e-06
1.51147e-05
0.000171351
-4.18199e-06
1.91578e-05
0.000152618
-3.86851e-06
2.24074e-05
0.000134666
-6.40639e-06
2.28853e-05
0.000123351
-7.59036e-06
2.16875e-05
0.000119642
-2.58156e-06
1.96113e-05
0.000121522
3.8068e-06
1.73394e-05
0.000126819
-3.58535e-07
1.66163e-05
0.000133655
-1.92401e-05
1.82321e-05
0.000139816
-4.48029e-05
2.08699e-05
0.00014209
-6.74312e-05
2.44961e-05
0.000138832
-8.22153e-05
3.05803e-05
0.00013596
-8.92932e-05
3.76645e-05
0.000143286
-8.59661e-05
3.73116e-05
0.000161992
-6.93289e-05
2.3905e-05
0.000181686
-4.44374e-05
4.02114e-06
0.000189437
-2.0459e-05
-1.15215e-05
0.000182611
-5.29275e-06
-1.55261e-05
0.000171673
-5.03265e-07
-1.29195e-05
0.000165736
-2.98159e-06
-9.40523e-06
0.000163789
-4.06635e-06
-8.40796e-06
0.000161755
7.47886e-07
-1.01345e-05
0.000159438
6.73256e-06
-1.35748e-05
5.38414e-06
-1.84016e-05
0.000193454
-9.47447e-07
-1.57135e-05
0.000185314
-2.08735e-05
-2.77364e-05
0.000173836
-4.24026e-05
-4.19579e-05
0.000166832
-5.21747e-05
-5.23083e-05
0.000166617
-5.46404e-05
-5.30261e-05
0.000175195
-6.41976e-05
-4.28854e-05
0.000193733
-7.31647e-05
-2.48992e-05
0.000212483
-6.20266e-05
-2.93756e-06
0.000217017
-3.4844e-05
1.83751e-05
0.000208696
-1.57825e-05
2.73089e-05
0.000203407
-1.48848e-05
2.28625e-05
0.000209444
-2.01779e-05
1.655e-05
0.000217023
-1.67824e-05
1.83534e-05
0.000215402
-5.14528e-06
2.28726e-05
0.00020946
1.27677e-06
2.10173e-05
0.000210461
-5.06267e-06
1.48645e-05
0.00021716
-1.43904e-05
1.29576e-05
0.00021649
-1.42872e-05
1.77361e-05
0.000201543
-6.83685e-06
2.33712e-05
0.000178737
-1.56349e-06
2.52994e-05
0.000158717
5.73233e-08
2.46687e-05
0.000147867
2.90204e-06
2.38096e-05
0.000146721
5.72687e-06
2.26431e-05
0.000152515
-1.39958e-06
2.08005e-05
0.000161541
-2.1784e-05
1.84996e-05
0.000170157
-4.57467e-05
1.62409e-05
0.00017477
-6.41858e-05
1.67661e-05
0.000172382
-7.42156e-05
2.35834e-05
0.000164926
-7.91036e-05
3.59316e-05
0.000163025
-8.21539e-05
4.38204e-05
0.000175787
-7.93402e-05
3.56689e-05
0.00019659
-6.31163e-05
1.47339e-05
0.000207169
-3.18032e-05
-5.3961e-06
0.000198271
-1.04802e-06
-1.4384e-05
0.000181128
1.23589e-05
-1.37486e-05
0.000171186
5.53646e-06
-7.92754e-06
0.000171992
-4.38166e-06
-2.32743e-06
0.000178357
-3.53945e-06
-6.15595e-07
0.000185994
4.05223e-06
-2.65465e-06
6.8172e-06
-7.70694e-06
0.000226845
7.14659e-07
2.41725e-06
0.000226731
-8.60269e-06
-1.34861e-05
0.000213274
-2.48777e-05
-3.43347e-05
0.000198861
-3.99771e-05
-5.39799e-05
0.000193281
-4.89634e-05
-6.44213e-05
0.000197172
-6.06089e-05
-5.99832e-05
0.000209486
-7.60728e-05
-4.31666e-05
0.000228446
-7.95959e-05
-1.94876e-05
0.000243997
-6.0767e-05
5.72219e-06
0.000244833
-3.22032e-05
2.25519e-05
0.000234357
-1.83661e-05
2.34846e-05
0.000229291
-2.24576e-05
1.4873e-05
0.000236882
-2.56536e-05
1.09685e-05
0.000244573
-1.28222e-05
1.4879e-05
0.000241133
4.61316e-06
1.74672e-05
0.000234458
3.52324e-06
1.41487e-05
0.000238301
-1.64562e-05
1.06717e-05
0.000249112
-3.14468e-05
1.40993e-05
0.000249235
-2.47268e-05
2.16618e-05
0.000231907
-6.3758e-06
2.56654e-05
0.000206787
8.1614e-06
2.53859e-05
0.000186839
1.46967e-05
2.60749e-05
0.000179014
1.21009e-05
2.82644e-05
0.000182855
-3.43593e-06
2.71453e-05
0.000193641
-2.95598e-05
2.01064e-05
0.000205696
-5.2749e-05
9.86272e-06
0.000213439
-6.37445e-05
3.50685e-06
0.000212485
-6.51709e-05
9.19937e-06
0.000202734
-6.34541e-05
2.68397e-05
0.000192415
-6.63782e-05
4.39552e-05
0.000194649
-7.49384e-05
4.36316e-05
0.000210065
-7.24903e-05
2.39221e-05
0.000221546
-4.24541e-05
1.32623e-06
0.000215612
6.98656e-07
-1.23022e-05
0.000198755
2.47574e-05
-1.5087e-05
0.000185795
1.79324e-05
-9.66552e-06
0.000183165
1.02137e-06
-2.12778e-07
0.00018872
-4.16744e-06
7.70926e-06
0.000199376
1.0785e-06
1.12234e-05
4.02077e-06
9.79478e-06
0.000247963
-4.07295e-06
1.99741e-05
0.000261751
-4.77517e-06
6.82084e-06
0.000256306
-5.53151e-06
-1.99431e-05
0.000238978
-1.79644e-05
-4.73638e-05
0.000226717
-3.50124e-05
-6.75873e-05
0.000226949
-5.23204e-05
-7.2939e-05
0.000235505
-6.98701e-05
-6.16763e-05
0.000248923
-8.30198e-05
-3.94792e-05
0.000265802
-8.06196e-05
-1.24951e-05
0.000277097
-5.85179e-05
1.21598e-05
0.000273211
-3.0921e-05
2.11865e-05
0.000260355
-2.02343e-05
1.45324e-05
0.000255997
-2.38335e-05
6.23075e-06
0.000264959
-2.09136e-05
7.66208e-06
0.000273436
-4.60887e-06
1.40475e-05
0.000270868
5.03284e-06
1.55718e-05
0.000265344
-9.39466e-06
1.16066e-05
0.000270463
-3.71954e-05
1.07658e-05
0.000281779
-4.75683e-05
1.74391e-05
0.00028108
-2.72171e-05
2.33758e-05
0.000262549
5.40406e-06
2.36045e-05
0.00023862
2.56374e-05
2.56269e-05
0.000222711
2.41369e-05
3.21908e-05
0.000219054
2.50882e-06
3.29547e-05
0.000225747
-3.13397e-05
2.07905e-05
0.000239584
-5.99067e-05
1.88128e-06
0.000253389
-7.01172e-05
-1.03302e-05
0.000257201
-6.16364e-05
-9.22918e-06
0.000247292
-4.98905e-05
1.11102e-05
0.000230544
-4.56154e-05
3.77541e-05
0.000221368
-5.72867e-05
4.84081e-05
0.000227029
-6.71657e-05
3.35057e-05
0.00023655
-4.64617e-05
9.51133e-06
0.000236338
-1.53574e-07
-8.2629e-06
0.000226919
3.08329e-05
-1.60904e-05
0.00021679
2.79903e-05
-1.58896e-05
0.000210822
9.92532e-06
-7.79446e-06
0.000210018
2.04315e-06
3.60525e-06
0.000214451
3.81792e-06
1.38601e-05
1.84855e-06
2.0518e-05
0.000267326
-1.14547e-05
2.14696e-05
0.000290645
-1.14176e-05
1.77926e-05
0.000298028
3.82825e-06
-5.39896e-06
0.000285697
3.99441e-06
-3.694e-05
0.00026911
-1.56031e-05
-6.34286e-05
0.000263588
-4.00019e-05
-7.74775e-05
0.000269932
-5.98514e-05
-7.54713e-05
0.000280129
-7.6158e-05
-5.90512e-05
0.000291546
-8.75371e-05
-3.22722e-05
0.000303165
-8.02214e-05
-3.96668e-06
0.000306123
-5.07177e-05
1.40192e-05
0.000296658
-2.2467e-05
1.27606e-05
0.000285896
-1.56109e-05
3.80719e-06
0.000287226
-1.97471e-05
2.83065e-06
0.000298836
-1.54575e-05
1.12814e-05
0.000306793
-4.70438e-06
1.79378e-05
0.000304193
-7.11452e-06
1.57519e-05
0.000299296
-2.99203e-05
9.91748e-06
0.000303287
-5.32057e-05
1.09033e-05
0.000311633
-4.81712e-05
1.69431e-05
0.000309383
-1.4243e-05
2.05817e-05
0.000293212
1.99166e-05
2.60021e-05
0.000274196
3.12331e-05
3.53651e-05
0.000261391
1.84257e-05
3.50387e-05
0.00025727
-1.33983e-05
1.65188e-05
0.000265355
-5.18759e-05
-7.18632e-06
0.000284449
-7.53306e-05
-2.19846e-05
0.000298826
-6.90692e-05
-2.14539e-05
0.000294558
-4.6081e-05
-4.2714e-06
0.000275023
-3.05323e-05
2.78393e-05
0.000256556
-3.45517e-05
4.9722e-05
0.000251441
-4.81165e-05
4.35938e-05
0.000256026
-3.7924e-05
1.95623e-05
0.000259279
1.13014e-06
-2.22264e-06
0.00025837
3.18127e-05
-1.58378e-05
0.000255726
3.14946e-05
-2.21351e-05
0.000251485
1.68986e-05
-1.92801e-05
0.000245975
1.06096e-05
-9.21438e-06
0.000242696
1.22992e-05
1.84349e-06
4.14663e-06
1.2901e-05
0.000297792
-1.30359e-05
6.1826e-06
0.000320677
-2.06434e-05
1.24296e-05
0.00033896
-7.16131e-07
7.08167e-07
0.000337256
1.49632e-05
-2.7523e-05
0.000320894
2.96817e-06
-5.66032e-05
0.000308534
-2.23755e-05
-7.68743e-05
0.000310282
-4.44927e-05
-8.295e-05
0.000320049
-6.32313e-05
-7.43409e-05
0.000328305
-8.25931e-05
-5.23055e-05
0.000334161
-8.97318e-05
-2.2344e-05
0.000336475
-6.77147e-05
2.59138e-06
0.00033109
-2.94976e-05
9.07195e-06
0.000321431
-7.91106e-06
2.35293e-06
0.000318196
-1.06423e-05
-4.77441e-07
0.000326514
-1.77019e-05
7.7548e-06
0.00033904
-1.44705e-05
1.93677e-05
0.000344971
-1.12944e-05
2.23145e-05
0.000340778
-2.23375e-05
1.42945e-05
0.000332717
-4.22365e-05
6.73438e-06
0.00032894
-4.94999e-05
9.52642e-06
0.000327103
-3.15838e-05
1.94066e-05
0.000320189
-9.15779e-08
3.10598e-05
0.000309152
2.35097e-05
3.7725e-05
0.000300468
2.81538e-05
2.98627e-05
0.00029489
9.27066e-06
5.81184e-06
0.000295871
-2.99375e-05
-1.84289e-05
0.000312033
-6.86725e-05
-3.11458e-05
0.000334422
-7.84622e-05
-2.65749e-05
0.000339878
-5.57216e-05
-9.31764e-06
0.000321961
-2.81251e-05
2.04931e-05
0.000297762
-1.84864e-05
4.82117e-05
0.00028428
-2.46258e-05
5.23335e-05
0.000283803
-1.85904e-05
3.19753e-05
0.00028826
9.59969e-06
6.96828e-06
0.000293255
3.26535e-05
-1.26083e-05
0.000298107
2.91605e-05
-2.50892e-05
0.000299831
1.63597e-05
-2.84514e-05
0.000296032
1.43455e-05
-2.36748e-05
0.000289789
1.89312e-05
-1.58114e-05
9.66176e-06
-6.38033e-06
0.000339019
-5.94475e-06
-7.44459e-06
0.000350999
-1.92814e-05
2.13878e-06
0.000372963
-6.48135e-06
-2.75263e-06
0.000385149
1.4826e-05
-2.28238e-05
0.000377125
1.46401e-05
-4.90251e-05
0.000362191
-2.69698e-06
-7.23332e-05
0.000358467
-2.25017e-05
-8.53163e-05
0.000367407
-4.36713e-05
-8.46666e-05
0.000376676
-6.98536e-05
-6.95653e-05
0.000378618
-8.7908e-05
-4.21462e-05
0.000375359
-7.55215e-05
-1.35071e-05
0.000368851
-3.6231e-05
1.59002e-06
0.000360469
-3.12066e-06
7.53665e-07
0.000355723
1.78673e-06
-1.56229e-06
0.000360485
-1.00871e-05
5.19739e-06
0.000372995
-1.68929e-05
1.93578e-05
0.000383897
-1.64802e-05
2.85776e-05
0.000383092
-1.96223e-05
2.31599e-05
0.000368046
-2.82236e-05
1.03395e-05
0.000347944
-3.43506e-05
6.40087e-06
0.000334133
-2.90458e-05
1.48727e-05
0.000330022
-1.21563e-05
2.42516e-05
0.000333176
7.76199e-06
2.37663e-05
0.000339284
2.21306e-05
1.06929e-05
0.000341892
1.91459e-05
-9.78663e-06
0.000341865
-8.22137e-06
-3.01685e-05
0.000351011
-5.09562e-05
-3.84472e-05
0.000371839
-7.90736e-05
-2.95831e-05
0.000383394
-6.76621e-05
-9.51555e-06
0.00036915
-3.37313e-05
1.82586e-05
0.00034152
-1.12786e-05
4.53185e-05
0.000322592
-6.80225e-06
5.55013e-05
0.000319611
6.23835e-07
4.04092e-05
0.000324715
2.14918e-05
1.57235e-05
0.000329725
3.74754e-05
-5.37117e-06
0.000333587
3.08971e-05
-1.99805e-05
0.00033832
1.41368e-05
-2.93314e-05
0.00034271
8.64717e-06
-3.2736e-05
0.000343672
1.46847e-05
-3.00648e-05
1.24671e-05
-2.0908e-05
0.000377493
1.37303e-07
-4.14405e-06
0.00037803
-6.53214e-06
2.01762e-06
0.000395314
-8.40365e-07
-3.96242e-06
0.000418269
1.34073e-05
-2.00011e-05
0.000426483
2.00072e-05
-4.16755e-05
0.000418739
1.40693e-05
-6.46481e-05
0.000414378
1.49671e-06
-8.25123e-05
0.000423018
-1.9084e-05
-8.96332e-05
0.000434085
-5.06414e-05
-8.28695e-05
0.0004348
-7.74283e-05
-6.21488e-05
0.000425856
-7.41353e-05
-3.35447e-05
0.000414706
-3.91158e-05
-1.10266e-05
0.000405337
-1.21149e-06
-2.24382e-06
0.000400052
1.1837e-05
1.34256e-07
0.00040176
2.60716e-06
5.39979e-06
0.000410102
-9.80684e-06
1.6212e-05
0.000419069
-1.57678e-05
2.79358e-05
0.000420075
-1.94744e-05
3.03735e-05
0.000407661
-2.11853e-05
1.94216e-05
0.000386104
-1.85515e-05
5.32598e-06
0.000367743
-1.35805e-05
7.37861e-07
0.000362837
-9.78287e-06
4.11584e-06
0.000371466
-5.6578e-06
5.42888e-06
0.000384291
3.63323e-06
-8.10002e-07
0.000390444
1.27293e-05
-1.37442e-05
0.000390154
4.69543e-06
-2.76965e-05
0.000395042
-2.94033e-05
-3.35767e-05
0.000411564
-6.93067e-05
-2.59241e-05
0.000425058
-7.51159e-05
-7.40745e-06
0.000416298
-4.30882e-05
1.70448e-05
0.000390616
-1.02931e-05
4.27785e-05
0.000368773
5.5481e-06
5.60549e-05
0.000360356
1.72846e-05
4.49769e-05
0.000358869
3.51887e-05
2.25719e-05
0.000356558
4.55074e-05
7.44922e-06
0.000354603
3.39844e-05
-1.4309e-06
0.000358635
1.05338e-05
-1.29418e-05
0.000369387
-3.54066e-06
-2.5336e-05
0.000380202
-1.15132e-06
-2.81566e-05
4.65025e-06
-1.81308e-05
0.000416546
2.85162e-06
1.99474e-06
0.000412045
9.85811e-06
1.17492e-05
0.000420655
1.80777e-05
6.19584e-06
0.000443152
2.55705e-05
-1.27004e-05
0.000464792
2.64502e-05
-3.39443e-05
0.000474212
2.33561e-05
-5.32221e-05
0.000479026
1.91243e-05
-7.077e-05
0.000490135
5.45792e-06
-8.44519e-05
0.000501951
-2.56515e-05
-8.88838e-05
0.00050092
-5.75788e-05
-7.83878e-05
0.000486509
-6.154e-05
-5.43818e-05
0.000468849
-3.26251e-05
-2.82912e-05
0.000455358
2.50026e-06
-1.11379e-05
0.000448294
1.70156e-05
-1.45574e-06
0.00044823
1.06505e-05
7.05156e-06
0.000452427
-5.0241e-07
1.59492e-05
0.000454583
-7.6737e-06
2.57206e-05
0.000450926
-1.37129e-05
3.0988e-05
0.000441455
-1.60543e-05
2.34679e-05
0.000428905
-9.42359e-06
5.22288e-06
0.000419434
-1.83297e-06
-8.52878e-06
0.000418744
-5.62127e-06
-8.43276e-06
0.000426389
-1.66137e-05
-1.08215e-06
0.000434278
-1.60551e-05
1.9573e-06
0.000434472
2.77158e-07
-2.98919e-06
0.000430818
1.0208e-05
-1.1519e-05
0.00043356
-9.2936e-06
-1.70568e-05
0.00044786
-5.09154e-05
-1.41372e-05
0.000463903
-7.40468e-05
-6.98885e-07
0.000464992
-5.40823e-05
1.97238e-05
0.000447963
-1.40661e-05
4.0548e-05
0.000425272
1.69056e-05
5.24179e-05
0.00040695
3.39453e-05
4.73227e-05
0.000392909
4.65508e-05
3.12211e-05
0.000382914
5.13722e-05
1.7969e-05
0.00037996
3.85658e-05
1.16418e-05
0.000385899
1.21873e-05
5.69924e-06
0.00039929
-1.05769e-05
-5.52831e-06
0.000413504
-1.50729e-05
-1.47214e-05
-6.59802e-06
-1.16919e-05
0.000455965
1.02092e-05
9.97318e-06
0.0004523
2.47297e-05
1.94369e-05
0.000457463
3.83732e-05
1.87983e-05
0.000474189
4.34795e-05
7.33408e-06
0.000496437
3.59946e-05
-1.27701e-05
0.000517233
2.35909e-05
-3.27445e-05
0.000537191
1.7311e-05
-5.15995e-05
0.000558381
1.21626e-05
-6.86124e-05
0.000573143
-5.82031e-06
-8.1599e-05
0.000571018
-3.16321e-05
-8.38243e-05
0.000553341
-4.02265e-05
-6.95214e-05
0.000531119
-2.05094e-05
-4.37433e-05
0.000512858
7.44906e-06
-2.06841e-05
0.000500954
1.97837e-05
-6.37947e-06
0.000495152
1.59728e-05
3.78427e-06
0.000493174
8.44453e-06
1.42245e-05
0.000490243
2.18827e-06
2.50584e-05
0.000484191
-4.10059e-06
2.99308e-05
0.000477917
-7.09174e-06
2.08524e-05
0.000476442
-1.79991e-06
4.94401e-07
0.000482427
3.05566e-06
-1.52294e-05
0.000491546
-6.8463e-06
-1.26786e-05
0.000494292
-2.5899e-05
3.29826e-06
0.000486764
-3.09196e-05
1.5414e-05
0.000475354
-1.14513e-05
1.59054e-05
0.000470894
1.13832e-05
1.2093e-05
0.000478302
9.16868e-06
8.5531e-06
0.000494137
-2.50068e-05
4.61456e-06
0.000509835
-5.89484e-05
6.31081e-06
0.000514517
-5.55146e-05
1.95424e-05
0.000502567
-1.61589e-05
3.86276e-05
0.000479905
2.52771e-05
4.93394e-05
0.000454085
4.8285e-05
4.26414e-05
0.000430934
5.59513e-05
2.87904e-05
0.000417257
5.50864e-05
2.39316e-05
0.000416652
4.45091e-05
2.77356e-05
0.00042621
2.44419e-05
2.68361e-05
0.000439976
3.59052e-06
1.5608e-05
0.000452462
-6.5815e-06
3.91699e-06
-2.01259e-06
1.54881e-06
0.000516602
2.16914e-05
9.27037e-06
0.000513375
3.22244e-05
2.52264e-05
0.000513303
4.50633e-05
3.61447e-05
0.000521975
5.31085e-05
3.08339e-05
0.00053723
4.53353e-05
1.08e-05
0.000556804
2.28069e-05
-1.17248e-05
0.000581774
1.5606e-06
-2.74445e-05
0.000610101
-7.11763e-06
-4.11365e-05
0.000630409
-8.69676e-06
-5.96397e-05
0.000632105
-1.32256e-05
-7.68734e-05
0.000619366
-1.64194e-05
-7.97839e-05
0.000604094
-6.48744e-06
-6.44631e-05
0.000591703
9.77195e-06
-3.98771e-05
0.000578772
1.90477e-05
-1.82171e-05
0.000563381
1.95732e-05
-3.0013e-06
0.000548158
1.74838e-05
7.71801e-06
0.000536042
1.22025e-05
1.7595e-05
0.000528856
1.52572e-06
2.65978e-05
0.000529837
-9.005e-06
2.88848e-05
0.000542653
-1.49516e-05
1.97525e-05
0.000564249
-1.94361e-05
5.21529e-06
0.00058151
-2.85121e-05
-9.69869e-07
0.000580013
-3.93853e-05
1.21089e-05
0.000559997
-3.8705e-05
3.72446e-05
0.000537346
-1.67174e-05
5.43786e-05
0.000528216
1.62887e-05
5.12996e-05
0.000534465
3.31127e-05
2.99833e-05
0.000548622
1.37551e-05
4.82994e-06
0.000561832
-2.62904e-05
-3.23204e-06
0.000565859
-4.466e-05
7.87364e-06
0.000552632
-1.89222e-05
2.77232e-05
0.000525485
2.67958e-05
4.1605e-05
0.000494613
5.91474e-05
4.07705e-05
0.000470669
7.12113e-05
3.06893e-05
0.00046017
7.09531e-05
2.56898e-05
0.000462513
6.17203e-05
2.91258e-05
0.000472487
4.43105e-05
3.16513e-05
0.000486142
2.52548e-05
2.51396e-05
0.00050107
1.41749e-05
1.20511e-05
1.4385e-05
3.74229e-06
0.000572473
2.7722e-05
2.19459e-05
0.000568129
3.23381e-05
3.24219e-05
0.000566433
3.69193e-05
4.22336e-05
0.00057386
3.74891e-05
4.55919e-05
0.000589154
2.77115e-05
3.57849e-05
0.000607649
7.36155e-06
1.27042e-05
0.00062784
-1.24815e-05
-1.44949e-05
0.000652608
-2.33778e-05
-3.57598e-05
0.000678631
-2.22684e-05
-4.99069e-05
0.000693449
-1.37621e-05
-6.11336e-05
0.000689672
-2.16127e-06
-6.97868e-05
0.000675081
1.17588e-05
-6.98454e-05
0.000661925
2.28526e-05
-5.88812e-05
0.000653701
2.51012e-05
-4.13415e-05
0.000645681
2.11687e-05
-2.41914e-05
0.000634017
1.74403e-05
-1.14677e-05
0.000618517
1.33183e-05
-1.7185e-06
0.000603546
4.92055e-06
9.0694e-06
0.000597689
-7.78092e-06
2.24299e-05
0.000607493
-2.48158e-05
3.13389e-05
0.0006287
-4.42941e-05
3.00091e-05
0.000646126
-5.85892e-05
2.23441e-05
0.000646034
-5.81325e-05
2.2387e-05
0.000629104
-4.0859e-05
3.93173e-05
0.000607588
-1.08431e-05
5.99952e-05
0.000592584
2.30844e-05
5.92666e-05
0.000586704
4.22393e-05
3.06525e-05
0.000589006
2.94223e-05
-5.48675e-06
0.000599427
-9.39699e-06
-2.32227e-05
0.00060878
-4.08318e-05
-1.22103e-05
0.000604841
-3.1395e-05
1.26117e-05
0.000583933
1.31195e-05
3.36302e-05
0.000558765
5.73094e-05
4.12746e-05
0.000543053
8.32374e-05
3.37094e-05
0.000540217
9.08844e-05
1.87252e-05
0.000544812
8.22052e-05
6.35336e-06
0.000550591
6.15978e-05
1.5276e-06
0.000556863
3.88943e-05