/*--------------------------------*- C++ -*----------------------------------*\
| =========                 |                                                 |
| \\      /  F ield         | OpenFOAM: The Open Source CFD Toolbox           |
|  \\    /   O peration     | Version:  2306                                  |
|   \\  /    A nd           | Website:  www.openfoam.com                      |
|    \\/     M anipulation  |                                                 |
\*---------------------------------------------------------------------------*/
FoamFile
{
    version     2.0;
    format      ascii;
    arch        "LSB;label=32;scalar=64";
    class       volScalarField;
    location    "6.5";
    object      pPrime2Mean;
}
// * * * * * * * * * * * * * * * * * * * * * * * * * * * * * * * * * * * * * //

dimensions      [0 4 -4 0 0 0 0];

internalField   nonuniform List<scalar> 
60000
(
4.18213e-09
9.35006e-09
1.98354e-08
2.98422e-08
3.517e-08
3.52718e-08
3.22407e-08
2.77534e-08
2.27974e-08
2.07728e-08
2.53931e-08
3.47756e-08
4.22331e-08
4.19295e-08
3.33217e-08
2.12682e-08
1.18821e-08
7.66561e-09
6.45476e-09
5.87315e-09
7.47814e-09
1.56591e-08
3.05331e-08
4.50243e-08
5.02191e-08
4.2818e-08
2.86161e-08
1.87995e-08
1.96624e-08
2.81327e-08
3.64842e-08
3.76392e-08
3.06494e-08
2.1557e-08
1.53828e-08
1.25626e-08
1.24548e-08
1.32633e-08
1.13373e-08
6.3987e-09
3.97802e-09
8.9833e-09
1.94965e-08
2.9685e-08
3.51861e-08
3.53147e-08
3.21864e-08
2.76001e-08
2.25889e-08
2.05524e-08
2.52469e-08
3.47632e-08
4.23311e-08
4.20999e-08
3.35238e-08
2.14532e-08
1.20093e-08
7.73143e-09
6.47871e-09
5.85221e-09
7.40066e-09
1.55424e-08
3.0424e-08
4.49518e-08
5.01965e-08
4.28158e-08
2.85981e-08
1.87435e-08
1.96071e-08
2.81503e-08
3.66574e-08
3.79911e-08
3.1074e-08
2.19126e-08
1.56236e-08
1.27009e-08
1.25304e-08
1.33358e-08
1.14228e-08
6.39877e-09
3.70591e-09
8.62849e-09
1.93136e-08
2.98263e-08
3.56001e-08
3.5766e-08
3.24575e-08
2.76463e-08
2.24461e-08
2.02383e-08
2.49213e-08
3.46432e-08
4.249e-08
4.24801e-08
3.39798e-08
2.18162e-08
1.21918e-08
7.7657e-09
6.4357e-09
5.75496e-09
7.26373e-09
1.54348e-08
3.04281e-08
4.50736e-08
5.03577e-08
4.28755e-08
2.84775e-08
1.849e-08
1.93718e-08
2.80824e-08
3.68762e-08
3.84896e-08
3.16671e-08
2.2388e-08
1.5914e-08
1.28019e-08
1.25116e-08
1.33331e-08
1.14694e-08
6.34407e-09
3.36118e-09
8.29291e-09
1.93229e-08
3.03321e-08
3.65016e-08
3.67404e-08
3.3166e-08
2.79837e-08
2.24364e-08
1.98767e-08
2.44132e-08
3.43777e-08
4.26765e-08
4.30638e-08
3.47181e-08
2.23991e-08
1.24519e-08
7.76919e-09
6.31175e-09
5.55908e-09
7.07518e-09
1.53946e-08
3.06394e-08
4.54785e-08
5.07452e-08
4.29756e-08
2.82001e-08
1.79967e-08
1.89956e-08
2.8023e-08
3.72107e-08
3.91429e-08
3.2403e-08
2.29679e-08
1.62724e-08
1.28854e-08
1.24008e-08
1.3259e-08
1.14826e-08
6.23324e-09
2.94592e-09
7.88677e-09
1.93487e-08
3.09917e-08
3.77171e-08
3.81521e-08
3.43299e-08
2.87003e-08
2.27123e-08
1.96505e-08
2.37999e-08
3.38578e-08
4.26605e-08
4.36208e-08
3.56171e-08
2.32157e-08
1.28602e-08
7.78478e-09
6.12741e-09
5.27431e-09
6.81183e-09
1.53557e-08
3.09248e-08
4.60189e-08
5.13866e-08
4.33562e-08
2.80958e-08
1.75607e-08
1.86992e-08
2.81709e-08
3.77889e-08
3.9958e-08
3.31918e-08
2.35948e-08
1.67557e-08
1.31004e-08
1.23508e-08
1.32302e-08
1.15436e-08
6.11981e-09
2.48181e-09
7.36177e-09
1.92749e-08
3.16779e-08
3.90284e-08
3.97947e-08
3.5804e-08
2.97396e-08
2.33225e-08
1.97837e-08
2.33862e-08
3.32093e-08
4.23131e-08
4.38502e-08
3.63868e-08
2.41452e-08
1.3456e-08
7.8936e-09
5.90869e-09
4.85003e-09
6.36618e-09
1.51694e-08
3.10357e-08
4.62511e-08
5.17377e-08
4.3768e-08
2.83388e-08
1.77334e-08
1.91437e-08
2.9002e-08
3.89589e-08
4.11709e-08
3.40866e-08
2.42163e-08
1.73256e-08
1.35325e-08
1.256e-08
1.3509e-08
1.18861e-08
6.12357e-09
2.13771e-09
6.32444e-09
1.85492e-08
3.19483e-08
4.07234e-08
4.22157e-08
3.79508e-08
3.10424e-08
2.39829e-08
2.02514e-08
2.35301e-08
3.2916e-08
4.1896e-08
4.37115e-08
3.67691e-08
2.49392e-08
1.41618e-08
8.13922e-09
5.72145e-09
4.28784e-09
5.58718e-09
1.46767e-08
3.11587e-08
4.66876e-08
5.20213e-08
4.37457e-08
2.80596e-08
1.78706e-08
2.03006e-08
3.12451e-08
4.16823e-08
4.35423e-08
3.55781e-08
2.48985e-08
1.77984e-08
1.40354e-08
1.30365e-08
1.42339e-08
1.30545e-08
6.91729e-09
2.30897e-09
4.88104e-09
1.69238e-08
3.13068e-08
4.18887e-08
4.51408e-08
4.12066e-08
3.32545e-08
2.49036e-08
2.04557e-08
2.39737e-08
3.35958e-08
4.22972e-08
4.36995e-08
3.67943e-08
2.53915e-08
1.47929e-08
8.48754e-09
5.61568e-09
3.67645e-09
4.60056e-09
1.41687e-08
3.18612e-08
4.80266e-08
5.26817e-08
4.29805e-08
2.61729e-08
1.62024e-08
2.04028e-08
3.35032e-08
4.52436e-08
4.7346e-08
3.84948e-08
2.64791e-08
1.83777e-08
1.4045e-08
1.30318e-08
1.49191e-08
1.48661e-08
8.73787e-09
3.28057e-09
3.46067e-09
1.47487e-08
3.00552e-08
4.26053e-08
4.82277e-08
4.52603e-08
3.64979e-08
2.65347e-08
2.07787e-08
2.36015e-08
3.38466e-08
4.35548e-08
4.5004e-08
3.74494e-08
2.56551e-08
1.51456e-08
8.80528e-09
5.5404e-09
3.12773e-09
3.87688e-09
1.44538e-08
3.42022e-08
5.12057e-08
5.40833e-08
4.12647e-08
2.21496e-08
1.20444e-08
1.839e-08
3.47175e-08
4.91046e-08
5.17913e-08
4.15122e-08
2.77674e-08
1.89927e-08
1.4318e-08
1.30733e-08
1.54177e-08
1.68013e-08
1.13899e-08
5.19968e-09
2.35661e-09
1.20394e-08
2.79972e-08
4.25676e-08
5.11435e-08
5.01907e-08
4.07657e-08
2.88971e-08
2.12761e-08
2.28321e-08
3.2467e-08
4.27248e-08
4.53929e-08
3.88008e-08
2.72222e-08
1.62321e-08
9.21788e-09
5.46659e-09
2.60367e-09
3.63227e-09
1.62955e-08
3.94871e-08
5.79736e-08
5.84598e-08
4.10226e-08
1.80731e-08
6.6885e-09
1.43845e-08
3.3882e-08
5.18126e-08
5.65952e-08
4.55583e-08
2.94457e-08
1.9614e-08
1.45816e-08
1.32607e-08
1.60124e-08
1.87813e-08
1.45926e-08
7.88462e-09
1.89242e-09
8.70988e-09
2.42598e-08
4.04357e-08
5.25886e-08
5.52029e-08
4.66975e-08
3.27052e-08
2.2233e-08
2.16391e-08
2.99877e-08
3.98936e-08
4.32302e-08
3.81525e-08
2.8393e-08
1.8481e-08
1.08317e-08
5.81683e-09
2.1942e-09
3.7996e-09
1.95643e-08
4.79577e-08
6.95728e-08
6.81201e-08
4.5717e-08
1.7938e-08
3.19511e-09
9.45697e-09
2.95537e-08
5.03315e-08
5.88997e-08
5.00134e-08
3.31126e-08
2.23138e-08
1.62193e-08
1.38748e-08
1.62732e-08
1.99304e-08
1.744e-08
9.82775e-09
2.07277e-09
5.30382e-09
1.886e-08
3.52101e-08
5.02626e-08
5.7888e-08
5.29103e-08
3.80489e-08
2.44454e-08
2.10836e-08
2.74546e-08
3.59642e-08
3.88494e-08
3.45321e-08
2.68743e-08
1.92246e-08
1.28114e-08
7.30143e-09
2.79994e-09
4.60288e-09
2.26478e-08
5.56725e-08
8.11134e-08
7.95872e-08
5.45836e-08
2.32372e-08
3.44023e-09
4.83784e-09
2.1859e-08
4.28283e-08
5.59712e-08
5.26759e-08
3.84882e-08
2.7388e-08
2.00154e-08
1.57844e-08
1.64324e-08
1.94549e-08
1.82913e-08
1.04447e-08
2.41681e-09
2.56179e-09
1.28823e-08
2.77483e-08
4.36286e-08
5.56722e-08
5.63016e-08
4.35341e-08
2.74444e-08
2.13568e-08
2.58602e-08
3.30436e-08
3.47455e-08
2.96004e-08
2.2672e-08
1.72597e-08
1.31854e-08
9.26009e-09
5.53964e-09
7.15194e-09
2.38735e-08
5.61265e-08
8.32139e-08
8.42634e-08
6.13339e-08
3.0349e-08
6.97085e-09
1.69995e-09
1.31232e-08
3.14036e-08
4.74403e-08
5.14295e-08
4.34957e-08
3.31957e-08
2.49512e-08
1.90861e-08
1.76804e-08
1.848e-08
1.72486e-08
1.00423e-08
2.99584e-09
1.26846e-09
7.75697e-09
1.98929e-08
3.46461e-08
4.87938e-08
5.45174e-08
4.59325e-08
3.00471e-08
2.18506e-08
2.50799e-08
3.19629e-08
3.36373e-08
2.77731e-08
2.00734e-08
1.51024e-08
1.24221e-08
1.04263e-08
8.79642e-09
1.07616e-08
2.36763e-08
5.08484e-08
7.74879e-08
8.22942e-08
6.40941e-08
3.62438e-08
1.22376e-08
1.3575e-09
6.35166e-09
2.0458e-08
3.68264e-08
4.68431e-08
4.55595e-08
3.78157e-08
2.94362e-08
2.23084e-08
1.8784e-08
1.76149e-08
1.55994e-08
9.93247e-09
4.82336e-09
2.03042e-09
4.52834e-09
1.30907e-08
2.57653e-08
3.96736e-08
4.82519e-08
4.42212e-08
3.09354e-08
2.2167e-08
2.43764e-08
3.1383e-08
3.44409e-08
2.99144e-08
2.18755e-08
1.56904e-08
1.23749e-08
1.03175e-08
9.43689e-09
1.17082e-08
2.16423e-08
4.30906e-08
6.76428e-08
7.67888e-08
6.39442e-08
4.07529e-08
1.82154e-08
3.61283e-09
2.99432e-09
1.32143e-08
2.80119e-08
4.04326e-08
4.48398e-08
4.06437e-08
3.28465e-08
2.51394e-08
1.99131e-08
1.69901e-08
1.42541e-08
1.04887e-08
7.43022e-09
4.64534e-09
4.01342e-09
8.47174e-09
1.84204e-08
3.04867e-08
3.92212e-08
3.83822e-08
2.91144e-08
2.21423e-08
2.41435e-08
3.08093e-08
3.45185e-08
3.18943e-08
2.49061e-08
1.81798e-08
1.36798e-08
1.03655e-08
8.98135e-09
1.20123e-08
2.05258e-08
3.62142e-08
5.57964e-08
6.61964e-08
5.86433e-08
4.18773e-08
2.3808e-08
7.9816e-09
2.50897e-09
8.8897e-09
2.11795e-08
3.35829e-08
4.11624e-08
4.16542e-08
3.66702e-08
2.87251e-08
2.12982e-08
1.65972e-08
1.35383e-08
1.11413e-08
9.76301e-09
7.76478e-09
5.89867e-09
7.61279e-09
1.41542e-08
2.29011e-08
2.95398e-08
3.00894e-08
2.48569e-08
2.08016e-08
2.37066e-08
3.08469e-08
3.52934e-08
3.3326e-08
2.65487e-08
1.9731e-08
1.50665e-08
1.14174e-08
9.95369e-09
1.38622e-08
2.18492e-08
3.22315e-08
4.50142e-08
5.32678e-08
4.95034e-08
3.80261e-08
2.53865e-08
1.24991e-08
4.66979e-09
6.8346e-09
1.65604e-08
2.84702e-08
3.7454e-08
4.04482e-08
3.77444e-08
3.10786e-08
2.32251e-08
1.73702e-08
1.34918e-08
1.04222e-08
1.12658e-08
1.14308e-08
1.0125e-08
9.8348e-09
1.26155e-08
1.70334e-08
2.01114e-08
2.05302e-08
1.90692e-08
1.91248e-08
2.35444e-08
3.12109e-08
3.6429e-08
3.51252e-08
2.85151e-08
2.13177e-08
1.56561e-08
1.1489e-08
1.04454e-08
1.51165e-08
2.30316e-08
3.09522e-08
3.94903e-08
4.56014e-08
4.27725e-08
3.39141e-08
2.38627e-08
1.41051e-08
7.1849e-09
8.13226e-09
1.63481e-08
2.78856e-08
3.76471e-08
4.13822e-08
3.77224e-08
2.93415e-08
2.09513e-08
1.50401e-08
1.16421e-08
9.65017e-09
1.22024e-08
1.41749e-08
1.43149e-08
1.44281e-08
1.55279e-08
1.63393e-08
1.53913e-08
1.29399e-08
1.19394e-08
1.45866e-08
2.1133e-08
2.98183e-08
3.67392e-08
3.76872e-08
3.31109e-08
2.66367e-08
2.04133e-08
1.4967e-08
1.20742e-08
1.44417e-08
2.00533e-08
2.56522e-08
3.2592e-08
3.97129e-08
4.01387e-08
3.27124e-08
2.32784e-08
1.44241e-08
7.92711e-09
8.62457e-09
1.65139e-08
2.81858e-08
3.80506e-08
4.09906e-08
3.67719e-08
2.83694e-08
1.90939e-08
1.22187e-08
9.17519e-09
9.22754e-09
1.19043e-08
1.48503e-08
1.65895e-08
1.75486e-08
1.81534e-08
1.79621e-08
1.6234e-08
1.35396e-08
1.15225e-08
1.17837e-08
1.498e-08
2.11131e-08
2.80384e-08
3.25482e-08
3.28132e-08
3.05072e-08
2.78887e-08
2.42694e-08
1.95997e-08
1.68589e-08
1.71666e-08
1.92543e-08
2.52153e-08
3.4218e-08
3.89554e-08
3.47983e-08
2.56274e-08
1.54419e-08
8.36394e-09
7.51271e-09
1.45875e-08
2.61865e-08
3.66344e-08
4.04096e-08
3.65682e-08
2.81652e-08
1.88755e-08
1.19309e-08
8.77765e-09
7.37168e-09
9.10688e-09
1.29539e-08
1.74457e-08
2.18511e-08
2.42107e-08
2.27021e-08
1.83337e-08
1.39588e-08
1.15116e-08
1.16364e-08
1.37382e-08
1.70984e-08
2.13091e-08
2.58514e-08
2.91814e-08
3.04244e-08
3.04537e-08
2.90244e-08
2.51136e-08
2.04028e-08
1.74205e-08
1.7466e-08
2.28264e-08
3.30515e-08
4.04565e-08
3.78559e-08
2.6759e-08
1.40407e-08
5.6633e-09
5.28309e-09
1.43967e-08
2.90837e-08
4.26843e-08
4.84819e-08
4.34745e-08
3.25706e-08
2.18121e-08
1.38341e-08
8.95122e-09
1.19117e-08
1.10366e-08
1.10246e-08
1.21605e-08
1.53753e-08
1.92381e-08
2.09553e-08
1.93719e-08
1.59452e-08
1.29987e-08
1.24383e-08
1.40754e-08
1.67099e-08
1.91976e-08
2.16494e-08
2.45462e-08
2.7197e-08
2.94628e-08
3.06379e-08
2.8854e-08
2.43517e-08
2.00647e-08
1.82601e-08
2.1234e-08
2.95566e-08
3.79514e-08
3.8694e-08
3.00159e-08
1.66493e-08
5.6458e-09
2.93983e-09
1.20804e-08
2.88086e-08
4.66255e-08
5.64273e-08
5.28324e-08
3.94083e-08
2.57338e-08
1.71968e-08
1.3516e-08
1.45359e-08
1.37557e-08
1.29673e-08
1.22903e-08
1.20825e-08
1.35441e-08
1.54991e-08
1.66216e-08
1.66123e-08
1.62134e-08
1.60974e-08
1.69611e-08
1.85453e-08
2.01387e-08
2.17384e-08
2.34243e-08
2.4949e-08
2.60545e-08
2.67182e-08
2.6349e-08
2.4262e-08
2.13688e-08
1.92751e-08
2.01331e-08
2.50684e-08
3.11338e-08
3.23074e-08
2.61901e-08
1.6442e-08
7.9177e-09
4.53032e-09
9.62299e-09
2.17907e-08
3.56761e-08
4.47534e-08
4.47797e-08
3.74389e-08
2.82605e-08
2.08063e-08
1.63517e-08
1.61742e-08
1.25103e-08
9.67597e-09
8.76424e-09
1.01126e-08
1.39035e-08
1.86135e-08
2.22922e-08
2.35514e-08
2.26581e-08
2.08974e-08
1.89786e-08
1.72507e-08
1.66992e-08
1.83922e-08
2.18668e-08
2.5638e-08
2.85284e-08
2.94128e-08
2.79851e-08
2.4257e-08
2.01804e-08
1.73711e-08
1.63995e-08
1.86236e-08
2.37713e-08
2.77002e-08
2.62678e-08
2.00619e-08
1.27608e-08
8.39746e-09
9.91952e-09
1.74673e-08
2.7903e-08
3.62655e-08
3.89409e-08
3.60958e-08
3.06479e-08
2.50062e-08
2.02178e-08
1.80702e-08
1.34238e-08
9.46009e-09
7.48645e-09
8.53754e-09
1.28247e-08
1.87003e-08
2.39594e-08
2.64823e-08
2.63074e-08
2.43762e-08
2.22433e-08
2.06989e-08
2.00242e-08
2.03828e-08
2.23385e-08
2.57957e-08
2.89952e-08
3.08524e-08
3.04581e-08
2.66365e-08
2.03551e-08
1.42389e-08
1.06328e-08
1.13789e-08
1.67937e-08
2.37006e-08
2.73846e-08
2.56825e-08
2.02221e-08
1.53463e-08
1.35711e-08
1.62794e-08
2.33207e-08
3.056e-08
3.49974e-08
3.5645e-08
3.25216e-08
2.76605e-08
2.2674e-08
4.14175e-09
3.56014e-15
4.34912e-09
1.60598e-08
3.09046e-08
4.20668e-08
4.47172e-08
3.89788e-08
2.9449e-08
2.3604e-08
2.65129e-08
3.4699e-08
3.97864e-08
3.70931e-08
2.82751e-08
1.85655e-08
1.24887e-08
1.07088e-08
1.04242e-08
9.06637e-09
8.63962e-09
1.52605e-08
3.21648e-08
5.36078e-08
6.74007e-08
6.35585e-08
4.44413e-08
2.58349e-08
1.86567e-08
1.97301e-08
2.31826e-08
2.62362e-08
2.6991e-08
2.3718e-08
1.78305e-08
1.38101e-08
1.48771e-08
1.88012e-08
1.96448e-08
1.3371e-08
4.33765e-09
4.42406e-12
4.07494e-09
1.55349e-08
3.0324e-08
4.16247e-08
4.44741e-08
3.88581e-08
2.93514e-08
2.34891e-08
2.64325e-08
3.47289e-08
3.99231e-08
3.72695e-08
2.8426e-08
1.86779e-08
1.25642e-08
1.07591e-08
1.04645e-08
9.07824e-09
8.54592e-09
1.49541e-08
3.16004e-08
5.29146e-08
6.68767e-08
6.34408e-08
4.46505e-08
2.61074e-08
1.88954e-08
1.99319e-08
2.33316e-08
2.63766e-08
2.72404e-08
2.40952e-08
1.8212e-08
1.40993e-08
1.50847e-08
1.90029e-08
1.9893e-08
1.3641e-08
4.63381e-09
2.77254e-11
3.84666e-09
1.51842e-08
3.01335e-08
4.17523e-08
4.4787e-08
3.91183e-08
2.93984e-08
2.33258e-08
2.62544e-08
3.47292e-08
4.01177e-08
3.75343e-08
2.86547e-08
1.88271e-08
1.26443e-08
1.08107e-08
1.05161e-08
9.08834e-09
8.42485e-09
1.46521e-08
3.11584e-08
5.24992e-08
6.6703e-08
6.35889e-08
4.49249e-08
2.6296e-08
1.90396e-08
2.00431e-08
2.33362e-08
2.63325e-08
2.74031e-08
2.45383e-08
1.87139e-08
1.44298e-08
1.52752e-08
1.92576e-08
2.03238e-08
1.41212e-08
5.05027e-09
1.04049e-10
3.75464e-09
1.51431e-08
3.04987e-08
4.26204e-08
4.58217e-08
3.98878e-08
2.96686e-08
2.31333e-08
2.59193e-08
3.46191e-08
4.03136e-08
3.78641e-08
2.89394e-08
1.89903e-08
1.27061e-08
1.08411e-08
1.05648e-08
9.0938e-09
8.30738e-09
1.44788e-08
3.10799e-08
5.26545e-08
6.70867e-08
6.40105e-08
4.51159e-08
2.62154e-08
1.89716e-08
2.00449e-08
2.32396e-08
2.61008e-08
2.73752e-08
2.49046e-08
1.92444e-08
1.47995e-08
1.54998e-08
1.96445e-08
2.10362e-08
1.48726e-08
5.70019e-09
3.08687e-10
3.82526e-09
1.53671e-08
3.1348e-08
4.41967e-08
4.76257e-08
4.12769e-08
3.0339e-08
2.30917e-08
2.54968e-08
3.43043e-08
4.03299e-08
3.80942e-08
2.91791e-08
1.91276e-08
1.27462e-08
1.08536e-08
1.05925e-08
9.07212e-09
8.18369e-09
1.44225e-08
3.13341e-08
5.33176e-08
6.7955e-08
6.47714e-08
4.54317e-08
2.60648e-08
1.88206e-08
2.00842e-08
2.32286e-08
2.5808e-08
2.70716e-08
2.49293e-08
1.95517e-08
1.51369e-08
1.58513e-08
2.0331e-08
2.21974e-08
1.60526e-08
6.79749e-09
7.64845e-10
4.02227e-09
1.56362e-08
3.2329e-08
4.61966e-08
5.00551e-08
4.32659e-08
3.15108e-08
2.34953e-08
2.53393e-08
3.3946e-08
4.00953e-08
3.80269e-08
2.9189e-08
1.91502e-08
1.27542e-08
1.08711e-08
1.063e-08
9.01156e-09
7.94836e-09
1.42112e-08
3.1415e-08
5.37977e-08
6.88488e-08
6.59642e-08
4.6513e-08
2.66384e-08
1.92386e-08
2.06706e-08
2.3737e-08
2.5822e-08
2.66642e-08
2.44696e-08
1.9326e-08
1.52399e-08
1.63831e-08
2.15494e-08
2.41237e-08
1.79632e-08
8.83768e-09
1.7022e-09
4.38565e-09
1.56605e-08
3.28717e-08
4.8073e-08
5.27515e-08
4.56153e-08
3.29709e-08
2.42997e-08
2.57592e-08
3.40431e-08
3.99901e-08
3.77871e-08
2.88879e-08
1.89183e-08
1.26583e-08
1.08916e-08
1.07033e-08
8.90017e-09
7.37722e-09
1.33346e-08
3.07329e-08
5.37237e-08
6.95909e-08
6.75469e-08
4.83458e-08
2.80526e-08
2.07054e-08
2.26479e-08
2.57473e-08
2.69702e-08
2.68208e-08
2.38972e-08
1.84938e-08
1.48354e-08
1.69837e-08
2.34993e-08
2.72531e-08
2.11945e-08
1.20824e-08
3.25496e-09
4.77005e-09
1.50028e-08
3.23023e-08
4.91756e-08
5.55787e-08
4.84933e-08
3.48447e-08
2.50223e-08
2.58218e-08
3.41109e-08
4.0266e-08
3.80229e-08
2.87697e-08
1.85333e-08
1.23411e-08
1.07933e-08
1.07609e-08
8.74776e-09
6.42575e-09
1.15979e-08
2.91202e-08
5.32352e-08
7.06894e-08
6.96836e-08
5.05757e-08
2.95336e-08
2.22193e-08
2.54329e-08
2.93116e-08
2.97965e-08
2.83675e-08
2.43205e-08
1.79775e-08
1.41083e-08
1.73357e-08
2.5743e-08
3.12675e-08
2.56899e-08
1.62667e-08
5.46347e-09
5.29719e-09
1.36688e-08
3.01294e-08
4.87326e-08
5.79991e-08
5.21099e-08
3.75858e-08
2.62419e-08
2.54527e-08
3.28583e-08
3.92414e-08
3.79281e-08
2.9299e-08
1.89188e-08
1.22065e-08
1.04837e-08
1.06049e-08
8.54331e-09
5.47553e-09
9.56013e-09
2.67585e-08
5.13874e-08
6.9575e-08
6.91423e-08
5.03344e-08
2.9505e-08
2.28425e-08
2.79454e-08
3.36253e-08
3.36675e-08
3.05306e-08
2.53214e-08
1.8493e-08
1.43048e-08
1.78161e-08
2.73377e-08
3.47443e-08
3.05605e-08
2.08439e-08
8.38366e-09
6.22284e-09
1.23988e-08
2.70125e-08
4.66969e-08
5.9427e-08
5.62559e-08
4.13151e-08
2.80344e-08
2.53956e-08
3.13529e-08
3.7223e-08
3.64668e-08
2.91896e-08
1.9888e-08
1.30708e-08
1.05911e-08
1.02879e-08
8.25561e-09
4.99426e-09
8.4186e-09
2.52207e-08
4.96985e-08
6.68847e-08
6.50177e-08
4.56557e-08
2.58687e-08
2.14128e-08
2.94498e-08
3.82024e-08
3.93567e-08
3.44792e-08
2.70729e-08
1.91475e-08
1.48079e-08
1.88039e-08
2.87138e-08
3.70212e-08
3.47066e-08
2.51167e-08
1.16689e-08
7.26487e-09
1.134e-08
2.36296e-08
4.35655e-08
5.9882e-08
6.01183e-08
4.58529e-08
3.03418e-08
2.5396e-08
2.98494e-08
3.48613e-08
3.40695e-08
2.78019e-08
2.00934e-08
1.41859e-08
1.14335e-08
1.04255e-08
8.08559e-09
5.07365e-09
8.88529e-09
2.61273e-08
5.04443e-08
6.53863e-08
6.01861e-08
3.92083e-08
2.0209e-08
1.74791e-08
2.85831e-08
4.14026e-08
4.56301e-08
4.07174e-08
3.16102e-08
2.18857e-08
1.61575e-08
1.94592e-08
2.89333e-08
3.7277e-08
3.70878e-08
2.75196e-08
1.40885e-08
7.47076e-09
9.51265e-09
1.96184e-08
3.8591e-08
5.80725e-08
6.31166e-08
5.05907e-08
3.31882e-08
2.54262e-08
2.84073e-08
3.29037e-08
3.18742e-08
2.59182e-08
1.93346e-08
1.4687e-08
1.2343e-08
1.10387e-08
8.52878e-09
6.07887e-09
1.1096e-08
2.96214e-08
5.44795e-08
6.7445e-08
5.86368e-08
3.58119e-08
1.67988e-08
1.30162e-08
2.41375e-08
3.991e-08
4.84359e-08
4.62535e-08
3.74039e-08
2.68688e-08
1.98537e-08
2.15563e-08
2.93695e-08
3.60836e-08
3.69269e-08
2.73825e-08
1.49223e-08
6.69762e-09
6.83639e-09
1.50036e-08
3.17593e-08
5.21336e-08
6.19018e-08
5.3919e-08
3.66804e-08
2.63681e-08
2.80498e-08
3.23287e-08
3.09625e-08
2.4351e-08
1.79462e-08
1.44506e-08
1.30559e-08
1.20012e-08
9.8112e-09
8.30363e-09
1.40622e-08
3.25721e-08
5.74296e-08
7.01504e-08
5.90765e-08
3.65877e-08
1.78659e-08
1.12479e-08
1.81565e-08
3.29565e-08
4.46377e-08
4.72938e-08
4.198e-08
3.31665e-08
2.54848e-08
2.46038e-08
2.9677e-08
3.39371e-08
3.45669e-08
2.50959e-08
1.41686e-08
5.19581e-09
3.80611e-09
1.01642e-08
2.41993e-08
4.34432e-08
5.62734e-08
5.35288e-08
3.9295e-08
2.85356e-08
2.88936e-08
3.31497e-08
3.18468e-08
2.4694e-08
1.75825e-08
1.42407e-08
1.35562e-08
1.30817e-08
1.15737e-08
1.0637e-08
1.52546e-08
3.07822e-08
5.32965e-08
6.68163e-08
5.7675e-08
3.81263e-08
2.11514e-08
1.23066e-08
1.39485e-08
2.44876e-08
3.57907e-08
4.19848e-08
4.19859e-08
3.79037e-08
3.168e-08
2.80875e-08
2.89253e-08
3.04299e-08
3.053e-08
2.18685e-08
1.29942e-08
4.11192e-09
1.25301e-09
5.82956e-09
1.73264e-08
3.42921e-08
4.83657e-08
5.011e-08
4.03927e-08
3.08493e-08
3.01214e-08
3.39347e-08
3.37707e-08
2.77727e-08
2.03016e-08
1.52834e-08
1.30119e-08
1.16539e-08
1.05961e-08
1.09923e-08
1.53706e-08
2.78179e-08
4.7321e-08
6.10468e-08
5.62984e-08
3.9682e-08
2.38715e-08
1.37472e-08
1.15206e-08
1.79955e-08
2.77022e-08
3.54328e-08
3.942e-08
3.91645e-08
3.51037e-08
3.03837e-08
2.82604e-08
2.74641e-08
2.60356e-08
1.77609e-08
1.17613e-08
4.37214e-09
1.43365e-10
2.35272e-09
1.10726e-08
2.46702e-08
3.78978e-08
4.29317e-08
3.85629e-08
3.20054e-08
3.13781e-08
3.5181e-08
3.58042e-08
3.07099e-08
2.31775e-08
1.63622e-08
1.22635e-08
9.84677e-09
9.06433e-09
1.1411e-08
1.71984e-08
2.7792e-08
4.35901e-08
5.62365e-08
5.41436e-08
4.05487e-08
2.65901e-08
1.55543e-08
1.01572e-08
1.36094e-08
2.25197e-08
3.13844e-08
3.76863e-08
4.02413e-08
3.78755e-08
3.20082e-08
2.66905e-08
2.36282e-08
2.09578e-08
1.53028e-08
1.15313e-08
5.90934e-09
1.87539e-09
2.58898e-09
7.70316e-09
1.55681e-08
2.38877e-08
2.90157e-08
3.03781e-08
3.06933e-08
3.34649e-08
3.81117e-08
3.89393e-08
3.34455e-08
2.50108e-08
1.72897e-08
1.26453e-08
9.98088e-09
8.97331e-09
1.21335e-08
1.91892e-08
2.86319e-08
4.03212e-08
5.01472e-08
4.89507e-08
3.78521e-08
2.61567e-08
1.6647e-08
1.05285e-08
1.15431e-08
1.92312e-08
2.87611e-08
3.6387e-08
4.02169e-08
3.89644e-08
3.3098e-08
2.61355e-08
2.10055e-08
1.7624e-08
1.3927e-08
1.2951e-08
9.9807e-09
6.92083e-09
6.99117e-09
9.36651e-09
1.20933e-08
1.40175e-08
1.57048e-08
1.8901e-08
2.50888e-08
3.35577e-08
4.08691e-08
4.28492e-08
3.71841e-08
2.71718e-08
1.76779e-08
1.25984e-08
1.03768e-08
9.73651e-09
1.29264e-08
1.99635e-08
2.8573e-08
3.82277e-08
4.65011e-08
4.59922e-08
3.60924e-08
2.46958e-08
1.57528e-08
1.01716e-08
1.08982e-08
1.78403e-08
2.73082e-08
3.52353e-08
3.9504e-08
3.84239e-08
3.17513e-08
2.34151e-08
1.74043e-08
1.45704e-08
1.31567e-08
1.48584e-08
1.46721e-08
1.34484e-08
1.38471e-08
1.51891e-08
1.43653e-08
1.09338e-08
7.92555e-09
8.95132e-09
1.49547e-08
2.50049e-08
3.59526e-08
4.23159e-08
4.06747e-08
3.2745e-08
2.32558e-08
1.62952e-08
1.2446e-08
1.07743e-08
1.27826e-08
1.86254e-08
2.5825e-08
3.42383e-08
4.28536e-08
4.48787e-08
3.66844e-08
2.48852e-08
1.51591e-08
9.72758e-09
1.03361e-08
1.67231e-08
2.59984e-08
3.40509e-08
3.76252e-08
3.60503e-08
2.98942e-08
2.14832e-08
1.46616e-08
1.2113e-08
1.25949e-08
1.51729e-08
1.71307e-08
1.74605e-08
1.69535e-08
1.61759e-08
1.48951e-08
1.22797e-08
9.35567e-09
8.02005e-09
9.63649e-09
1.50775e-08
2.35034e-08
3.14013e-08
3.51248e-08
3.35317e-08
2.88414e-08
2.4286e-08
2.037e-08
1.62438e-08
1.35782e-08
1.45567e-08
1.93605e-08
2.73151e-08
3.73356e-08
4.31131e-08
3.89701e-08
2.78164e-08
1.64037e-08
1.00867e-08
1.05545e-08
1.68725e-08
2.57547e-08
3.2783e-08
3.46934e-08
3.18309e-08
2.60172e-08
1.91528e-08
1.3539e-08
1.1495e-08
1.06838e-08
1.30654e-08
1.59711e-08
1.85948e-08
2.0976e-08
2.17628e-08
1.92356e-08
1.45216e-08
1.01819e-08
7.95152e-09
8.15587e-09
1.08831e-08
1.57676e-08
2.18845e-08
2.74588e-08
3.09723e-08
3.20155e-08
3.12563e-08
2.85932e-08
2.35664e-08
1.79858e-08
1.56758e-08
1.83835e-08
2.52444e-08
3.41867e-08
3.95358e-08
3.58194e-08
2.50032e-08
1.41766e-08
8.15945e-09
9.76422e-09
1.78458e-08
2.87219e-08
3.7103e-08
3.83191e-08
3.36145e-08
2.63906e-08
1.95167e-08
1.3915e-08
1.06665e-08
1.44286e-08
1.47185e-08
1.4488e-08
1.48381e-08
1.6693e-08
1.86486e-08
1.83716e-08
1.55277e-08
1.20715e-08
9.92926e-09
9.93337e-09
1.16712e-08
1.41159e-08
1.65815e-08
1.93277e-08
2.26877e-08
2.65127e-08
2.98868e-08
3.19935e-08
3.10609e-08
2.71863e-08
2.33712e-08
2.23833e-08
2.47734e-08
2.99464e-08
3.41977e-08
3.25927e-08
2.45561e-08
1.44728e-08
7.24035e-09
7.17965e-09
1.4975e-08
2.73256e-08
3.84399e-08
4.27412e-08
3.85537e-08
2.96987e-08
2.14681e-08
1.63281e-08
1.44495e-08
1.54849e-08
1.53306e-08
1.51468e-08
1.45081e-08
1.42749e-08
1.50331e-08
1.54007e-08
1.46419e-08
1.31036e-08
1.23071e-08
1.33876e-08
1.60479e-08
1.87118e-08
2.00623e-08
1.99912e-08
1.96158e-08
1.99328e-08
2.14225e-08
2.35366e-08
2.50005e-08
2.44107e-08
2.27859e-08
2.20791e-08
2.36373e-08
2.79513e-08
3.20453e-08
3.15847e-08
2.50525e-08
1.60852e-08
9.29233e-09
7.72769e-09
1.26956e-08
2.26682e-08
3.31635e-08
3.89592e-08
3.77177e-08
3.1903e-08
2.517e-08
2.00188e-08
1.67698e-08
1.66872e-08
1.42259e-08
1.21718e-08
1.09417e-08
1.10474e-08
1.29546e-08
1.56598e-08
1.79572e-08
1.90363e-08
1.90244e-08
1.87002e-08
1.83165e-08
1.80187e-08
1.80159e-08
1.91491e-08
2.14083e-08
2.38698e-08
2.55011e-08
2.57065e-08
2.43724e-08
2.20651e-08
1.95874e-08
1.8393e-08
1.88878e-08
2.11313e-08
2.46135e-08
2.6739e-08
2.46377e-08
1.88318e-08
1.29469e-08
1.03535e-08
1.26307e-08
1.94258e-08
2.82074e-08
3.46598e-08
3.5854e-08
3.25571e-08
2.78998e-08
2.35188e-08
1.97768e-08
1.84622e-08
1.36724e-08
9.54045e-09
7.32411e-09
8.00303e-09
1.16605e-08
1.6899e-08
2.19112e-08
2.4822e-08
2.53539e-08
2.43138e-08
2.28758e-08
2.14039e-08
2.04667e-08
2.04782e-08
2.20014e-08
2.48395e-08
2.7453e-08
2.8745e-08
2.8129e-08
2.48412e-08
1.93508e-08
1.43696e-08
1.21256e-08
1.34823e-08
1.80079e-08
2.32862e-08
2.55342e-08
2.34964e-08
1.94857e-08
1.60995e-08
1.52435e-08
1.76678e-08
2.29376e-08
2.82106e-08
3.13342e-08
3.17437e-08
3.01513e-08
2.69851e-08
2.30786e-08
6.00905e-09
2.87489e-09
2.2718e-09
5.82147e-09
1.38938e-08
2.46017e-08
3.31298e-08
3.47779e-08
2.91207e-08
2.19971e-08
2.072e-08
2.58655e-08
3.10974e-08
3.07026e-08
2.48759e-08
1.82239e-08
1.45155e-08
1.36526e-08
1.32549e-08
1.2016e-08
1.19158e-08
1.74183e-08
3.05112e-08
4.66286e-08
5.77107e-08
5.81761e-08
4.79635e-08
3.38167e-08
2.41874e-08
2.14138e-08
2.36586e-08
2.83117e-08
3.10205e-08
2.89579e-08
2.31044e-08
1.70677e-08
1.40512e-08
1.3123e-08
1.16489e-08
9.27454e-09
6.0974e-09
2.86489e-09
2.166e-09
5.62388e-09
1.36274e-08
2.43364e-08
3.2958e-08
3.47407e-08
2.919e-08
2.20859e-08
2.07755e-08
2.59066e-08
3.11549e-08
3.0772e-08
2.49206e-08
1.82361e-08
1.45123e-08
1.36534e-08
1.32577e-08
1.19972e-08
1.18439e-08
1.72597e-08
3.02515e-08
4.62755e-08
5.73237e-08
5.78562e-08
4.77497e-08
3.36492e-08
2.39791e-08
2.1145e-08
2.33923e-08
2.82422e-08
3.13075e-08
2.95304e-08
2.37361e-08
1.75753e-08
1.4412e-08
1.33995e-08
1.18593e-08
9.42893e-09
6.10347e-09
2.78473e-09
2.0094e-09
5.42816e-09
1.3446e-08
2.42643e-08
3.30598e-08
3.49783e-08
2.94269e-08
2.21889e-08
2.0749e-08
2.58762e-08
3.12088e-08
3.08852e-08
2.50083e-08
1.82718e-08
1.4534e-08
1.36886e-08
1.32903e-08
1.19829e-08
1.17405e-08
1.70568e-08
3.00071e-08
4.60682e-08
5.71833e-08
5.78165e-08
4.7762e-08
3.3572e-08
2.37239e-08
2.06957e-08
2.28044e-08
2.78635e-08
3.15113e-08
3.0301e-08
2.4735e-08
1.83974e-08
1.49233e-08
1.37013e-08
1.20208e-08
9.51045e-09
6.00866e-09
2.61394e-09
1.78961e-09
5.23185e-09
1.33689e-08
2.44361e-08
3.34995e-08
3.55268e-08
2.98089e-08
2.22416e-08
2.0568e-08
2.57225e-08
3.1238e-08
3.10424e-08
2.51576e-08
1.83685e-08
1.46322e-08
1.38112e-08
1.33911e-08
1.19941e-08
1.16401e-08
1.69046e-08
2.99581e-08
4.62349e-08
5.74943e-08
5.81806e-08
4.80285e-08
3.35705e-08
2.34487e-08
2.01521e-08
2.19431e-08
2.71001e-08
3.1458e-08
3.10845e-08
2.6002e-08
1.95665e-08
1.56833e-08
1.41129e-08
1.21725e-08
9.50324e-09
5.8428e-09
2.37575e-09
1.51762e-09
5.01372e-09
1.33398e-08
2.47784e-08
3.42199e-08
3.63341e-08
3.02922e-08
2.22028e-08
2.01691e-08
2.53309e-08
3.10936e-08
3.11005e-08
2.5317e-08
1.85275e-08
1.48562e-08
1.40834e-08
1.36118e-08
1.20497e-08
1.15418e-08
1.68426e-08
3.02136e-08
4.69079e-08
5.8427e-08
5.90641e-08
4.86476e-08
3.36966e-08
2.32505e-08
1.97298e-08
2.10846e-08
2.60568e-08
3.09935e-08
3.15698e-08
2.72736e-08
2.10508e-08
1.68452e-08
1.48134e-08
1.24293e-08
9.45186e-09
5.66653e-09
2.11278e-09
1.20672e-09
4.73333e-09
1.32667e-08
2.51887e-08
3.51464e-08
3.73747e-08
3.08989e-08
2.21279e-08
1.95772e-08
2.45936e-08
3.05277e-08
3.08075e-08
2.51923e-08
1.86502e-08
1.52211e-08
1.45614e-08
1.40047e-08
1.2174e-08
1.13544e-08
1.6569e-08
3.03265e-08
4.77694e-08
5.9955e-08
6.0891e-08
5.02077e-08
3.44066e-08
2.34068e-08
1.97317e-08
2.06715e-08
2.51337e-08
3.02147e-08
3.1526e-08
2.8197e-08
2.26947e-08
1.85332e-08
1.60593e-08
1.3009e-08
9.4672e-09
5.61087e-09
1.89299e-09
8.76744e-10
4.34238e-09
1.29552e-08
2.53486e-08
3.60327e-08
3.861e-08
3.17523e-08
2.2228e-08
1.90373e-08
2.36393e-08
2.93998e-08
2.97136e-08
2.44395e-08
1.84825e-08
1.56278e-08
1.52524e-08
1.46234e-08
1.24135e-08
1.09985e-08
1.56341e-08
2.93166e-08
4.75107e-08
6.11575e-08
6.36585e-08
5.36189e-08
3.6829e-08
2.46851e-08
2.0686e-08
2.12364e-08
2.50352e-08
2.97569e-08
3.11638e-08
2.85553e-08
2.42745e-08
2.08594e-08
1.81962e-08
1.42711e-08
9.80045e-09
5.96444e-09
1.88671e-09
5.8731e-10
3.82354e-09
1.22722e-08
2.48775e-08
3.62722e-08
3.95607e-08
3.27347e-08
2.27287e-08
1.8842e-08
2.28079e-08
2.81313e-08
2.83266e-08
2.33623e-08
1.8234e-08
1.61219e-08
1.60814e-08
1.54119e-08
1.2762e-08
1.04519e-08
1.39012e-08
2.68924e-08
4.57033e-08
6.13628e-08
6.66684e-08
5.82744e-08
4.09965e-08
2.74671e-08
2.26659e-08
2.26137e-08
2.58335e-08
3.04425e-08
3.17656e-08
2.91445e-08
2.58295e-08
2.3788e-08
2.15146e-08
1.67262e-08
1.09377e-08
7.12891e-09
2.28202e-09
4.76373e-10
3.26015e-09
1.13148e-08
2.38794e-08
3.57806e-08
3.97976e-08
3.34551e-08
2.33676e-08
1.88337e-08
2.18057e-08
2.62927e-08
2.63943e-08
2.23313e-08
1.87098e-08
1.78165e-08
1.79066e-08
1.67065e-08
1.33067e-08
9.83325e-09
1.15951e-08
2.3343e-08
4.25305e-08
6.01853e-08
6.82268e-08
6.18763e-08
4.5051e-08
3.08444e-08
2.53935e-08
2.40591e-08
2.58978e-08
3.07144e-08
3.32444e-08
3.14328e-08
2.88887e-08
2.77281e-08
2.59391e-08
2.06354e-08
1.33954e-08
9.47841e-09
3.27486e-09
6.22233e-10
2.7619e-09
1.01997e-08
2.25239e-08
3.4746e-08
3.93606e-08
3.35427e-08
2.36434e-08
1.85836e-08
2.04048e-08
2.37349e-08
2.36264e-08
2.08234e-08
1.95615e-08
2.05367e-08
2.11142e-08
1.92993e-08
1.48218e-08
9.92997e-09
9.6695e-09
1.93828e-08
3.80283e-08
5.68771e-08
6.69461e-08
6.22566e-08
4.65161e-08
3.25404e-08
2.74839e-08
2.56906e-08
2.55059e-08
2.94705e-08
3.34765e-08
3.37245e-08
3.3434e-08
3.36834e-08
3.15969e-08
2.5403e-08
1.71475e-08
1.28063e-08
5.06756e-09
9.99296e-10
2.23406e-09
9.02417e-09
2.1418e-08
3.41507e-08
3.90644e-08
3.30677e-08
2.28939e-08
1.75178e-08
1.87651e-08
2.16496e-08
2.17342e-08
1.99175e-08
2.00906e-08
2.24303e-08
2.36942e-08
2.19945e-08
1.70923e-08
1.12552e-08
9.32726e-09
1.64951e-08
3.31882e-08
5.17477e-08
6.2787e-08
5.98527e-08
4.5517e-08
3.20764e-08
2.73564e-08
2.64699e-08
2.54397e-08
2.74463e-08
3.19938e-08
3.41741e-08
3.64961e-08
3.94479e-08
3.77113e-08
3.0245e-08
2.12281e-08
1.59088e-08
7.35878e-09
1.55095e-09
1.44998e-09
7.19949e-09
1.98158e-08
3.40391e-08