/*--------------------------------*- C++ -*----------------------------------*\
| =========                 |                                                 |
| \\      /  F ield         | OpenFOAM: The Open Source CFD Toolbox           |
|  \\    /   O peration     | Version:  2306                                  |
|   \\  /    A nd           | Website:  www.openfoam.com                      |
|    \\/     M anipulation  |                                                 |
\*---------------------------------------------------------------------------*/
FoamFile
{
    version     2.0;
    format      ascii;
    arch        "LSB;label=32;scalar=64";
    class       volVectorField;
    location    "6.5";
    object      U;
}
// * * * * * * * * * * * * * * * * * * * * * * * * * * * * * * * * * * * * * //

dimensions      [0 1 -1 0 0 0 0];

internalField   nonuniform List<vector> 
60000
(
(0.00763007 3.65922e-05 0.000281429)
(0.00830098 2.99122e-05 0.000555935)
(0.00896342 3.36068e-05 0.00105663)
(0.00940904 4.13738e-05 0.00172273)
(0.00947254 4.35963e-05 0.00234883)
(0.00916948 3.41641e-05 0.0027126)
(0.0087407 1.95891e-05 0.00272603)
(0.00841458 9.38964e-06 0.002443)
(0.00820652 5.70793e-06 0.0019982)
(0.00804834 4.52e-06 0.00153665)
(0.0078739 8.25553e-07 0.0011972)
(0.00757838 -5.22121e-06 0.00104522)
(0.00707503 -9.96381e-06 0.00104354)
(0.00640591 -7.93673e-06 0.00110237)
(0.00578494 -2.89033e-06 0.00114287)
(0.00542478 5.42287e-07 0.00112556)
(0.00536493 -3.46428e-06 0.000995362)
(0.00550133 -1.33506e-05 0.000734604)
(0.00568642 -1.88907e-05 0.000444875)
(0.00584778 -1.40527e-05 0.000207423)
(0.006054 -4.81767e-06 4.97777e-06)
(0.00636324 2.38517e-06 -0.000164057)
(0.00670817 1.75947e-05 -0.000271176)
(0.00700281 2.82383e-05 -0.000346315)
(0.00725643 2.69044e-05 -0.000499515)
(0.00753589 1.20375e-05 -0.000840133)
(0.00791166 -9.40888e-06 -0.0014228)
(0.00835429 -2.57643e-05 -0.00205218)
(0.00865929 -2.72366e-05 -0.0024127)
(0.0086174 -1.98018e-05 -0.00246866)
(0.00820678 -7.11326e-06 -0.00246761)
(0.00754743 1.00145e-05 -0.00245265)
(0.00683059 1.56161e-05 -0.00229793)
(0.00626254 7.97107e-06 -0.00210463)
(0.00594575 1.77569e-06 -0.00197452)
(0.00590305 3.41671e-06 -0.0017977)
(0.0060886 3.97641e-06 -0.0014283)
(0.00637614 1.45118e-05 -0.000879855)
(0.00669159 2.55272e-05 -0.000323958)
(0.00708386 3.64202e-05 5.90099e-05)
(0.0230348 0.000151191 0.000773564)
(0.0250526 0.000128575 0.00164565)
(0.0269716 0.000175724 0.00307266)
(0.0283653 0.000247403 0.00481868)
(0.0288139 0.000273852 0.00632539)
(0.0281724 0.000223125 0.00709456)
(0.0269392 0.000133955 0.00698709)
(0.0258487 6.42523e-05 0.00621077)
(0.0251382 3.53942e-05 0.00511321)
(0.024659 2.84497e-05 0.00401684)
(0.0241575 1.85273e-05 0.0031944)
(0.0232729 1.39442e-06 0.00277377)
(0.0217866 -1.66833e-05 0.00271952)
(0.0198905 -4.10429e-05 0.00287318)
(0.0181485 -8.29133e-05 0.00301023)
(0.0170591 -0.000132693 0.00293663)
(0.0166959 -0.000178702 0.00253322)
(0.0167998 -0.000200671 0.00186844)
(0.0170739 -0.000175538 0.00118316)
(0.0174283 -0.000115162 0.000607156)
(0.0180003 -4.86112e-05 0.000111521)
(0.018837 1.43613e-05 -0.000304874)
(0.0197921 8.45241e-05 -0.000603492)
(0.0207629 0.000103307 -0.000870806)
(0.0218227 3.83626e-05 -0.00134844)
(0.0230717 -9.95802e-05 -0.00230063)
(0.0245418 -0.000234728 -0.00379233)
(0.0259711 -0.000282075 -0.00533091)
(0.0267677 -0.000203986 -0.00623307)
(0.0264555 -6.68989e-05 -0.0064575)
(0.0251226 6.0012e-05 -0.00643573)
(0.02327 0.000127474 -0.00620288)
(0.0214145 9.08008e-05 -0.00575162)
(0.0198383 -3.86779e-06 -0.00543861)
(0.0186581 -5.7209e-05 -0.00526907)
(0.0180966 -5.136e-05 -0.00478321)
(0.0182542 -1.04994e-05 -0.00368106)
(0.0189099 7.15436e-05 -0.00218186)
(0.0198909 0.000145613 -0.000789708)
(0.0212481 0.000178029 0.00014383)
(0.0382481 0.000281244 0.000632958)
(0.041686 0.000227443 0.00199821)
(0.0450176 0.00033708 0.00420649)
(0.0477135 0.00048812 0.00688212)
(0.0490977 0.00053345 0.0091874)
(0.0485867 0.000428872 0.0104148)
(0.0466109 0.000258475 0.0103591)
(0.0444989 0.000124075 0.00931882)
(0.0430556 6.21677e-05 0.00781877)
(0.0421884 4.32422e-05 0.00631641)
(0.0414321 2.2738e-05 0.00511588)
(0.0401475 -9.46833e-06 0.00434126)
(0.0379472 -4.49861e-05 0.00404356)
(0.0350538 -0.000113969 0.00417881)
(0.032181 -0.000237222 0.00446113)
(0.0300402 -0.000378271 0.00445605)
(0.028895 -0.000488773 0.00390504)
(0.0285324 -0.00051871 0.00297013)
(0.0286153 -0.000435347 0.00202513)
(0.0290204 -0.000282418 0.00122994)
(0.0298648 -0.000117246 0.000537939)
(0.0311453 4.3085e-05 -5.43913e-05)
(0.0326851 0.000176088 -0.000489383)
(0.0344088 0.00015765 -0.000849672)
(0.036437 -6.78978e-05 -0.00145244)
(0.0388513 -0.000445154 -0.00272884)
(0.0416227 -0.000773903 -0.00486157)
(0.0442712 -0.000853414 -0.00723114)
(0.0458105 -0.000614711 -0.00883835)
(0.0454786 -0.000229987 -0.0094773)
(0.0434689 0.000107522 -0.00954484)
(0.0406697 0.000251402 -0.00907342)
(0.0378749 0.000143284 -0.00830225)
(0.0353165 -7.26576e-05 -0.00793628)
(0.0329799 -0.000174989 -0.00795565)
(0.0312676 -0.000148008 -0.00751147)
(0.030719 -3.60549e-05 -0.00600871)
(0.0313319 0.000149807 -0.0038002)
(0.0328467 0.000314649 -0.00173126)
(0.0351739 0.000363756 -0.000337848)
(0.0522411 0.000304433 -0.000829591)
(0.0571218 0.000166561 0.000792955)
(0.0620595 0.000349622 0.00357798)
(0.0665173 0.0006122 0.00712386)
(0.069595 0.000692483 0.0103785)
(0.0700302 0.000562038 0.0124112)
(0.0676724 0.000351235 0.012828)
(0.0643196 0.000178804 0.0118579)
(0.0617959 8.20958e-05 0.0101914)
(0.0603963 3.97973e-05 0.00850337)
(0.0594741 6.34849e-06 0.00710523)
(0.058091 -3.13618e-05 0.00597139)
(0.0556282 -7.07151e-05 0.00519168)
(0.0521782 -0.000176154 0.00503975)
(0.0483389 -0.000392737 0.00542488)
(0.0448135 -0.00066003 0.00568674)
(0.042171 -0.00087873 0.00521006)
(0.0406208 -0.000948931 0.00413856)
(0.0400317 -0.000814808 0.00304828)
(0.0402195 -0.000551619 0.00217127)
(0.0411584 -0.000255565 0.00142025)
(0.0427443 3.8118e-05 0.000774943)
(0.0447804 0.000242463 0.000339426)
(0.0472131 0.000135896 0.000110281)
(0.0501616 -0.000354075 -0.00024193)
(0.0536578 -0.00111113 -0.00134213)
(0.0577119 -0.0017539 -0.00370349)
(0.0618541 -0.00187704 -0.00688593)
(0.0647301 -0.00138818 -0.00959445)
(0.0650881 -0.000622202 -0.0111771)
(0.0630375 5.15104e-05 -0.0117767)
(0.0597671 0.000346299 -0.0113069)
(0.056338 0.00017143 -0.0101582)
(0.0529784 -0.000186644 -0.00955932)
(0.0494516 -0.000351197 -0.0098234)
(0.0460397 -0.000308618 -0.00987017)
(0.0437648 -0.000135935 -0.00860262)
(0.0434202 0.000162488 -0.00616724)
(0.0449594 0.000436157 -0.00367045)
(0.0480021 0.000490528 -0.00196384)
(0.0636553 5.92969e-05 -0.00428032)
(0.0696834 -0.000288712 -0.00280774)
(0.076272 -0.000113356 0.00019295)
(0.0828816 0.000417987 0.00449039)
(0.0885297 0.00059472 0.00896)
(0.0911708 0.00049934 0.0123963)
(0.0894387 0.000333695 0.0140196)
(0.0849971 0.00019827 0.013682)
(0.0810123 9.1437e-05 0.0121009)
(0.0788039 1.3862e-05 0.0103848)
(0.0777406 -4.27219e-05 0.00907765)
(0.0765544 -8.20554e-05 0.00786116)
(0.0743346 -0.000100297 0.00652798)
(0.0709442 -0.000195491 0.00569016)
(0.0666861 -0.000456698 0.00587506)
(0.0618938 -0.000832175 0.00649193)
(0.0571674 -0.00119875 0.00637693)
(0.0534184 -0.00139705 0.00532888)
(0.0512731 -0.00129593 0.00415908)
(0.05069 -0.000957785 0.00332229)
(0.0513868 -0.000515744 0.00269242)
(0.0530347 -4.25064e-05 0.0021886)
(0.0553391 0.000255179 0.00196586)
(0.058195 2.84632e-05 0.00215944)
(0.0616322 -0.000859013 0.00250926)
(0.0655448 -0.00220876 0.00227929)
(0.0701645 -0.00342766 0.000538133)
(0.0757984 -0.00371439 -0.00300109)
(0.0810745 -0.00280003 -0.0072177)
(0.0835737 -0.00141433 -0.0106826)
(0.0827641 -0.000241751 -0.0127744)
(0.0799207 0.000344819 -0.0130038)
(0.0763598 0.000170136 -0.0116464)
(0.0725214 -0.000319217 -0.0105335)
(0.0681603 -0.00055031 -0.0107737)
(0.0631595 -0.000496032 -0.0114315)
(0.0584368 -0.000303703 -0.0109804)
(0.0557216 4.80653e-05 -0.00907862)
(0.0559778 0.0004014 -0.00676634)
(0.0588431 0.000427899 -0.00518335)
(0.0718695 -0.000565347 -0.00960246)
(0.0777213 -0.00135996 -0.0089515)
(0.0849214 -0.00145987 -0.00653348)
(0.093237 -0.000803279 -0.00231305)
(0.102233 -0.000222478 0.00320311)
(0.109015 2.87221e-05 0.00881334)
(0.109982 0.000105616 0.0128578)
(0.105546 0.000128811 0.0142729)
(0.100017 6.85079e-05 0.0133162)
(0.0966397 -3.52109e-05 0.0116187)
(0.095369 -0.000136713 0.0105853)
(0.094581 -0.000187545 0.00985951)
(0.0929865 -0.000171355 0.0083885)
(0.0902537 -0.000195837 0.00660955)
(0.0864479 -0.000400797 0.00600067)
(0.0813172 -0.000781159 0.00671207)
(0.0747937 -0.00125239 0.00717676)
(0.0680493 -0.00165694 0.00640537)
(0.0629978 -0.00175398 0.0051868)
(0.0605427 -0.00147211 0.00439611)
(0.0603352 -0.000918113 0.00400219)
(0.0616247 -0.000222261 0.00382037)
(0.0638093 0.000232299 0.00399849)
(0.0666061 -0.000135186 0.00477656)
(0.0699171 -0.00159882 0.00598979)
(0.073268 -0.00379608 0.00701239)
(0.0765945 -0.00589525 0.00693684)
(0.0817136 -0.00673625 0.00470805)
(0.0897127 -0.00563479 -3.5765e-05)
(0.0970533 -0.00322617 -0.00614611)
(0.10011 -0.0010314 -0.0113167)
(0.0994681 0.000119723 -0.0136463)
(0.0967494 0.00010393 -0.0128906)
(0.092877 -0.000450542 -0.0112922)
(0.0881894 -0.000726261 -0.0110894)
(0.0824246 -0.000638216 -0.0120006)
(0.0757748 -0.000433781 -0.0123613)
(0.0700219 -0.00010171 -0.0114633)
(0.0672915 0.00021651 -0.0101456)
(0.0681029 0.000128703 -0.00954065)
(0.0800663 -0.00150721 -0.0147484)
(0.0833431 -0.00300415 -0.0157317)
(0.0885004 -0.00359725 -0.0146897)
(0.0951188 -0.00315836 -0.0119236)
(0.104721 -0.00241673 -0.00729443)
(0.11698 -0.00169715 -0.000294126)
(0.124751 -0.000841677 0.0073389)
(0.123442 -0.000246749 0.0123713)
(0.117344 -2.60665e-05 0.0134133)
(0.112618 -9.07353e-05 0.0119766)
(0.111079 -0.000269393 0.0109836)
(0.110904 -0.000384032 0.0111626)
(0.110113 -0.000336171 0.010559)
(0.108302 -0.000250473 0.00826363)
(0.105713 -0.000312411 0.00630525)
(0.101751 -0.000549758 0.00640772)
(0.0951055 -0.000965157 0.00732909)
(0.0859326 -0.00149866 0.00714057)
(0.0769365 -0.00191222 0.00603957)
(0.0709548 -0.00190672 0.00521492)
(0.068611 -0.00137386 0.00496909)
(0.0688852 -0.00044689 0.00506785)
(0.0706231 0.000232665 0.00554083)
(0.0732597 -0.000300569 0.00665042)
(0.0766156 -0.00241914 0.00831641)
(0.0798332 -0.00550967 0.0100952)
(0.081526 -0.00850813 0.0115771)
(0.0828273 -0.0101629 0.0120623)
(0.0885688 -0.00952472 0.00982795)
(0.0996152 -0.006662 0.00347265)
(0.109962 -0.00310299 -0.00523872)
(0.115071 -0.000714085 -0.0115995)
(0.11524 -0.00016771 -0.0131929)
(0.112028 -0.000601592 -0.0119965)
(0.107319 -0.000827258 -0.0112556)
(0.101749 -0.000670198 -0.0118792)
(0.0947853 -0.000441442 -0.0125281)
(0.08732 -0.000149354 -0.0123128)
(0.0817391 0.000116728 -0.0120343)
(0.0793748 -0.000237205 -0.0129115)
(0.0932753 -0.0021589 -0.0166942)
(0.0920952 -0.00466335 -0.0201987)
(0.0928619 -0.00593818 -0.0212618)
(0.0954502 -0.00575675 -0.0199605)
(0.100703 -0.00534483 -0.0169339)
(0.112342 -0.00482392 -0.0112882)
(0.12728 -0.00331953 -0.00242404)
(0.133818 -0.00154636 0.00663829)
(0.12999 -0.000610994 0.0115099)
(0.124348 -0.000359515 0.0114122)
(0.122715 -0.000432032 0.0100065)
(0.12384 -0.000646512 0.010605)
(0.124244 -0.000694923 0.0117444)
(0.123099 -0.000496186 0.0103491)
(0.121719 -0.000300617 0.00728512)
(0.120153 -0.000309107 0.00597735)
(0.116002 -0.000524533 0.00674777)
(0.107044 -0.000938853 0.00720173)
(0.0949436 -0.00153877 0.00656606)
(0.0842283 -0.00195306 0.00584403)
(0.0779649 -0.00167632 0.005641)
(0.0761123 -0.000624334 0.00582318)
(0.0771766 0.000329504 0.00630583)
(0.0799965 -0.000180382 0.0073894)
(0.0839815 -0.00264903 0.00912145)
(0.0882166 -0.00628245 0.0109612)
(0.0905821 -0.00986658 0.0126775)
(0.0893385 -0.0123663 0.0148439)
(0.0885798 -0.0127175 0.0164061)
(0.0955129 -0.010389 0.0136191)
(0.109088 -0.00636124 0.00502913)
(0.122029 -0.00262231 -0.00505061)
(0.128348 -0.000985933 -0.0108563)
(0.127254 -0.00100578 -0.0119548)
(0.122531 -0.0010825 -0.0113615)
(0.117565 -0.000677146 -0.0113011)
(0.111928 -0.000192615 -0.0116047)
(0.105145 0.000178751 -0.0114525)
(0.0991182 0.000423002 -0.0114504)
(0.0953975 -0.000182371 -0.0130964)
(0.110995 -0.00166069 -0.0138133)
(0.106933 -0.00509401 -0.0197388)
(0.101992 -0.00746429 -0.0240531)
(0.0999322 -0.00774013 -0.0248522)
(0.100713 -0.00769556 -0.0227028)
(0.106705 -0.00812029 -0.0180506)
(0.120963 -0.00709952 -0.0106038)
(0.135118 -0.00413435 -0.000804255)
(0.137057 -0.00180275 0.00736388)
(0.130584 -0.00118661 0.00986263)
(0.127387 -0.00114631 0.00819291)
(0.130666 -0.00107673 0.00787834)
(0.134108 -0.00102755 0.0102406)
(0.13333 -0.000947553 0.0111089)
(0.131242 -0.00075225 0.00846423)
(0.131715 -0.000490203 0.00575019)
(0.132637 -0.000248985 0.0056478)
(0.128225 -0.000303553 0.00642053)
(0.116683 -0.000738112 0.00641294)
(0.102272 -0.00138737 0.00614159)
(0.0907658 -0.00154594 0.00620082)
(0.0849899 -0.000656589 0.0065221)
(0.0843819 0.000475162 0.00699551)
(0.0871294 0.000113031 0.00782743)
(0.091739 -0.00240725 0.00906857)
(0.0969878 -0.00617115 0.0103643)
(0.101025 -0.00975742 0.0115664)
(0.101 -0.0124054 0.0137978)
(0.0967197 -0.0138074 0.0177243)
(0.0958451 -0.0129527 0.0193389)
(0.105125 -0.00970909 0.0140304)
(0.121245 -0.00559926 0.003661)
(0.134151 -0.00249551 -0.00562532)
(0.134603 -0.00114859 -0.0101523)
(0.125972 -0.000810618 -0.0105617)
(0.118893 -0.000759053 -0.00941389)
(0.116762 -0.000458044 -0.0085653)
(0.115675 0.000293419 -0.00815113)
(0.113719 0.000957708 -0.00811123)
(0.112382 0.000570332 -0.00958953)
(0.125349 -0.000350844 -0.00667862)
(0.123892 -0.00372124 -0.0141731)
(0.115893 -0.00706069 -0.0218801)
(0.108393 -0.00826187 -0.02619)
(0.105735 -0.00844816 -0.0260046)
(0.107383 -0.00974046 -0.0219783)
(0.115517 -0.0105084 -0.0153676)
(0.130112 -0.00805007 -0.00676913)
(0.140532 -0.00383738 0.00223114)
(0.138323 -0.00180826 0.00729305)
(0.130866 -0.00216533 0.00647642)
(0.130463 -0.00255606 0.00451469)
(0.137435 -0.00176907 0.0062702)
(0.140787 -0.000684794 0.00916695)
(0.136607 -0.000553345 0.00855038)
(0.13307 -0.00126818 0.00570794)
(0.136746 -0.00151583 0.00459412)
(0.14146 -0.000834516 0.0052242)
(0.137273 -0.000218587 0.00565469)
(0.124001 -0.000413286 0.00580056)
(0.108481 -0.00072858 0.00636242)
(0.097258 -0.000253584 0.00732559)
(0.0930497 0.000642815 0.00821148)
(0.0948085 0.000208808 0.0086081)
(0.100037 -0.00238452 0.00840281)
(0.106395 -0.00604647 0.00807186)
(0.111583 -0.00925637 0.00832867)
(0.113099 -0.0112795 0.010365)
(0.10927 -0.0125679 0.0153744)
(0.103451 -0.0132428 0.0204023)
(0.105226 -0.0121341 0.0188923)
(0.117967 -0.00895996 0.0098338)
(0.132295 -0.00449079 -0.00104314)
(0.133993 -0.000733841 -0.00812737)
(0.122893 0.000779992 -0.0094584)
(0.111909 0.000114347 -0.00683068)
(0.108839 -0.000741187 -0.00358971)
(0.111706 -0.000308245 -0.00176031)
(0.1163 0.000799222 -0.00131552)
(0.121285 0.00113546 -0.00243801)
(0.128321 0.00032325 0.00304524)
(0.13467 -0.00169731 -0.00528069)
(0.130332 -0.00481192 -0.0157408)
(0.119578 -0.00706465 -0.0237083)
(0.112477 -0.00789177 -0.0270302)
(0.111971 -0.00938698 -0.0251752)
(0.116128 -0.0116354 -0.0193696)
(0.125253 -0.0115635 -0.0116343)
(0.137696 -0.00776078 -0.00316113)
(0.144614 -0.00337606 0.00351857)
(0.14076 -0.00218824 0.00507274)
(0.1332 -0.00350484 0.00289044)
(0.133616 -0.00374734 0.00267589)
(0.140977 -0.00136732 0.00561257)
(0.143337 0.00091933 0.00718569)
(0.138103 5.30205e-05 0.00567679)
(0.135135 -0.00282847 0.0041423)
(0.141154 -0.00384331 0.00446682)
(0.147582 -0.00207182 0.00519066)
(0.143215 -0.000101373 0.00535218)
(0.129256 0.000768815 0.00585226)
(0.114015 0.00113656 0.00759552)
(0.104743 0.00114659 0.00976144)
(0.1036 -0.000267532 0.0102355)
(0.108332 -0.00341531 0.00807917)
(0.115715 -0.00676852 0.00503724)
(0.122607 -0.00899437 0.0034341)
(0.125553 -0.00994936 0.0047071)
(0.122485 -0.0102785 0.0101793)
(0.114758 -0.0110839 0.0178778)
(0.109757 -0.0121797 0.0204793)
(0.115574 -0.0111444 0.0137922)
(0.127206 -0.00647738 0.002611)
(0.130588 -0.000457405 -0.00603293)
(0.122002 0.00281344 -0.00868231)
(0.111257 0.00197393 -0.00612806)
(0.106095 -0.000249946 -0.00132)
(0.107064 -0.000830299 0.00293263)
(0.111549 0.000137542 0.0055155)
(0.118596 0.000873794 0.00618971)
(0.123032 -1.34164e-05 0.0101019)
(0.135657 -0.000413371 0.00357277)
(0.139769 -0.00173645 -0.0079636)
(0.131776 -0.00414585 -0.0183113)
(0.121449 -0.00623178 -0.0246677)
(0.117636 -0.00823213 -0.0261641)
(0.120513 -0.0108135 -0.0227624)
(0.126037 -0.0127353 -0.0162509)
(0.134172 -0.0116191 -0.00846265)
(0.143738 -0.00739863 -0.00105128)
(0.147406 -0.0035461 0.0029821)
(0.141607 -0.00295736 0.00249164)
(0.13424 -0.004055 0.00121715)
(0.135573 -0.00318266 0.00280287)
(0.142657 -1.98669e-05 0.00528033)
(0.145134 0.00144577 0.00552178)
(0.141025 -0.00144093 0.00411712)
(0.138945 -0.00569632 0.00356985)
(0.14498 -0.00631674 0.00457146)
(0.150976 -0.00263953 0.00523388)
(0.146223 0.00145943 0.00518956)
(0.132882 0.0034374 0.0069139)
(0.120651 0.00287913 0.010673)
(0.115172 -0.0002157 0.0120407)
(0.115873 -0.00478984 0.00793833)
(0.121191 -0.0086429 0.00179522)
(0.129774 -0.0100126 -0.00162202)
(0.136288 -0.00924595 -0.0012848)
(0.135143 -0.00801246 0.00345483)
(0.126914 -0.00780857 0.0126011)
(0.117579 -0.00973011 0.0193988)
(0.116063 -0.0110868 0.0165271)
(0.122603 -0.00776556 0.00649029)
(0.126624 -0.000698229 -0.0029599)
(0.123166 0.00415845 -0.00767178)
(0.117088 0.00389081 -0.00771484)
(0.112434 0.00107286 -0.00426683)
(0.110435 -0.000276339 0.00100723)
(0.110912 0.000140986 0.00607143)
(0.114074 0.000392108 0.00980296)
(0.119871 -0.00119497 0.00901636)
(0.132373 -0.000990032 0.00688453)
(0.143167 0.000443709 -0.00211971)
(0.141702 -0.000451141 -0.0124575)
(0.132402 -0.00341936 -0.0200952)
(0.125279 -0.00663167 -0.024087)
(0.125693 -0.00939063 -0.0238237)
(0.13051 -0.011877 -0.0199162)
(0.135434 -0.0132898 -0.0134992)
(0.141396 -0.0115 -0.00573055)
(0.146756 -0.00680552 0.000457616)
(0.145687 -0.00325212 0.00223291)
(0.138962 -0.00291506 0.00112424)
(0.134933 -0.0034237 0.00140662)
(0.138752 -0.00201518 0.00395165)
(0.145347 9.84763e-05 0.00590113)
(0.147245 -0.000514322 0.0053507)
(0.143888 -0.00461433 0.00341319)
(0.142119 -0.00838966 0.00294018)
(0.146523 -0.00703672 0.00406354)
(0.150443 -0.00124785 0.00458738)
(0.145888 0.00378521 0.00613471)
(0.135943 0.00485072 0.0104622)
(0.127752 0.00209355 0.012408)
(0.123271 -0.00310461 0.00689969)
(0.122713 -0.00864177 -0.00179605)
(0.129285 -0.0114395 -0.00608902)
(0.140216 -0.0101134 -0.00533781)
(0.144406 -0.0070293 -0.00173602)
(0.137804 -0.00506545 0.00623469)
(0.126627 -0.00606766 0.0157622)
(0.119692 -0.00854009 0.0177436)
(0.120784 -0.00721455 0.0103578)
(0.123715 -0.000911078 0.000714444)
(0.123849 0.00448506 -0.00583026)
(0.122938 0.00499589 -0.00866029)
(0.121617 0.00258907 -0.00816479)
(0.119185 0.00108784 -0.00470999)
(0.116453 0.00105513 0.000287106)
(0.115313 0.000315866 0.00547654)
(0.124062 -0.00207319 0.00265974)
(0.131347 -0.00289564 0.00431008)
(0.143512 0.000200189 -2.56593e-05)
(0.148863 0.00203688 -0.00778274)
(0.143599 -0.000267811 -0.0154804)
(0.13502 -0.00419339 -0.0209875)
(0.131745 -0.00748877 -0.0228398)
(0.135265 -0.0100931 -0.0214677)
(0.140124 -0.0127297 -0.0175145)
(0.143 -0.0134828 -0.010511)
(0.14538 -0.00989065 -0.00269174)
(0.145593 -0.00439516 0.00143812)
(0.141704 -0.0017974 0.00131537)
(0.137328 -0.00244126 0.000944862)
(0.137867 -0.00295455 0.00323096)
(0.143426 -0.001707 0.00663074)
(0.148731 -0.00094137 0.00760602)
(0.149618 -0.00304013 0.00489874)
(0.145975 -0.00688685 0.00173333)
(0.142466 -0.00823908 0.00186763)
(0.142293 -0.00462802 0.00448683)
(0.141317 0.000956753 0.00781363)
(0.136734 0.00436563 0.0109985)
(0.131971 0.00413774 0.0105503)
(0.129142 0.000418345 0.00399056)
(0.126766 -0.00580022 -0.00461331)
(0.128698 -0.0110957 -0.00820853)
(0.139081 -0.0116762 -0.00601457)
(0.148484 -0.00798651 -0.00261033)
(0.145749 -0.00422373 0.00236323)
(0.134581 -0.00331072 0.0110126)
(0.124881 -0.00493754 0.0166991)
(0.122079 -0.00462716 0.0133372)
(0.123597 5.7688e-05 0.00478276)
(0.125417 0.00451478 -0.00283972)
(0.12767 0.00477339 -0.00766808)
(0.129808 0.00300738 -0.0099479)
(0.129685 0.00240189 -0.00965618)
(0.127111 0.00275889 -0.0068358)
(0.12415 0.00128722 -0.00220864)
(0.132187 -0.0013546 -0.00105332)
(0.132604 -0.00367089 0.00194773)
(0.140569 -0.00133089 0.000582391)
(0.150121 0.00229961 -0.00442729)
(0.151403 0.00200176 -0.0113282)
(0.144825 -0.00116668 -0.0177812)
(0.139299 -0.00455981 -0.0210895)
(0.140581 -0.00766512 -0.0211916)
(0.145791 -0.0111644 -0.0193536)
(0.148596 -0.0136455 -0.0145669)
(0.148073 -0.0117676 -0.00681609)
(0.146408 -0.00581178 -0.000655737)
(0.143428 -0.000954944 0.00106221)
(0.139943 -0.000499055 0.00116216)
(0.139069 -0.00228844 0.00320274)
(0.142631 -0.00284811 0.00711945)
(0.148397 -0.00221936 0.0092192)
(0.151869 -0.00259016 0.00669187)
(0.149107 -0.00448154 0.0021563)
(0.141043 -0.00617917 0.000998283)
(0.133457 -0.00548657 0.00408428)
(0.129617 -0.00207528 0.00745672)
(0.129235 0.00194488 0.00801784)
(0.131578 0.00433346 0.00507542)
(0.13426 0.00330514 -0.000778453)
(0.134149 -0.00180608 -0.00690994)
(0.133725 -0.00864797 -0.00880607)
(0.139891 -0.0123368 -0.0052845)
(0.149698 -0.00997103 -0.000785574)
(0.150493 -0.00502442 0.00261713)
(0.140418 -0.00215624 0.00840017)
(0.129396 -0.00198401 0.0141374)
(0.124759 -0.00128022 0.0134125)
(0.125874 0.00200359 0.00683768)
(0.128261 0.00493422 2.72311e-05)
(0.129768 0.00438609 -0.00437696)
(0.131267 0.00223366 -0.00756372)
(0.133408 0.00179436 -0.0100295)
(0.13503 0.00287942 -0.00992007)
(0.134583 0.0021917 -0.00625811)
(0.135341 0.000190347 0.00138)
(0.132564 -0.0019744 0.00318901)
(0.134957 -0.00127254 0.00186923)
(0.144031 0.00151925 -0.00185084)
(0.151604 0.00269604 -0.00770029)
(0.150826 0.00143548 -0.0143251)
(0.146486 -0.000893759 -0.01868)
(0.146822 -0.00409448 -0.0197374)
(0.151945 -0.00858541 -0.0191905)
(0.155307 -0.0124203 -0.0169684)
(0.153582 -0.0120336 -0.0113098)
(0.14957 -0.00678929 -0.00436799)
(0.145814 -0.000907845 -6.58879e-05)
(0.142835 0.00121937 0.0018888)
(0.1416 -0.000176981 0.00377293)
(0.143303 -0.00203785 0.00648019)
(0.147033 -0.00270975 0.00873564)
(0.149965 -0.00297865 0.00811591)
(0.148678 -0.00334383 0.00430214)
(0.142138 -0.00357258 0.000727833)
(0.133857 -0.00326495 0.000579391)
(0.128629 -0.00216918 0.0024225)
(0.128953 -0.000385347 0.00301007)
(0.133806 0.00176217 0.00100285)
(0.138492 0.00278324 -0.00317716)
(0.139088 0.000685196 -0.0072306)
(0.137971 -0.00511085 -0.00804241)
(0.141338 -0.0112186 -0.00473262)
(0.149251 -0.0116355 -0.000204666)
(0.151974 -0.00643687 0.00318589)
(0.144751 -0.00173641 0.00774031)
(0.134583 -0.000159286 0.0124368)
(0.12877 0.000967468 0.0120824)
(0.127723 0.00380563 0.00701618)
(0.127433 0.00614527 0.00248492)
(0.126083 0.00524482 0.000258496)
(0.125698 0.00234689 -0.00204681)
(0.128286 0.000775394 -0.0051028)
(0.133083 0.00150615 -0.00593743)
(0.136403 0.00198721 -0.00290794)
(0.135228 9.14742e-05 0.00311546)
(0.132657 0.000228506 0.00502001)
(0.132092 0.000778975 0.00412644)
(0.137369 0.00217345 0.00073347)
(0.145983 0.00325167 -0.00436466)
(0.151547 0.00321627 -0.0100011)
(0.152596 0.0022585 -0.0141212)
(0.154397 -0.000238137 -0.0159819)
(0.159375 -0.005078 -0.0170328)
(0.1626 -0.0100597 -0.0174145)
(0.160029 -0.0108319 -0.0144998)
(0.154138 -0.00643196 -0.00811737)
(0.148766 -0.000620227 -0.00216477)
(0.145185 0.0022018 0.00152783)
(0.143713 0.00143861 0.00398592)
(0.144577 -0.000426087 0.00590641)
(0.14615 -0.00175592 0.00744074)
(0.146262 -0.002781 0.00782996)
(0.144229 -0.00316477 0.00560045)
(0.140416 -0.00227519 0.00143451)
(0.136351 -0.000992849 -0.00119445)
(0.134143 -0.000867347 -0.000678292)
(0.135103 -0.00164432 0.000925076)
(0.138448 -0.00115348 0.000769491)
(0.14067 0.00083171 -0.0017038)
(0.139516 0.00151502 -0.00413022)
(0.137867 -0.00192665 -0.0039475)
(0.140056 -0.00831273 -0.00137685)
(0.14642 -0.0115414 0.00172893)
(0.151012 -0.00808923 0.00421306)
(0.148453 -0.00226883 0.00739455)
(0.141134 0.00154508 0.0107153)
(0.134114 0.00396259 0.0106197)
(0.129031 0.00633103 0.00706225)
(0.124892 0.00752922 0.00405676)
(0.122152 0.00565976 0.00327642)
(0.122178 0.00149257 0.00263603)
(0.125229 -0.00179512 0.000564168)
(0.130422 -0.00220791 -0.00102656)
(0.134816 -0.000849991 9.67959e-05)
(0.133624 0.000426027 0.0049319)
(0.131922 0.00256161 0.00619911)
(0.131353 0.00446662 0.00612984)
(0.134424 0.00526778 0.00416776)
(0.140546 0.0046108 0.000342327)
(0.147053 0.00383059 -0.00477478)
(0.15263 0.00393971 -0.00916665)
(0.158627 0.00309378 -0.0115293)
(0.165062 -0.000907311 -0.0130722)
(0.168136 -0.00636154 -0.0150916)
(0.165231 -0.00830164 -0.0154085)
(0.158725 -0.0048239 -0.0114395)
(0.152405 0.000311141 -0.00528388)
(0.147823 0.00282067 -0.000331932)
(0.145018 0.00219131 0.00287659)
(0.14396 0.00081204 0.00495965)
(0.143611 -1.69004e-05 0.00627843)
(0.142411 -0.000796076 0.00681911)
(0.140209 -0.00131487 0.00551995)
(0.138407 -0.00059986 0.0021709)
(0.138885 0.000400757 -0.000826721)
(0.141806 -0.000667609 -0.00108981)
(0.144378 -0.00345762 0.000663797)
(0.14387 -0.00437238 0.00162586)
(0.140633 -0.00167032 0.000945354)
(0.137441 0.00147072 0.00102753)
(0.137171 0.000524845 0.00290631)
(0.140486 -0.00502934 0.00466945)
(0.145928 -0.010192 0.00534174)
(0.150219 -0.00935327 0.00559727)
(0.149702 -0.00341639 0.00705361)
(0.144424 0.00232347 0.00901883)
(0.137079 0.00564445 0.00859355)
(0.129449 0.00735379 0.00599085)
(0.123256 0.00803975 0.00491264)
(0.120675 0.00668527 0.00650855)
(0.12192 0.00318203 0.00772569)
(0.12546 -0.00047388 0.00640427)
(0.129844 -0.00220141 0.00427423)
(0.1332 -0.00151582 0.0037412)
(0.136371 0.00224988 0.00476891)
(0.136008 0.0043004 0.00590411)
(0.134879 0.00659673 0.00695359)
(0.135784 0.00792622 0.00650441)
(0.139021 0.00683501 0.00362151)
(0.143392 0.0037828 -0.000871843)
(0.148848 0.00135803 -0.00479392)
(0.156207 0.000789115 -0.00719215)
(0.163985 0.000388766 -0.00919724)
(0.167862 -0.00155733 -0.0118793)
(0.166112 -0.00338514 -0.0139398)
(0.161788 -0.00227796 -0.012975)
(0.158168 0.000713266 -0.00890286)
(0.155239 0.00257055 -0.00425712)
(0.151507 0.00264516 -0.000762169)
(0.147121 0.00195568 0.00153126)
(0.143271 0.000966541 0.00303765)
(0.140463 -0.000143129 0.00414367)
(0.139081 -0.000670456 0.00488119)
(0.14015 -5.23186e-05 0.00444508)
(0.14484 0.000667828 0.00250722)
(0.151514 -0.000543609 0.00030655)
(0.155005 -0.00354456 0.000390995)
(0.152042 -0.00504779 0.00344225)
(0.145202 -0.00267637 0.00682715)
(0.139974 0.00144925 0.00807238)
(0.13931 0.0029444 0.00668599)
(0.142092 -0.000407934 0.00432613)
(0.146237 -0.00615336 0.00350163)
(0.149646 -0.00775998 0.003876)
(0.149243 -0.00291789 0.00420438)
(0.14382 0.00390844 0.0053202)
(0.135551 0.00810027 0.00613919)
(0.127544 0.00932149 0.00575856)
(0.122326 0.00899079 0.00572637)
(0.121011 0.00761362 0.00687606)
(0.122697 0.00513436 0.0077442)
(0.125806 0.00231155 0.00713927)
(0.129735 0.000622376 0.00562165)
(0.133909 0.00076538 0.00456422)
(0.137151 0.00357448 0.00410054)
(0.136549 0.00459296 0.00471743)
(0.135214 0.0063127 0.00562987)
(0.135495 0.00781463 0.00635152)
(0.138268 0.00728614 0.00573262)
(0.142439 0.00403442 0.00283979)
(0.14685 -0.000197334 -0.00153737)
(0.151886 -0.00281036 -0.00542647)
(0.158399 -0.00320307 -0.00779666)
(0.164565 -0.00265362 -0.00936422)
(0.166588 -0.00187763 -0.0107908)
(0.163932 -0.000304127 -0.0112726)
(0.160022 0.00194249 -0.00977514)
(0.157501 0.00324437 -0.00684961)
(0.155871 0.00343233 -0.0039561)
(0.153677 0.00351807 -0.00198106)
(0.150418 0.00313641 -0.000856592)
(0.146427 0.00116847 0.000346224)
(0.14312 -0.00197939 0.00234866)
(0.142813 -0.00481031 0.00445284)
(0.146666 -0.00673089 0.00510172)
(0.152605 -0.0078251 0.00368872)
(0.155811 -0.00806281 0.00229049)
(0.153705 -0.00700649 0.00380224)
(0.148377 -0.00351159 0.0071311)
(0.143536 0.00229107 0.00776373)
(0.140805 0.00691903 0.00390337)
(0.139894 0.00598339 -0.00119412)
(0.141296 -0.000364262 -0.00280189)
(0.144587 -0.00575814 -0.000613355)
(0.146364 -0.00428759 0.00175147)
(0.143452 0.0026545 0.00320597)
(0.13709 0.00909459 0.00443681)
(0.131382 0.0122917 0.00483697)
(0.128875 0.0128979 0.00397929)
(0.129262 0.0116624 0.00247253)
(0.130677 0.00898683 0.00131824)
(0.131993 0.00591165 0.00130954)
(0.133629 0.00386607 0.00232242)
(0.135802 0.00324332 0.00342153)
(0.141037 0.00502704 0.00126692)
(0.138177 0.00533227 0.00478629)
(0.13517 0.00483454 0.00773946)
(0.134422 0.00348694 0.0102107)
(0.137138 0.00137996 0.0113566)
(0.142744 -0.00115432 0.0100041)
(0.149427 -0.00340609 0.00584946)
(0.154881 -0.0044148 0.000138427)
(0.157622 -0.00374365 -0.0052626)
(0.157402 -0.00177603 -0.00900427)
(0.154921 0.000791439 -0.0103901)
(0.151528 0.00313926 -0.00965423)
(0.148366 0.00443689 -0.0081811)
(0.146302 0.00425809 -0.00712327)
(0.146018 0.00310064 -0.00626073)
(0.147785 0.00189067 -0.00509136)
(0.150881 0.00108485 -0.0039574)
(0.153461 0.000819462 -0.00323975)
(0.154119 0.000376109 -0.0021314)
(0.153392 -0.00177123 0.000379015)
(0.152836 -0.00595404 0.0037732)
(0.153249 -0.00980021 0.00646404)
(0.153786 -0.0100915 0.00763708)
(0.152764 -0.00636336 0.00785632)
(0.149566 -0.00110593 0.00756555)
(0.145419 0.00327136 0.00570272)
(0.142048 0.00528908 0.00154355)
(0.140583 0.00384415 -0.00299597)
(0.141499 -0.000688435 -0.00434221)
(0.143921 -0.00550725 -0.00131857)
(0.145591 -0.00613354 0.00317088)
(0.144666 -0.00113416 0.00613855)
(0.141937 0.00592498 0.00696154)
(0.140264 0.0112795 0.00557292)
(0.140996 0.0137421 0.00183221)
(0.1427 0.0132911 -0.00317215)
(0.143405 0.0103912 -0.00731229)
(0.142906 0.00663154 -0.00877788)
(0.142375 0.00428907 -0.00693696)
(0.142191 0.00420053 -0.00296352)
(0.148456 0.00554513 -0.00620272)
(0.146914 0.0064623 -0.0029577)
(0.147266 0.00531775 0.000600987)
(0.14902 0.00252235 0.00460963)
(0.15078 -0.000628779 0.00881089)
(0.151627 -0.00298405 0.0122535)
(0.152605 -0.00416258 0.0132194)
(0.155144 -0.00385999 0.0105137)