/*--------------------------------*- C++ -*----------------------------------*\
| =========                 |                                                 |
| \\      /  F ield         | OpenFOAM: The Open Source CFD Toolbox           |
|  \\    /   O peration     | Version:  2306                                  |
|   \\  /    A nd           | Website:  www.openfoam.com                      |
|    \\/     M anipulation  |                                                 |
\*---------------------------------------------------------------------------*/
FoamFile
{
    version     2.0;
    format      ascii;
    arch        "LSB;label=32;scalar=64";
    class       volVectorField;
    location    "6.5";
    object      U_0;
}
// * * * * * * * * * * * * * * * * * * * * * * * * * * * * * * * * * * * * * //

dimensions      [0 1 -1 0 0 0 0];

internalField   nonuniform List<vector> 
60000
(
(0.00770527 3.61954e-05 0.000309409)
(0.00838733 3.0261e-05 0.000600184)
(0.00904125 3.49662e-05 0.00112056)
(0.00945389 4.31643e-05 0.0017964)
(0.00947597 4.36339e-05 0.00240527)
(0.00915045 3.23366e-05 0.00273214)
(0.0087279 1.76401e-05 0.0027084)
(0.00841791 7.86561e-06 0.00240136)
(0.00821924 4.91351e-06 0.00194929)
(0.00806287 4.06708e-06 0.00149377)
(0.00788257 1.26665e-07 0.00116906)
(0.00756934 -6.07981e-06 0.00103235)
(0.00704079 -1.01084e-05 0.00104116)
(0.00635755 -7.68017e-06 0.00110282)
(0.00574693 -2.46825e-06 0.00114112)
(0.00541232 4.4195e-07 0.0011186)
(0.00537645 -4.50496e-06 0.000978658)
(0.00552534 -1.47026e-05 0.00071236)
(0.00570978 -1.90634e-05 0.000426278)
(0.0058684 -1.32496e-05 0.00019184)
(0.0060802 -4.25169e-06 -8.4369e-06)
(0.00639634 4.07983e-06 -0.000174227)
(0.00673973 1.9011e-05 -0.000278725)
(0.00702915 2.84184e-05 -0.000361008)
(0.00728131 2.60544e-05 -0.000532398)
(0.0075694 9.8974e-06 -0.000897603)
(0.00796081 -1.10667e-05 -0.00149324)
(0.00840375 -2.55237e-05 -0.00210499)
(0.00868653 -2.63323e-05 -0.00243114)
(0.00861045 -1.8116e-05 -0.00246895)
(0.00816758 -5.46395e-06 -0.00247222)
(0.00748855 1.14584e-05 -0.00244565)
(0.00677333 1.51815e-05 -0.00227487)
(0.00622616 6.05406e-06 -0.00208667)
(0.00593546 1.59936e-06 -0.00196333)
(0.00591679 3.63422e-06 -0.00177762)
(0.00611722 4.45721e-06 -0.00138887)
(0.00641015 1.55495e-05 -0.000827528)
(0.00673219 2.69094e-05 -0.000274802)
(0.00714 3.7299e-05 9.34299e-05)
(0.0232643 0.00014906 0.000861123)
(0.0252987 0.000133348 0.0017795)
(0.0271931 0.000186096 0.00325248)
(0.0285143 0.00025788 0.005006)
(0.0288604 0.000272828 0.00645557)
(0.0281416 0.000210915 0.00712642)
(0.0269036 0.000120084 0.00692791)
(0.025853 5.40006e-05 0.00610146)
(0.0251754 3.04686e-05 0.00499524)
(0.0247052 2.6179e-05 0.00391728)
(0.0241829 1.61635e-05 0.0031272)
(0.0232432 -5.566e-07 0.00274014)
(0.0216901 -1.82127e-05 0.00271344)
(0.0197613 -4.44915e-05 0.00287926)
(0.0180447 -8.81785e-05 0.00301026)
(0.0170161 -0.000138817 0.00291689)
(0.0167085 -0.000184486 0.00248943)
(0.0168401 -0.000202951 0.00181582)
(0.0171187 -0.000171579 0.00113854)
(0.0174798 -0.000108127 0.000568633)
(0.0180729 -4.1883e-05 7.7936e-05)
(0.018928 2.22691e-05 -0.000331997)
(0.0198879 8.93e-05 -0.000630192)
(0.0208627 0.000101803 -0.000919763)
(0.0219369 2.79532e-05 -0.0014433)
(0.0232117 -0.000113495 -0.00245429)
(0.0247045 -0.000241145 -0.00397264)
(0.02611 -0.00027426 -0.00546692)
(0.0268287 -0.000189821 -0.00628934)
(0.0264187 -5.22224e-05 -0.00646836)
(0.0250084 6.95814e-05 -0.00643087)
(0.023122 0.000128351 -0.00616317)
(0.0212729 8.08994e-05 -0.0057008)
(0.0197242 -1.47421e-05 -0.00541626)
(0.0185881 -6.00017e-05 -0.00525175)
(0.0180925 -4.93124e-05 -0.00472396)
(0.0183113 -4.99133e-06 -0.00356762)
(0.0190072 7.94191e-05 -0.00204431)
(0.0200262 0.000152098 -0.00066905)
(0.0214332 0.000180366 0.000232598)
(0.0386342 0.000276342 0.000772358)
(0.0420985 0.000239728 0.00220971)
(0.0454043 0.000360073 0.00448724)
(0.0480131 0.00050909 0.00717001)
(0.0492432 0.000529334 0.00939083)
(0.0485723 0.000402685 0.0104747)
(0.0465374 0.000229072 0.0102812)
(0.0444764 0.000101937 0.00916404)
(0.0431035 5.07244e-05 0.00765317)
(0.0422675 3.77177e-05 0.00617743)
(0.0414866 1.78108e-05 0.00501415)
(0.0401204 -1.27408e-05 0.00427707)
(0.0378187 -4.88093e-05 0.00402092)
(0.0348637 -0.000123576 0.00418881)
(0.0320014 -0.00025217 0.00447264)
(0.0299297 -0.000394084 0.00443495)
(0.0288652 -0.000501084 0.00384438)
(0.0285548 -0.00052071 0.00289691)
(0.0286615 -0.000424114 0.00196319)
(0.029092 -0.00026506 0.00117664)
(0.0299756 -9.99952e-05 0.000491113)
(0.0312893 5.85993e-05 -9.26303e-05)
(0.0328488 0.000181695 -0.000526628)
(0.0345941 0.000147559 -0.000914794)
(0.0366568 -9.81072e-05 -0.00158225)
(0.0391148 -0.000479044 -0.00295039)
(0.041916 -0.000785885 -0.00514024)
(0.0445178 -0.000830388 -0.00746603)
(0.045925 -0.000575518 -0.00896436)
(0.0454341 -0.000191404 -0.00952189)
(0.0433062 0.000130188 -0.00953436)
(0.0404616 0.000249942 -0.00899815)
(0.0376666 0.000119222 -0.00822399)
(0.0351145 -9.38337e-05 -0.00792018)
(0.0328023 -0.000179774 -0.0079581)
(0.031176 -0.000142472 -0.00744549)
(0.0307507 -2.37484e-05 -0.00584912)
(0.0314686 0.0001671 -0.003599)
(0.0330709 0.000327672 -0.00155415)
(0.0354878 0.000367432 -0.000204156)
(0.0527743 0.000294942 -0.000661484)
(0.0577076 0.000182172 0.00106018)
(0.0626423 0.000389257 0.00394786)
(0.0670273 0.000647218 0.00751841)
(0.06992 0.000687159 0.0106848)
(0.0700888 0.000523923 0.0125487)
(0.0675534 0.000307946 0.0127791)
(0.0642253 0.000143867 0.0116857)
(0.0618221 6.17999e-05 0.00999381)
(0.0605019 2.96627e-05 0.00833933)
(0.059573 -9.19944e-07 0.00697769)
(0.0581011 -3.49476e-05 0.00586712)
(0.0555145 -7.51493e-05 0.00512826)
(0.0519663 -0.000191101 0.00503696)
(0.0480852 -0.000418979 0.0054543)
(0.0445869 -0.00068964 0.00568375)
(0.0420274 -0.000902105 0.00514643)
(0.0405685 -0.000953068 0.00405269)
(0.0400466 -0.000795753 0.00297799)
(0.0402923 -0.000521168 0.00211399)
(0.0412931 -0.000225107 0.00137133)
(0.0429304 6.24852e-05 0.00073889)
(0.0450049 0.000245972 0.000313053)
(0.0474776 0.000107378 6.46831e-05)
(0.0504751 -0.000415568 -0.000356671)
(0.0540333 -0.00117639 -0.00158228)
(0.0581465 -0.00177491 -0.00406459)
(0.0622527 -0.00182966 -0.00725449)
(0.0649595 -0.00131061 -0.00985264)
(0.0650969 -0.000545186 -0.0113141)
(0.0628798 9.7172e-05 -0.0118033)
(0.0595409 0.000345358 -0.0112107)
(0.0560921 0.00013053 -0.0100377)
(0.0527021 -0.000221183 -0.00953438)
(0.049143 -0.000358616 -0.00986223)
(0.0457792 -0.000300861 -0.00984898)
(0.0436693 -0.000118484 -0.00845487)
(0.0435261 0.000188846 -0.00594272)
(0.0452348 0.000455556 -0.00346146)
(0.0484222 0.000492342 -0.00180564)
(0.0642833 3.36601e-05 -0.00413205)
(0.0704289 -0.000281935 -0.00252719)
(0.0770721 -4.54658e-05 0.000628019)
(0.0836647 0.00048218 0.00500224)
(0.0891394 0.000595341 0.00941654)
(0.0914131 0.000454677 0.0126883)
(0.0893124 0.000283535 0.0140822)
(0.0847847 0.000153879 0.0135416)
(0.0809579 6.16884e-05 0.0118855)
(0.078909 -2.76565e-06 0.0102073)
(0.0778885 -5.25944e-05 0.00894762)
(0.0766315 -8.45898e-05 0.00772812)
(0.074285 -0.000101359 0.00640102)
(0.0707698 -0.000209694 0.00563702)
(0.066402 -0.0004888 0.00590832)
(0.0615356 -0.000875449 0.00652531)
(0.056828 -0.00124015 0.00633149)
(0.0531958 -0.00141289 0.00523779)
(0.051192 -0.00127482 0.00408653)
(0.0507275 -0.000914533 0.00327251)
(0.0515212 -0.000468822 0.00265595)
(0.053241 -6.62115e-06 0.00217257)
(0.0555969 0.000254761 0.00197711)
(0.058497 -2.76381e-05 0.00217666)
(0.0619726 -0.000969263 0.00247686)
(0.0659459 -0.0023283 0.00211271)
(0.0706971 -0.00347763 0.00017238)
(0.0764207 -0.00363373 -0.00350872)
(0.0815542 -0.00265432 -0.00769836)
(0.0837635 -0.00127777 -0.0110238)
(0.0827109 -0.000158525 -0.0129346)
(0.0797421 0.000354352 -0.0129416)
(0.076116 0.000114631 -0.0114802)
(0.0722069 -0.000368033 -0.0104666)
(0.0677539 -0.000560299 -0.0108308)
(0.0627083 -0.00048772 -0.0114795)
(0.058102 -0.000287909 -0.0109098)
(0.0556535 7.60437e-05 -0.00890437)
(0.0561916 0.000422447 -0.00658569)
(0.0592899 0.000419084 -0.00505188)
(0.072429 -0.000633061 -0.00956446)
(0.0784958 -0.0013893 -0.00874887)
(0.0858551 -0.00138557 -0.0061301)
(0.0943062 -0.000704679 -0.00174252)
(0.103272 -0.00017748 0.00384524)
(0.109639 4.35898e-06 0.00936524)
(0.109991 6.50821e-05 0.0131647)
(0.105217 8.5911e-05 0.0142692)
(0.0998063 3.70516e-05 0.013117)
(0.0966896 -5.91124e-05 0.0114287)
(0.0955509 -0.000150249 0.010481)
(0.0947332 -0.000188325 0.00974686)
(0.0930295 -0.000165538 0.00820706)
(0.090175 -0.000200271 0.00646009)
(0.0862234 -0.000426212 0.00598975)
(0.0809006 -0.000827587 0.00677756)
(0.0742356 -0.00131241 0.00717564)
(0.0675377 -0.00169844 0.00632345)
(0.0626958 -0.00174662 0.00511246)
(0.0604675 -0.00142279 0.00435795)
(0.060427 -0.000852472 0.00398753)
(0.061818 -0.000169177 0.00383502)
(0.0640581 0.000229915 0.00405887)
(0.0668843 -0.000231798 0.00487078)
(0.0701887 -0.00178265 0.00607145)
(0.0735147 -0.00400102 0.00700942)
(0.076966 -0.00601273 0.00674654)
(0.0824445 -0.00667388 0.00424455)
(0.0906396 -0.00540732 -0.000728667)
(0.0977024 -0.00296688 -0.00684145)
(0.100358 -0.000869285 -0.0117766)
(0.0994591 0.000159651 -0.0137422)
(0.0965661 4.5428e-05 -0.012731)
(0.0925613 -0.000511074 -0.011166)
(0.0877515 -0.000737089 -0.011122)
(0.0818626 -0.000627446 -0.012086)
(0.0752056 -0.000423188 -0.0123749)
(0.0696594 -8.32344e-05 -0.0113994)
(0.0672545 0.000226482 -0.0100867)
(0.0683847 9.5274e-05 -0.0095337)
(0.0802905 -0.00164603 -0.0149415)
(0.0838687 -0.00309646 -0.0157203)
(0.0892414 -0.00355349 -0.0144531)
(0.0961021 -0.00305302 -0.0114989)
(0.106097 -0.002334 -0.00663628)
(0.118327 -0.00164116 0.000547519)
(0.125263 -0.000818461 0.00805904)
(0.123151 -0.000260429 0.0126942)
(0.116931 -4.9305e-05 0.0133352)
(0.112536 -0.000119417 0.0117738)
(0.111266 -0.000290205 0.0109024)
(0.111118 -0.000384431 0.0111397)
(0.110233 -0.000319999 0.0104005)
(0.108334 -0.000239342 0.00800797)
(0.105638 -0.00031824 0.00617862)
(0.101436 -0.000581109 0.00645762)
(0.0944541 -0.00102732 0.00738172)
(0.0850981 -0.0015669 0.00709672)
(0.076252 -0.00193907 0.00597174)
(0.0706172 -0.00186938 0.00518387)
(0.0685801 -0.00129251 0.00497085)
(0.069033 -0.000369336 0.00510021)
(0.0708554 0.00023141 0.00561908)
(0.0735342 -0.000444837 0.006769)
(0.0768695 -0.00268772 0.00844689)
(0.0799438 -0.00581315 0.0102142)
(0.0815013 -0.00872154 0.0116501)
(0.0831071 -0.0101743 0.0119354)
(0.0895456 -0.00929186 0.00928735)
(0.100897 -0.00629315 0.00252966)
(0.110885 -0.00278753 -0.00616292)
(0.115481 -0.000585355 -0.0120543)
(0.115223 -0.00020506 -0.0131861)
(0.111726 -0.000662593 -0.0118592)
(0.106891 -0.000833965 -0.0112351)
(0.101199 -0.00065492 -0.011945)
(0.0941365 -0.000433169 -0.012565)
(0.0867518 -0.000131772 -0.0123221)
(0.0814099 0.000109182 -0.0121183)
(0.0793137 -0.000316211 -0.0131168)
(0.0930419 -0.00239544 -0.0171928)
(0.092072 -0.00485547 -0.0205189)
(0.0931783 -0.00593539 -0.0212594)
(0.0960009 -0.00566131 -0.0197193)
(0.101752 -0.00528693 -0.0164548)
(0.114089 -0.00473463 -0.0104699)
(0.128727 -0.00317865 -0.00137552)
(0.133981 -0.00146736 0.00743683)
(0.129449 -0.000596117 0.0117444)
(0.124055 -0.000371027 0.0112488)
(0.122888 -0.000452584 0.00989509)
(0.124134 -0.000656002 0.0106845)
(0.124396 -0.000675005 0.0117351)
(0.123169 -0.000462891 0.0100771)
(0.121802 -0.000277273 0.00700157)
(0.120107 -0.000315012 0.00592789)
(0.115528 -0.000563011 0.00681985)
(0.10607 -0.00100802 0.00721632)
(0.0938269 -0.00160009 0.00653665)
(0.0834357 -0.00195172 0.00583194)
(0.0776577 -0.0015961 0.00565461)
(0.0761629 -0.00052152 0.00585651)
(0.0774249 0.000340322 0.00636861)
(0.0803583 -0.000346004 0.00748496)
(0.084371 -0.00297052 0.00923084)
(0.0884566 -0.00665343 0.0110751)
(0.0904375 -0.0101758 0.0128644)
(0.0889767 -0.0125028 0.0150895)
(0.0888461 -0.0125695 0.0163405)
(0.0967283 -0.0100216 0.0128989)
(0.110652 -0.00592495 0.00385173)
(0.123181 -0.00234711 -0.00598847)
(0.128714 -0.000958407 -0.0112129)
(0.126976 -0.00105378 -0.0119497)
(0.122071 -0.0010795 -0.0113013)
(0.117094 -0.000638316 -0.0112925)
(0.11138 -0.000171871 -0.0115939)
(0.104604 0.000202095 -0.0114408)
(0.0987325 0.000411081 -0.011568)
(0.0951337 -0.000304648 -0.0134577)
(0.110646 -0.00195718 -0.0145084)
(0.106309 -0.00542403 -0.0204607)
(0.101683 -0.00755904 -0.0244208)
(0.100077 -0.00766563 -0.0248002)
(0.101248 -0.00769551 -0.0223092)
(0.10805 -0.00812581 -0.0173581)
(0.122929 -0.00690288 -0.00959271)
(0.136181 -0.00385441 0.000272221)
(0.136678 -0.00168457 0.00798044)
(0.129934 -0.00118105 0.00984992)
(0.127454 -0.00114478 0.00799994)
(0.131189 -0.00105966 0.00796082)
(0.13436 -0.00100493 0.0104261)
(0.133231 -0.000919575 0.010984)
(0.131249 -0.000719974 0.00809389)
(0.131967 -0.00046241 0.0055405)
(0.132657 -0.000246385 0.00567134)
(0.127523 -0.000341309 0.00647619)
(0.115367 -0.000795815 0.00644559)
(0.100958 -0.00142159 0.00618695)
(0.089976 -0.00149691 0.00625421)
(0.0847978 -0.000548313 0.0065735)
(0.0846001 0.000499976 0.0070497)
(0.0875853 -4.75125e-05 0.0078806)
(0.0922876 -0.00274823 0.00911572)
(0.0974454 -0.00655264 0.0104227)
(0.101107 -0.0100792 0.0117359)
(0.100501 -0.012636 0.0142102)
(0.096172 -0.0138462 0.0181241)
(0.0962981 -0.0127075 0.0190839)
(0.10664 -0.0092853 0.013001)
(0.123024 -0.00520427 0.00244273)
(0.134953 -0.00230403 -0.00641324)
(0.133991 -0.00109445 -0.0103969)
(0.124931 -0.000816747 -0.0104682)
(0.118332 -0.000766283 -0.00924276)
(0.116606 -0.00043587 -0.00843687)
(0.11557 0.000352046 -0.008074)
(0.113648 0.00098958 -0.00816402)
(0.112324 0.000461935 -0.00994835)
(0.125511 -0.000587724 -0.00745701)
(0.123208 -0.00412018 -0.0152029)
(0.11495 -0.00730828 -0.0226925)
(0.108046 -0.00824953 -0.026485)
(0.105964 -0.00847874 -0.0257408)
(0.108149 -0.00990223 -0.0213118)
(0.11712 -0.0104662 -0.0144502)
(0.131899 -0.00765103 -0.0056962)
(0.141042 -0.00347671 0.00308654)
(0.137608 -0.00173738 0.00751059)
(0.130306 -0.00222656 0.00623306)
(0.130913 -0.00251836 0.00445984)
(0.138142 -0.00162167 0.00654749)
(0.140734 -0.000584691 0.00928146)
(0.136108 -0.000583971 0.00827826)
(0.133085 -0.00135413 0.0054011)
(0.13736 -0.00152861 0.00453125)
(0.141627 -0.000780587 0.00528306)
(0.136352 -0.000201002 0.00572558)
(0.122448 -0.00043104 0.00590443)
(0.10713 -0.000705052 0.00650138)
(0.0966003 -0.000182313 0.00745857)
(0.0930819 0.000651098 0.00829258)
(0.0953025 2.4717e-05 0.00858828)
(0.100736 -0.00273345 0.00830894)
(0.107035 -0.00640421 0.00802679)
(0.111866 -0.00952441 0.00847779)
(0.112771 -0.0114694 0.0108575)
(0.108437 -0.0127212 0.0160747)
(0.103023 -0.0132509 0.020624)
(0.106111 -0.0118844 0.0181478)
(0.119696 -0.00853341 0.00854923)
(0.133289 -0.00404915 -0.00212639)
(0.133248 -0.000459572 -0.00859185)
(0.12141 0.000788142 -0.00932136)
(0.111015 -2.0059e-05 -0.00641352)
(0.108784 -0.000811524 -0.00322255)
(0.112118 -0.000240204 -0.00155558)
(0.116894 0.000898978 -0.00128623)
(0.121896 0.00112462 -0.00274311)
(0.129409 0.000241752 0.00227219)
(0.134744 -0.00197628 -0.00654659)
(0.129323 -0.00514967 -0.0169238)
(0.118648 -0.00718867 -0.024435)
(0.112378 -0.00794212 -0.0271141)
(0.112511 -0.00961661 -0.024639)
(0.117149 -0.011844 -0.0184814)
(0.126841 -0.0113701 -0.0106149)
(0.139099 -0.00724021 -0.00221872)
(0.144782 -0.00302523 0.00400457)
(0.139925 -0.00221173 0.0049667)
(0.132673 -0.00360306 0.00267923)
(0.13415 -0.00357964 0.00283054)
(0.14162 -0.00102526 0.00587813)
(0.143137 0.00102659 0.0071391)
(0.137551 -0.000217486 0.00541916)
(0.135334 -0.00314488 0.00402558)
(0.142048 -0.00384193 0.00452744)
(0.147772 -0.00185509 0.00527198)
(0.142136 5.84998e-05 0.00544314)
(0.127658 0.000843973 0.00603761)
(0.112818 0.00114899 0.00786689)
(0.104358 0.00105433 0.0099491)
(0.103934 -0.00056145 0.0101406)
(0.10909 -0.00378348 0.00774836)
(0.116577 -0.00704577 0.00476961)
(0.12315 -0.00914439 0.00347941)
(0.125402 -0.0100361 0.00522681)
(0.121642 -0.0103887 0.0111049)
(0.113773 -0.0112675 0.0185537)
(0.109764 -0.0122223 0.0201355)
(0.116768 -0.0108225 0.0125953)
(0.128197 -0.00583702 0.00138932)
(0.130143 5.57368e-05 -0.00667896)
(0.120717 0.00290929 -0.00863548)
(0.110281 0.00173583 -0.00563429)
(0.105815 -0.00045048 -0.000726001)
(0.107349 -0.000822396 0.00338541)
(0.112225 0.000248707 0.00576409)
(0.119684 0.000939824 0.00606107)
(0.124534 1.77725e-05 0.00965748)
(0.136807 -0.000444706 0.00231227)
(0.139449 -0.00198776 -0.00936489)
(0.130681 -0.00440682 -0.019338)
(0.120857 -0.00640374 -0.0251537)
(0.117994 -0.00846944 -0.0259914)
(0.121373 -0.0111396 -0.0220454)
(0.127113 -0.0128618 -0.0152846)
(0.135525 -0.0112944 -0.00747818)
(0.144716 -0.00683903 -0.000336781)
(0.147215 -0.00324575 0.00314634)
(0.140635 -0.00299848 0.00229932)
(0.133812 -0.00405983 0.00119572)
(0.136154 -0.00288372 0.00304576)
(0.143284 0.000303593 0.00541683)
(0.145014 0.00132975 0.00539166)
(0.140564 -0.00198401 0.00393221)
(0.139212 -0.00609151 0.00358711)
(0.145861 -0.00612665 0.00471013)
(0.151068 -0.00214206 0.00530425)
(0.145114 0.00178741 0.00531883)
(0.131502 0.00349233 0.00729266)
(0.119821 0.00266149 0.0110319)
(0.115019 -0.000667883 0.0118715)
(0.116258 -0.00528439 0.00728507)
(0.122094 -0.00890132 0.00124352)
(0.130794 -0.00998378 -0.00172364)
(0.136572 -0.00912781 -0.00086757)
(0.134434 -0.0079883 0.00444037)
(0.125694 -0.00798972 0.0136743)
(0.116835 -0.0100053 0.0195774)
(0.116505 -0.0109924 0.0156014)
(0.123369 -0.00710248 0.00525973)
(0.126603 -1.86926e-05 -0.00378389)
(0.12252 0.00438667 -0.00791163)
(0.116425 0.00364278 -0.00747548)
(0.111998 0.00079517 -0.00370533)
(0.11032 -0.000343189 0.00165286)
(0.111137 0.000178858 0.00661597)
(0.114859 0.000415439 0.0100559)
(0.121039 -0.00121952 0.00908779)
(0.13403 -0.000800637 0.00607729)
(0.143758 0.000479179 -0.00339632)
(0.141002 -0.000714527 -0.0135695)
(0.131533 -0.0037693 -0.0208168)
(0.125227 -0.00695568 -0.0242963)
(0.126494 -0.00972191 -0.023463)
(0.13146 -0.0121906 -0.0191567)
(0.136319 -0.0133091 -0.0125239)
(0.142295 -0.0110399 -0.00481743)
(0.147076 -0.00620332 0.000917766)
(0.145097 -0.00298556 0.00218924)
(0.138185 -0.00293841 0.00100909)
(0.134931 -0.00335154 0.00156883)
(0.139466 -0.00176431 0.00422032)
(0.1459 0.000183983 0.00594685)
(0.147099 -0.000888507 0.0051171)
(0.143453 -0.00523719 0.00320389)
(0.142296 -0.00859557 0.00301203)
(0.147138 -0.0065472 0.00420437)
(0.15038 -0.000584475 0.00471422)
(0.144948 0.00409916 0.00654153)
(0.13489 0.00473482 0.0109185)
(0.127068 0.00165396 0.01215)
(0.122956 -0.0037549 0.00593723)
(0.123079 -0.00915134 -0.00260031)
(0.13056 -0.011464 -0.00623249)
(0.141285 -0.00978791 -0.00501479)
(0.144166 -0.00677868 -0.000952694)
(0.1366 -0.00508405 0.00743031)
(0.125445 -0.00637193 0.0164704)
(0.119429 -0.00865174 0.0172707)
(0.121176 -0.0067034 0.00923634)
(0.123914 -0.000158704 -0.000246016)
(0.12378 0.00481377 -0.0063552)
(0.122779 0.00482536 -0.00877398)
(0.121336 0.00231262 -0.0079037)
(0.118839 0.000977734 -0.00418519)
(0.116242 0.00100454 0.000910939)
(0.11556 0.000184032 0.00602049)
(0.124557 -0.00232039 0.0030834)
(0.132735 -0.00269161 0.00408543)
(0.144737 0.000553659 -0.000843789)
(0.148838 0.00196305 -0.0087755)
(0.142782 -0.000673257 -0.0163364)
(0.134554 -0.00463816 -0.0214455)
(0.132247 -0.00785628 -0.0227752)
(0.136275 -0.0104518 -0.0210194)
(0.140864 -0.0129917 -0.0167258)
(0.143442 -0.013275 -0.00948987)
(0.145606 -0.00920873 -0.00194214)
(0.145315 -0.0038173 0.00161645)
(0.141099 -0.00168144 0.00121952)
(0.137057 -0.00253077 0.00104386)
(0.1383 -0.00290248 0.00358571)
(0.144169 -0.00157623 0.00687571)
(0.14913 -0.00107191 0.00740942)
(0.149353 -0.00352427 0.00441832)
(0.14539 -0.0073094 0.00152182)
(0.142226 -0.00809492 0.00209346)
(0.142211 -0.00402252 0.0048825)
(0.140819 0.00149695 0.00825258)
(0.136017 0.00455556 0.0111975)
(0.13152 0.00394431 0.0100444)
(0.128825 -0.000165716 0.00294164)
(0.126617 -0.00656014 -0.00540301)
(0.129503 -0.0114669 -0.00823935)
(0.140535 -0.0114155 -0.00562556)
(0.148917 -0.00752522 -0.00209492)
(0.14476 -0.00401137 0.00328283)
(0.133219 -0.00344966 0.0119641)
(0.124151 -0.00507596 0.0167478)
(0.122137 -0.00427899 0.01249)
(0.123874 0.000709819 0.00378473)
(0.125687 0.00479904 -0.00356296)
(0.127939 0.0046446 -0.00807962)
(0.129893 0.00283354 -0.010064)
(0.129477 0.00236257 -0.009469)
(0.126789 0.00268102 -0.00637614)
(0.124008 0.000987988 -0.0016107)
(0.132082 -0.00174777 -0.000503781)
(0.133232 -0.00365622 0.00203779)
(0.141835 -0.000898684 0.000145169)
(0.150836 0.00249183 -0.00521641)
(0.151045 0.0017289 -0.0122288)
(0.144214 -0.00161322 -0.0184157)
(0.139437 -0.00498899 -0.0212114)
(0.141509 -0.00809333 -0.0209603)
(0.146671 -0.0115624 -0.0188474)
(0.148849 -0.0136617 -0.0136681)
(0.147949 -0.0111671 -0.00586702)
(0.146085 -0.00502755 -0.000196376)
(0.142955 -0.00060236 0.00112317)
(0.139627 -0.000607118 0.00128365)
(0.139252 -0.00246466 0.00358267)
(0.143282 -0.0028487 0.00747411)
(0.149045 -0.00222042 0.00910464)
(0.151885 -0.0027976 0.00611921)
(0.148268 -0.00478243 0.00173751)
(0.139917 -0.00626989 0.00115919)
(0.132671 -0.00521184 0.00452056)
(0.129251 -0.00159524 0.00768626)
(0.129263 0.00235614 0.00782354)
(0.131877 0.0044621 0.00444936)
(0.134397 0.00296242 -0.00162035)
(0.133988 -0.00258494 -0.0074559)
(0.134014 -0.00937011 -0.00865799)
(0.141062 -0.0124034 -0.00469895)
(0.150486 -0.0094707 -0.000283425)
(0.149804 -0.00459491 0.00322273)
(0.139 -0.00206409 0.00920105)
(0.128436 -0.00199021 0.0144251)
(0.124632 -0.00101364 0.0128538)
(0.126176 0.00244735 0.00595348)
(0.128529 0.00509169 -0.00064598)
(0.129931 0.00418685 -0.00481518)
(0.131455 0.00204916 -0.0079048)
(0.133599 0.00181714 -0.010175)
(0.135091 0.00289129 -0.00967484)
(0.134429 0.00192189 -0.00565385)
(0.135092 -9.58206e-05 0.00180922)
(0.132578 -0.00208681 0.0032372)
(0.135783 -0.00102995 0.00153714)
(0.14516 0.00177351 -0.00249938)
(0.152011 0.00262385 -0.00855048)
(0.150527 0.00113938 -0.0150422)
(0.146499 -0.00129675 -0.0189394)
(0.147629 -0.00461387 -0.0196396)
(0.152912 -0.0091273 -0.0189279)
(0.155596 -0.0126051 -0.0163823)
(0.153224 -0.0115717 -0.0104104)
(0.14904 -0.00597018 -0.00363603)
(0.145337 -0.000351705 0.000304272)
(0.142529 0.00125038 0.00213122)
(0.141615 -0.000426672 0.00407151)
(0.143671 -0.00222136 0.00677002)
(0.147502 -0.00277533 0.00878636)
(0.150082 -0.00304694 0.00775662)
(0.148099 -0.00341877 0.00376906)
(0.141072 -0.00358511 0.000484598)
(0.132924 -0.00317502 0.000698385)
(0.128288 -0.00199083 0.00254512)
(0.129266 -0.000119029 0.00286948)
(0.134388 0.00201344 0.000545646)
(0.138761 0.00277448 -0.0037716)
(0.138977 0.000185644 -0.00759034)
(0.138109 -0.00592938 -0.0078937)
(0.142202 -0.0116743 -0.00419575)
(0.150102 -0.0112864 0.000305537)
(0.151645 -0.00582106 0.00368892)
(0.143541 -0.00142376 0.00839799)
(0.133556 -4.9789e-05 0.0127316)
(0.128396 0.00121966 0.0116727)
(0.127694 0.00416798 0.00637381)
(0.127318 0.00623756 0.00208924)
(0.125936 0.00497841 2.30567e-05)
(0.125806 0.00204352 -0.0023519)
(0.128723 0.000711335 -0.00532711)
(0.133577 0.00158467 -0.00576392)
(0.136531 0.00189701 -0.00238372)
(0.135088 0.000156816 0.00346768)
(0.132495 0.000251016 0.00512077)
(0.132467 0.00089511 0.00383731)
(0.138328 0.0023264 0.000150986)
(0.146906 0.0032633 -0.00509598)
(0.151935 0.00305977 -0.0106271)
(0.152849 0.0019584 -0.0144372)
(0.155116 -0.000763192 -0.0160547)
(0.160261 -0.00574148 -0.0170396)
(0.162841 -0.010388 -0.0171887)
(0.159505 -0.0104817 -0.0138064)
(0.153374 -0.00566029 -0.00726628)
(0.148143 -8.15654e-06 -0.00155361)
(0.14482 0.00232002 0.00192097)
(0.143652 0.00123989 0.00427831)
(0.144733 -0.000644772 0.00611522)
(0.146261 -0.00192181 0.00753658)
(0.146131 -0.00289523 0.00768197)
(0.143823 -0.00314722 0.00515539)
(0.139858 -0.00213479 0.000975992)
(0.135911 -0.000901084 -0.00133195)
(0.134042 -0.000927043 -0.0005522)
(0.135354 -0.00165063 0.000989103)
(0.138772 -0.000933304 0.000543863)
(0.140671 0.00105631 -0.00207413)
(0.139304 0.00134889 -0.00429474)
(0.137958 -0.00260887 -0.00380487)
(0.140717 -0.00899409 -0.00105654)
(0.147274 -0.0114972 0.00205931)
(0.151161 -0.00745426 0.00455817)
(0.147733 -0.00168095 0.00785072)
(0.140184 0.00190983 0.0109455)
(0.133379 0.00426082 0.010365)
(0.128477 0.00655396 0.0066498)
(0.124451 0.00746424 0.00387083)
(0.121992 0.00525492 0.003251)
(0.122391 0.00100693 0.00250107)
(0.125759 -0.00203136 0.000346862)
(0.131049 -0.00214153 -0.00104189)
(0.135119 -0.000707233 0.000395851)
(0.133564 0.000707711 0.00512319)
(0.131834 0.00281114 0.00632317)
(0.131612 0.0046188 0.00600725)
(0.135118 0.00524346 0.00375746)
(0.14142 0.00446775 -0.000285447)
(0.14784 0.00371898 -0.00542045)
(0.153387 0.00381867 -0.00958469)
(0.159529 0.00268525 -0.0117128)
(0.165835 -0.00160585 -0.0132355)
(0.168234 -0.00683841 -0.0152036)
(0.16461 -0.00807902 -0.0151129)
(0.157852 -0.00412623 -0.0107117)
(0.151658 0.000860735 -0.00454968)
(0.147307 0.00292415 0.000184576)
(0.144738 0.00203686 0.00321779)
(0.143849 0.000662107 0.00517301)
(0.143495 -0.000133599 0.00638873)
(0.14217 -0.000906279 0.00676638)
(0.13993 -0.00132664 0.00520783)
(0.13832 -0.000488918 0.00174765)
(0.139125 0.000397519 -0.00103684)
(0.142159 -0.000939532 -0.000990975)
(0.144427 -0.00370013 0.000828666)
(0.143504 -0.00419112 0.00160838)
(0.140143 -0.00122674 0.000876434)
(0.137236 0.00163045 0.0011588)
(0.13744 5.14104e-05 0.00309711)
(0.141113 -0.00580489 0.00476252)
(0.146624 -0.0104845 0.00538692)
(0.150469 -0.00884696 0.00571319)
(0.149233 -0.00261076 0.00731759)
(0.143528 0.00291765 0.00914143)
(0.136092 0.00595057 0.00839251)
(0.128554 0.0074703 0.0057845)
(0.122712 0.00794776 0.00502076)
(0.120627 0.00634286 0.00674457)
(0.12224 0.00272287 0.00771302)
(0.125963 -0.000804195 0.00615807)
(0.130345 -0.00225435 0.00410004)
(0.133456 -0.00133396 0.00380858)
(0.13652 0.00248228 0.00486953)
(0.13594 0.0045745 0.00608411)
(0.134947 0.00681289 0.00702314)
(0.136165 0.00789458 0.00627253)
(0.139601 0.00648072 0.00308707)
(0.144084 0.00333104 -0.00146393)
(0.149739 0.00110094 -0.00522188)
(0.157284 0.000692376 -0.00747098)
(0.164804 0.000201905 -0.00949555)
(0.167967 -0.00183706 -0.0121636)
(0.165659 -0.00339042 -0.0139695)
(0.161266 -0.0019039 -0.0125852)
(0.157758 0.00110476 -0.00829945)
(0.154786 0.00271887 -0.00373131)
(0.150923 0.00260476 -0.000402686)
(0.146527 0.00182359 0.00176968)
(0.142795 0.000793497 0.0032114)
(0.140165 -0.000290552 0.0042759)
(0.13905 -0.00069752 0.00491565)
(0.140556 1.3738e-05 0.00428687)
(0.145668 0.000625086 0.00221155)
(0.152231 -0.00083005 0.000139608)
(0.154945 -0.00382955 0.000610258)
(0.151229 -0.00491956 0.00391343)
(0.144327 -0.00215834 0.0071649)
(0.139636 0.00185712 0.00803677)
(0.139524 0.00281994 0.0063009)
(0.142575 -0.00106441 0.00400314)
(0.146771 -0.00670159 0.0034949)
(0.149866 -0.00750633 0.0039615)
(0.148792 -0.0020666 0.00433358)
(0.142832 0.00466565 0.00549182)
(0.134456 0.00844125 0.00619433)
(0.126721 0.00935302 0.00577265)
(0.121992 0.00885491 0.00584103)
(0.121128 0.00735068 0.00698559)
(0.123057 0.00479656 0.00768055)
(0.126266 0.00203134 0.00691952)
(0.130256 0.000533506 0.00540556)
(0.134352 0.000884676 0.00449538)
(0.137216 0.00365955 0.00417259)
(0.136433 0.00475854 0.00484009)
(0.135183 0.00649591 0.00578426)
(0.135767 0.00781985 0.00640177)
(0.138805 0.00693266 0.00550102)
(0.143067 0.00342683 0.00231128)
(0.147518 -0.000742342 -0.00214206)
(0.152726 -0.00304535 -0.00586395)
(0.159352 -0.00320446 -0.00804112)
(0.165149 -0.00256433 -0.00953076)
(0.166444 -0.0016921 -0.010881)
(0.163354 1.54294e-05 -0.0111578)
(0.159517 0.00224108 -0.00943119)
(0.157194 0.00337351 -0.00643866)
(0.155589 0.00347413 -0.0036361)
(0.153276 0.00350862 -0.00179277)
(0.149887 0.00295099 -0.000698651)
(0.14589 0.000755217 0.000602195)
(0.142838 -0.00245688 0.00266651)
(0.143031 -0.00519426 0.00465845)
(0.147349 -0.00696659 0.00503933)
(0.153261 -0.00789414 0.00344794)
(0.155868 -0.00794785 0.00226167)
(0.153138 -0.00662723 0.00414555)
(0.147665 -0.0028081 0.00740545)
(0.143071 0.00303566 0.00748706)
(0.140602 0.00714649 0.00319016)
(0.139937 0.00542921 -0.0017224)
(0.141647 -0.00122089 -0.00273502)
(0.144984 -0.00601708 -0.000265125)
(0.146276 -0.00363251 0.00200954)
(0.142777 0.00358705 0.00341099)
(0.136313 0.00970786 0.00459163)
(0.130994 0.012512 0.00483081)
(0.128963 0.0128365 0.00379552)
(0.129597 0.011377 0.00222337)
(0.131006 0.00858379 0.00116169)
(0.132277 0.00556 0.00132354)
(0.133935 0.00368678 0.00242886)
(0.136068 0.00322586 0.00351255)
(0.140789 0.00510472 0.00178511)
(0.137811 0.00530342 0.00522407)
(0.134982 0.00467789 0.0081373)
(0.134639 0.00320041 0.0105079)
(0.137794 0.00101353 0.0113618)
(0.14367 -0.00153397 0.00957505)
(0.150322 -0.00367432 0.00507178)
(0.155463 -0.00444727 -0.000714153)
(0.157755 -0.0035336 -0.00592932)
(0.157121 -0.00140398 -0.00933224)
(0.154394 0.00119538 -0.0103612)
(0.150968 0.00343943 -0.00943142)
(0.147933 0.00452972 -0.00797995)
(0.146107 0.00415932 -0.00700293)
(0.146125 0.00292916 -0.00614162)
(0.148155 0.00175133 -0.00494744)
(0.151317 0.00101857 -0.00383996)
(0.15371 0.000776378 -0.00310816)
(0.154101 0.000158623 -0.00184533)
(0.153255 -0.00229494 0.000840979)
(0.152764 -0.00658877 0.00424342)
(0.153274 -0.0101025 0.0067519)
(0.153738 -0.00981428 0.00770363)
(0.152448 -0.00570498 0.00779899)
(0.149032 -0.000430516 0.00736812)
(0.144909 0.0036981 0.00524589)
(0.141742 0.00528605 0.000910074)
(0.140556 0.00338545 -0.00340998)
(0.141727 -0.00136237 -0.0041962)
(0.144215 -0.00587553 -0.000780234)
(0.145643 -0.00575886 0.00365856)
(0.144402 -0.000255418 0.0063852)
(0.141701 0.00673927 0.00695038)
(0.14038 0.0117328 0.0052369)
(0.141374 0.0137956 0.00120375)
(0.143013 0.0129787 -0.00383643)
(0.143503 0.00986983 -0.00772272)
(0.142893 0.00616647 -0.00875143)
(0.142383 0.00410487 -0.00651937)
(0.142146 0.00425451 -0.00239303)
(0.148168 0.00572645 -0.0057631)
(0.146866 0.00641655 -0.00248431)
(0.147473 0.00499871 0.00114711)
(0.149329 0.00207581 0.00521188)
(0.15098 -0.00100456 0.00939182)
(0.151733 -0.0032055 0.012578)
(0.152867 -0.00419231 0.0130472)
(0.155628 -0.00364408 0.00982217)