/*--------------------------------*- C++ -*----------------------------------*\
| =========                 |                                                 |
| \\      /  F ield         | OpenFOAM: The Open Source CFD Toolbox           |
|  \\    /   O peration     | Version:  2306                                  |
|   \\  /    A nd           | Website:  www.openfoam.com                      |
|    \\/     M anipulation  |                                                 |
\*---------------------------------------------------------------------------*/
FoamFile
{
    version     2.0;
    format      ascii;
    arch        "LSB;label=32;scalar=64";
    class       volVectorField;
    location    "6.5";
    object      UMean;
}
// * * * * * * * * * * * * * * * * * * * * * * * * * * * * * * * * * * * * * //

dimensions      [0 1 -1 0 0 0 0];

internalField   nonuniform List<vector> 
60000
(
(0.00965954 3.20491e-05 0.00173412)
(0.00988684 2.30556e-05 0.00196038)
(0.00993613 1.58713e-05 0.00212816)
(0.00983149 9.47365e-06 0.00221166)
(0.00962312 3.08908e-06 0.00216904)
(0.00933654 -1.74056e-06 0.00198444)
(0.00897395 -3.72983e-06 0.00170239)
(0.00851909 -4.27245e-06 0.00140965)
(0.00798434 -6.1283e-06 0.00118735)
(0.00742617 -9.95237e-06 0.00108051)
(0.00689169 -1.41154e-05 0.00107726)
(0.00641984 -1.5819e-05 0.00110626)
(0.00606128 -1.51555e-05 0.00108761)
(0.00585237 -1.34216e-05 0.000987449)
(0.00580272 -1.12721e-05 0.000818345)
(0.00587392 -8.94396e-06 0.000603223)
(0.00602267 -4.87788e-06 0.000364161)
(0.00622883 4.65393e-07 0.000120202)
(0.00648182 6.13341e-06 -0.000125076)
(0.00678358 1.07585e-05 -0.000387251)
(0.0071457 1.39481e-05 -0.000681914)
(0.00755123 1.51849e-05 -0.00100155)
(0.00796019 1.30765e-05 -0.0013199)
(0.00832544 7.37463e-06 -0.00161821)
(0.008579 1.31908e-07 -0.00188455)
(0.00865573 -5.4365e-06 -0.00210824)
(0.00854169 -8.5112e-06 -0.00226406)
(0.00824627 -8.80274e-06 -0.00232574)
(0.00779578 -5.91754e-06 -0.00230563)
(0.00727372 -9.49689e-07 -0.00224537)
(0.00681704 3.39029e-06 -0.00214887)
(0.00653381 6.3972e-06 -0.00196363)
(0.00646168 1.00236e-05 -0.00165699)
(0.00659114 1.5675e-05 -0.00125555)
(0.00689031 2.36949e-05 -0.000797731)
(0.00731393 3.12536e-05 -0.000303601)
(0.00779838 3.89442e-05 0.000199608)
(0.00830195 4.4869e-05 0.000678092)
(0.00880719 4.59302e-05 0.00110534)
(0.00927918 4.09999e-05 0.00145511)
(0.0293803 0.000122312 0.00460924)
(0.0301701 8.10853e-05 0.0051462)
(0.0304122 5.07831e-05 0.00553271)
(0.0301748 2.37868e-05 0.00572344)
(0.0295784 1.55453e-06 0.00562541)
(0.0286897 -7.61024e-06 0.00518707)
(0.02756 -4.78741e-06 0.00450038)
(0.0262013 -4.6848e-06 0.00377675)
(0.0246546 -2.41266e-05 0.00322333)
(0.0230325 -6.31663e-05 0.00294988)
(0.0214292 -0.000104962 0.00291624)
(0.0199527 -0.000136761 0.00294358)
(0.0187688 -0.000157499 0.00284899)
(0.0179993 -0.000164651 0.00256413)
(0.0176811 -0.00015333 0.00212056)
(0.0177235 -0.000124107 0.00157007)
(0.0180319 -8.30588e-05 0.000968299)
(0.0185767 -4.07998e-05 0.000353808)
(0.0193383 -6.10919e-06 -0.000283841)
(0.0203035 1.37844e-05 -0.000991888)
(0.0214772 1.96983e-05 -0.00180612)
(0.0228021 1.36318e-05 -0.00269807)
(0.0241682 -8.54529e-06 -0.00358116)
(0.0254283 -4.39728e-05 -0.00437804)
(0.0263601 -7.85245e-05 -0.00503877)
(0.026742 -9.88477e-05 -0.00554335)
(0.026497 -0.000100135 -0.00586366)
(0.0256259 -8.10322e-05 -0.00597531)
(0.0242228 -5.14517e-05 -0.00592402)
(0.022574 -2.88526e-05 -0.00579392)
(0.0211077 -2.05032e-05 -0.00556733)
(0.0201433 -1.33294e-05 -0.00511068)
(0.0197753 1.10981e-05 -0.00433545)
(0.0199811 5.8312e-05 -0.0032803)
(0.0207084 0.000120327 -0.00203078)
(0.0218697 0.000180226 -0.000666961)
(0.0232988 0.000227681 0.00069748)
(0.0248765 0.000244933 0.00195331)
(0.0265292 0.000223973 0.00304412)
(0.0281025 0.000176038 0.00392305)
(0.0496305 0.000175149 0.00666511)
(0.0511943 8.30125e-05 0.00747235)
(0.0518241 2.13984e-05 0.00803816)
(0.0516064 -2.82511e-05 0.00834554)
(0.0507095 -6.11763e-05 0.00829703)
(0.0492574 -6.19484e-05 0.00779243)
(0.0474183 -4.20038e-05 0.00689569)
(0.0452827 -3.7434e-05 0.00587066)
(0.042864 -8.2365e-05 0.00502959)
(0.0402351 -0.000173758 0.00456221)
(0.0375176 -0.000270231 0.00443781)
(0.0349065 -0.000346022 0.00442691)
(0.0326869 -0.000400501 0.00428628)
(0.0310707 -0.000423001 0.00391085)
(0.0301613 -0.000397463 0.00332008)
(0.0298855 -0.000323782 0.00257078)
(0.0301414 -0.000224865 0.00174615)
(0.0308967 -0.000129384 0.000906318)
(0.0321131 -5.77666e-05 2.45965e-05)
(0.0337396 -2.58714e-05 -0.000983981)
(0.0357622 -3.19668e-05 -0.00218822)
(0.0380912 -6.95731e-05 -0.00356019)
(0.0405591 -0.000144029 -0.00496184)
(0.0429312 -0.000243632 -0.00623873)
(0.0448392 -0.00033084 -0.00727659)
(0.0458722 -0.000372646 -0.00803235)
(0.0458192 -0.000356659 -0.00849058)
(0.0446115 -0.000283017 -0.00865316)
(0.0423716 -0.00018718 -0.00860899)
(0.0395543 -0.000120803 -0.00849208)
(0.0368732 -9.9488e-05 -0.00828464)
(0.0349061 -8.26674e-05 -0.00778864)
(0.0338749 -2.07498e-05 -0.00683119)
(0.0337972 9.75888e-05 -0.00540208)
(0.0346397 0.000246491 -0.00359226)
(0.036332 0.000388591 -0.00153213)
(0.0386521 0.00049334 0.000572832)
(0.0413904 0.000515347 0.00251776)
(0.0443615 0.000440925 0.00421273)
(0.0472414 0.000309012 0.00559442)
(0.0694599 0.000102966 0.00748568)
(0.0720671 -4.2666e-05 0.00866516)
(0.0733732 -0.000122455 0.0094722)
(0.0734447 -0.000177407 0.00995851)
(0.0724629 -0.00020079 0.0100936)
(0.0706072 -0.000169055 0.00974696)
(0.0682184 -0.000109265 0.00887907)
(0.0655518 -8.18747e-05 0.00770944)
(0.062568 -0.000141078 0.00662919)
(0.059157 -0.000285265 0.00594806)
(0.0553815 -0.000448693 0.0056916)
(0.0515398 -0.00058533 0.00561329)
(0.0480543 -0.000693297 0.00544496)
(0.0452298 -0.000752306 0.00506663)
(0.0432706 -0.000729313 0.00447226)
(0.0422079 -0.000618462 0.00369097)
(0.0420148 -0.000460253 0.00281904)
(0.0426807 -0.000311164 0.001956)
(0.0441398 -0.000207823 0.00107126)
(0.046281 -0.000178154 2.8505e-05)
(0.049066 -0.000222473 -0.00130766)
(0.0523864 -0.00032629 -0.00296261)
(0.0560314 -0.000490805 -0.00479475)
(0.0597048 -0.000688689 -0.00657899)
(0.0629279 -0.000846963 -0.00810178)
(0.0650925 -0.000904108 -0.00924634)
(0.0657935 -0.000839498 -0.00998084)
(0.0648114 -0.000658111 -0.0103158)
(0.0621961 -0.000437408 -0.0103649)
(0.0584454 -0.000286502 -0.0103355)
(0.0544675 -0.000244051 -0.010284)
(0.0511265 -0.000234097 -0.0100067)
(0.0489002 -0.000153846 -0.0092446)
(0.0479736 2.97386e-05 -0.00788028)
(0.0483943 0.00027298 -0.00592999)
(0.0501757 0.000509109 -0.00350737)
(0.0531232 0.000685293 -0.000868717)
(0.0569686 0.000716299 0.00166945)
(0.0613556 0.000574225 0.00395636)
(0.0657262 0.000334772 0.00591222)
(0.0871865 -0.000222116 0.00628794)
(0.0911118 -0.00039534 0.00815045)
(0.0934541 -0.00044786 0.00946427)
(0.0942386 -0.000456713 0.0103162)
(0.0935976 -0.00043044 0.0108144)
(0.091692 -0.000334152 0.0108773)
(0.0890277 -0.000209413 0.0103352)
(0.0861474 -0.000137252 0.0092464)
(0.0830622 -0.000181606 0.00801995)
(0.0793713 -0.000350419 0.00713719)
(0.0748644 -0.000570718 0.0067532)
(0.0698742 -0.00077551 0.00660512)
(0.0650099 -0.000951681 0.0063857)
(0.0606907 -0.00107067 0.00600843)
(0.0572175 -0.00108336 0.00548932)
(0.0547728 -0.000972309 0.00481677)
(0.0534986 -0.00078702 0.0040666)
(0.0534879 -0.000611406 0.00339483)
(0.0546688 -0.00050295 0.00280998)
(0.0568572 -0.000508833 0.00213252)
(0.0599973 -0.00064233 0.00112639)
(0.0640138 -0.000881348 -0.000373472)
(0.0686873 -0.0012023 -0.00234108)
(0.0736821 -0.00154616 -0.00455738)
(0.0784714 -0.00179533 -0.00670185)
(0.0822889 -0.00185257 -0.0085082)
(0.0845207 -0.0016867 -0.0098591)
(0.0847264 -0.001305 -0.0107254)
(0.0827157 -0.000852219 -0.0111524)
(0.0788174 -0.000534188 -0.0113492)
(0.0739505 -0.000429538 -0.0115143)
(0.0691658 -0.000436919 -0.0115882)
(0.0652589 -0.000392157 -0.0113328)
(0.0627528 -0.000209664 -0.0105329)
(0.0619303 7.21146e-05 -0.00904755)
(0.0629933 0.000361577 -0.00685481)
(0.065878 0.000587098 -0.00415068)
(0.0703775 0.000630255 -0.00131991)
(0.0760047 0.000431922 0.00141682)
(0.081918 9.17179e-05 0.00398715)
(0.10022 -0.00108102 0.00188725)
(0.105583 -0.00121046 0.00481295)
(0.109269 -0.00115744 0.00714226)
(0.111376 -0.00101148 0.00879413)
(0.111877 -0.000811354 0.0100093)
(0.110653 -0.000568405 0.0108324)
(0.108197 -0.000343198 0.0110105)
(0.105457 -0.000210076 0.0103523)
(0.102789 -0.000208133 0.0091562)
(0.0995878 -0.000349732 0.00810977)
(0.0951268 -0.000579815 0.00762604)
(0.0894727 -0.000836069 0.00746572)
(0.0834103 -0.00108389 0.00719315)
(0.0775723 -0.00127455 0.00674547)
(0.0723515 -0.0013498 0.00625805)
(0.068037 -0.00128347 0.00572517)
(0.064963 -0.00112713 0.00516126)
(0.0634333 -0.000979694 0.0047595)
(0.0634629 -0.000920209 0.00463461)
(0.0647859 -0.00102443 0.00464304)
(0.0672847 -0.00134004 0.00448421)
(0.0710054 -0.00184788 0.00382455)
(0.0759072 -0.00248911 0.00243102)
(0.0817872 -0.00312657 0.000279715)
(0.0881243 -0.00353187 -0.0023428)
(0.093966 -0.00356348 -0.00496011)
(0.0984967 -0.00321727 -0.00725955)
(0.101129 -0.0025156 -0.00914502)
(0.101329 -0.00164543 -0.0105333)
(0.0988492 -0.000951266 -0.0114041)
(0.0943206 -0.000643848 -0.0119335)
(0.0888364 -0.000611874 -0.0123292)
(0.0833987 -0.000624545 -0.0126302)
(0.0789035 -0.000530562 -0.0126971)
(0.0759856 -0.000339103 -0.0122477)
(0.0751877 -0.000127145 -0.0110309)
(0.0767004 3.75777e-05 -0.00905612)
(0.0805614 1.04463e-05 -0.00666145)
(0.0864714 -0.00029147 -0.00405199)
(0.0934773 -0.00072967 -0.00118507)
(0.106571 -0.0027317 -0.00570559)
(0.112792 -0.00271691 -0.00185241)
(0.11736 -0.00245257 0.00181868)
(0.120785 -0.00210811 0.0047339)
(0.1234 -0.00164206 0.00705215)
(0.124356 -0.00106529 0.00904747)
(0.123209 -0.0005856 0.0104388)
(0.121091 -0.000339697 0.0107334)
(0.119273 -0.000273435 0.00990815)
(0.11742 -0.000322354 0.0087805)
(0.11422 -0.000475754 0.00820296)
(0.109038 -0.00071909 0.00811582)
(0.102502 -0.00101663 0.00788866)
(0.095553 -0.00127536 0.0073459)
(0.0888031 -0.0014152 0.00679236)
(0.0825933 -0.00141314 0.00633142)
(0.0773542 -0.00132358 0.00589002)
(0.0736502 -0.00125376 0.00560584)
(0.0717629 -0.00130268 0.00569631)
(0.0714591 -0.00158344 0.00618252)
(0.07247 -0.00219213 0.00686557)
(0.0748772 -0.0031046 0.00735579)
(0.0788213 -0.00421846 0.00720724)
(0.084316 -0.00531048 0.00606289)
(0.0911866 -0.00600645 0.00383814)
(0.0985179 -0.00604673 0.000914489)
(0.105123 -0.00549854 -0.00215593)
(0.110371 -0.00446762 -0.00510806)
(0.113855 -0.00312006 -0.00778652)
(0.114735 -0.00184095 -0.0099115)
(0.112609 -0.00102691 -0.0112885)
(0.108131 -0.000732879 -0.0120912)
(0.102394 -0.000696805 -0.0127664)
(0.0965643 -0.000687772 -0.0135983)
(0.0916235 -0.000692633 -0.0143892)
(0.0884547 -0.000736312 -0.0146242)
(0.0875433 -0.000805861 -0.0140265)
(0.0890942 -0.00106182 -0.0128408)
(0.0931811 -0.00163572 -0.0112344)
(0.0994351 -0.00231847 -0.00894425)
(0.10957 -0.00491326 -0.0133293)
(0.115134 -0.00478341 -0.00936128)
(0.11949 -0.00418978 -0.00479965)
(0.122754 -0.00361837 -0.000663867)
(0.126167 -0.00300517 0.00269572)
(0.129556 -0.00210323 0.00563571)
(0.131076 -0.00118406 0.00822777)
(0.130334 -0.000663532 0.00981788)
(0.129226 -0.000529281 0.00987368)
(0.129151 -0.000506059 0.00889702)
(0.128702 -0.000473605 0.00821372)
(0.125897 -0.000534569 0.00825705)
(0.120497 -0.000751959 0.00827027)
(0.113515 -0.00102348 0.00777499)
(0.106005 -0.00121558 0.00716091)
(0.0985144 -0.00127979 0.00675161)
(0.0914655 -0.00126276 0.0064073)
(0.0856086 -0.00128334 0.00609118)
(0.0816759 -0.00145642 0.00603907)
(0.0797691 -0.00191149 0.00647741)
(0.0795019 -0.00279057 0.00746127)
(0.0806608 -0.00408828 0.00877473)
(0.08333 -0.00564351 0.00988919)
(0.0875956 -0.00718269 0.0101622)
(0.093509 -0.00823898 0.00913342)
(0.100616 -0.00842106 0.00681699)
(0.107576 -0.00779587 0.00372931)
(0.113348 -0.00660764 0.000359097)
(0.118055 -0.00501504 -0.00311412)
(0.121648 -0.00332441 -0.00638777)
(0.123302 -0.00195858 -0.00890503)
(0.122245 -0.00112357 -0.010427)
(0.118544 -0.000729375 -0.0114159)
(0.113306 -0.000564762 -0.0126288)
(0.107828 -0.000634589 -0.0143468)
(0.10324 -0.000970331 -0.0160486)
(0.100345 -0.00141855 -0.0170466)
(0.0995174 -0.0020391 -0.0173026)
(0.100819 -0.00303898 -0.0170105)
(0.104281 -0.00421225 -0.0158704)
(0.114765 -0.0067702 -0.0177213)
(0.11819 -0.00685527 -0.0145028)
(0.121462 -0.00603137 -0.0099788)
(0.123917 -0.00517809 -0.00529946)
(0.126291 -0.00452703 -0.0013062)
(0.129731 -0.00356334 0.00200246)
(0.133136 -0.00221788 0.00498372)
(0.134237 -0.00122043 0.00738126)
(0.1333 -0.000985177 0.00839549)
(0.132979 -0.00111006 0.00793261)
(0.134485 -0.0010485 0.00720797)
(0.135429 -0.000824111 0.00734275)
(0.133383 -0.000733428 0.00779157)
(0.128427 -0.000807139 0.00766942)
(0.121883 -0.000894246 0.00721151)
(0.11462 -0.000922549 0.00699144)
(0.106976 -0.000946941 0.00690759)
(0.0997212 -0.00106948 0.0066927)
(0.0940627 -0.00136983 0.00648324)
(0.090687 -0.00195237 0.0066392)
(0.0894036 -0.002972 0.00744684)
(0.0897097 -0.00448326 0.00893786)
(0.0913493 -0.00631972 0.0107053)
(0.0942735 -0.00818369 0.0119962)
(0.0986583 -0.00957617 0.0120313)
(0.104394 -0.0100064 0.0105435)
(0.110309 -0.00940101 0.00790396)
(0.114742 -0.00812394 0.00480251)
(0.117505 -0.00646551 0.00156287)
(0.119735 -0.00464753 -0.00172223)
(0.121821 -0.00299929 -0.00460781)
(0.123105 -0.00170861 -0.00657523)
(0.12249 -0.000814831 -0.00775601)
(0.119975 -0.00030006 -0.00898273)
(0.116906 -0.00027205 -0.0110066)
(0.114301 -0.000775718 -0.0137082)
(0.11239 -0.00152907 -0.0162422)
(0.111325 -0.00244643 -0.0180358)
(0.111297 -0.00380383 -0.019047)
(0.112377 -0.00550197 -0.019129)
(0.122373 -0.00753167 -0.0184342)
(0.123494 -0.00815542 -0.0166818)
(0.125176 -0.0074801 -0.0131978)
(0.126923 -0.0064452 -0.00882388)
(0.128401 -0.00574151 -0.00464694)
(0.130426 -0.00499443 -0.00119495)
(0.133582 -0.00362457 0.00171393)
(0.136329 -0.00206956 0.00425518)
(0.136649 -0.00135904 0.00589886)
(0.135427 -0.00165942 0.00609979)
(0.135605 -0.00207303 0.00556554)
(0.137936 -0.00191588 0.00569533)
(0.139392 -0.00146277 0.00653236)
(0.137491 -0.0011781 0.00697614)
(0.133021 -0.00106921 0.00687304)
(0.127609 -0.000922533 0.00692931)
(0.121529 -0.000746647 0.00726808)
(0.114699 -0.000774693 0.00747071)
(0.10823 -0.0011488 0.00740537)
(0.103561 -0.0018483 0.00736284)
(0.101133 -0.00295868 0.0077608)
(0.10058 -0.00456299 0.00885605)
(0.101415 -0.00652749 0.010456)
(0.103316 -0.00854865 0.0118985)
(0.106232 -0.0101203 0.0123999)
(0.110137 -0.0107155 0.0115372)
(0.114183 -0.0101129 0.00947179)
(0.116814 -0.00869285 0.00687663)
(0.117468 -0.00694838 0.00424144)
(0.117196 -0.00516559 0.00162556)
(0.117285 -0.00351852 -0.000767398)
(0.117892 -0.0020271 -0.00238896)
(0.118189 -0.00073116 -0.0030973)
(0.117747 0.000136218 -0.00362749)
(0.117417 0.000299925 -0.00505765)
(0.11792 -0.000261739 -0.00778215)
(0.118984 -0.00119234 -0.0111842)
(0.120003 -0.0022685 -0.014388)
(0.120915 -0.00375728 -0.0168562)
(0.121646 -0.00573567 -0.018336)
(0.129489 -0.00715253 -0.0165011)
(0.129641 -0.00835923 -0.0166174)
(0.129796 -0.00823276 -0.0148736)
(0.130633 -0.00736532 -0.0116358)
(0.131878 -0.00660432 -0.00779613)
(0.133061 -0.00604715 -0.00424845)
(0.134757 -0.0050183 -0.00128587)
(0.13724 -0.00338828 0.00126318)
(0.13921 -0.00201857 0.00327988)
(0.139117 -0.00185048 0.00419329)
(0.138033 -0.00259541 0.00410932)
(0.138726 -0.00307258 0.0042233)
(0.141387 -0.00270593 0.00518841)
(0.142715 -0.00201085 0.00614507)
(0.140795 -0.00159995 0.00646994)
(0.136937 -0.00140323 0.00672709)
(0.132616 -0.00109741 0.00735402)
(0.12775 -0.000810124 0.00801585)
(0.122266 -0.000961523 0.00829207)
(0.11733 -0.00168171 0.00820777)
(0.114035 -0.00291394 0.00816909)
(0.112595 -0.00465592 0.00859645)
(0.112675 -0.00670252 0.00950322)
(0.113751 -0.00869078 0.010426)
(0.115405 -0.0101494 0.0108364)
(0.117467 -0.0106074 0.0103932)
(0.119365 -0.00984492 0.00904154)
(0.120129 -0.00824336 0.00715921)
(0.119283 -0.00640726 0.00520592)
(0.117617 -0.00471243 0.00321222)
(0.116282 -0.00323835 0.00127598)
(0.115733 -0.00181136 -3.73915e-06)
(0.115664 -0.000391784 -0.00021408)
(0.115851 0.000673652 0.000148699)
(0.116937 0.000968374 -0.000108227)
(0.119222 0.000431249 -0.00182892)
(0.122237 -0.000546785 -0.00484507)
(0.125016 -0.00162474 -0.00846329)
(0.12713 -0.00305243 -0.0119662)
(0.128638 -0.00505783 -0.0147885)
(0.134857 -0.00594612 -0.0134538)
(0.135567 -0.00753145 -0.0150765)
(0.135157 -0.00813333 -0.0150828)
(0.134855 -0.00787504 -0.0133315)
(0.135412 -0.00731836 -0.0103308)
(0.13631 -0.00680473 -0.00695718)
(0.137011 -0.00606918 -0.00390835)
(0.138099 -0.00480532 -0.00123691)
(0.139918 -0.0033311 0.00107009)
(0.141226 -0.00252468 0.00259323)
(0.140787 -0.00287457 0.00306443)
(0.140079 -0.00371922 0.00322631)
(0.141413 -0.0039373 0.00402249)
(0.144031 -0.00329603 0.00515494)
(0.14498 -0.00246174 0.005804)
(0.143214 -0.00193401 0.00616889)
(0.140026 -0.00155862 0.00682469)
(0.136611 -0.00117319 0.00765563)
(0.133083 -0.0010194 0.00809464)
(0.129588 -0.00146505 0.00788738)
(0.12673 -0.00263933 0.00739275)
(0.124938 -0.00452535 0.00716165)
(0.12423 -0.00677243 0.00734224)
(0.124276 -0.00873239 0.00761263)
(0.124675 -0.00989618 0.00779121)
(0.12522 -0.00996006 0.00784229)
(0.125478 -0.00886767 0.00745667)
(0.124705 -0.00702688 0.00646074)
(0.122694 -0.00511434 0.00514297)
(0.120232 -0.00356854 0.00361054)
(0.118352 -0.00237244 0.00179181)
(0.117468 -0.00117314 0.000236927)
(0.117208 0.000170256 -0.000242084)
(0.117504 0.00125753 0.000297303)
(0.118977 0.0016004 0.000860687)
(0.121798 0.00115349 0.00042305)
(0.125338 0.000254886 -0.00126804)
(0.128699 -0.000717654 -0.00399533)
(0.131237 -0.00196905 -0.00735711)
(0.133214 -0.00383789 -0.0107162)
(0.139349 -0.00468929 -0.0112337)
(0.14103 -0.00629192 -0.0133542)
(0.140975 -0.00736117 -0.0143757)
(0.139761 -0.0078495 -0.0138259)
(0.139024 -0.00775653 -0.0117427)
(0.139182 -0.00729589 -0.00880093)
(0.139505 -0.00664294 -0.00582826)
(0.139678 -0.0057857 -0.00309524)
(0.140466 -0.00468632 -0.000525679)
(0.141784 -0.00369472 0.00152607)
(0.142241 -0.00347307 0.00253643)
(0.141544 -0.0041586 0.00276068)
(0.14153 -0.00483712 0.00320573)
(0.143152 -0.00466905 0.00417407)
(0.144805 -0.00375743 0.00504218)
(0.144543 -0.00274182 0.00554033)
(0.142392 -0.00197277 0.00596917)
(0.139646 -0.00147804 0.00635969)
(0.137256 -0.00126644 0.0063456)
(0.135571 -0.00146428 0.00569815)
(0.134632 -0.00221822 0.00470179)
(0.13399 -0.00373616 0.00392629)
(0.133245 -0.00589634 0.00364505)
(0.13237 -0.00790829 0.00365531)
(0.131576 -0.00903007 0.00393928)
(0.131091 -0.00887101 0.00468753)
(0.130703 -0.00747573 0.00548143)
(0.129443 -0.00532692 0.00551078)
(0.126877 -0.00324092 0.00469714)
(0.123929 -0.00175109 0.003381)
(0.121834 -0.000888621 0.0015287)
(0.121056 -0.000121124 -0.00058422)
(0.121106 0.000915488 -0.00199408)
(0.121535 0.00180387 -0.00212088)
(0.12291 0.00198193 -0.0014934)
(0.125663 0.00149632 -0.00115265)
(0.129157 0.000725502 -0.00169358)
(0.132403 -6.718e-05 -0.00323437)
(0.134908 -0.0010973 -0.00565615)
(0.137066 -0.00275712 -0.00852188)
(0.144197 -0.00396314 -0.0104583)
(0.14644 -0.00520463 -0.0123051)
(0.146909 -0.00616726 -0.0136671)
(0.145242 -0.00701768 -0.0138798)
(0.14308 -0.0074336 -0.0125161)
(0.141921 -0.00720425 -0.00994309)
(0.141682 -0.0066307 -0.00711523)
(0.141613 -0.00602276 -0.00446713)
(0.141746 -0.00537899 -0.00177273)
(0.142471 -0.00452698 0.000785525)
(0.143188 -0.00388836 0.00238278)
(0.142972 -0.00410635 0.00276467)
(0.142237 -0.00488408 0.00286439)
(0.141985 -0.0051572 0.00357726)
(0.141986 -0.00448957 0.00469085)
(0.141148 -0.00335378 0.00550598)
(0.139239 -0.00232458 0.00565985)
(0.136982 -0.00159972 0.00514481)
(0.134971 -0.0013325 0.00421178)
(0.133794 -0.00158284 0.00314607)
(0.13417 -0.00227203 0.00206267)
(0.135778 -0.0033009 0.00103781)
(0.137104 -0.00483756 0.00039225)
(0.137158 -0.00656756 0.000435055)
(0.136168 -0.00770207 0.00126071)
(0.134993 -0.00758339 0.00279583)
(0.134306 -0.0061128 0.00445752)
(0.133452 -0.00380515 0.00518207)
(0.131436 -0.00153914 0.00457893)
(0.128751 -9.86283e-07 0.00317189)
(0.126904 0.000710008 0.00120242)
(0.126598 0.00113387 -0.00137814)
(0.127318 0.00179181 -0.00380448)
(0.128281 0.00232517 -0.00500873)
(0.129608 0.00208305 -0.00492141)
(0.131865 0.00128307 -0.00446336)
(0.134826 0.000563961 -0.00444893)
(0.137604 1.34587e-05 -0.00513952)
(0.139772 -0.000808417 -0.00655916)
(0.141786 -0.00229088 -0.00846441)
(0.147822 -0.00318587 -0.00939146)
(0.150307 -0.00405517 -0.0111247)
(0.151696 -0.0046889 -0.0127228)
(0.150737 -0.00553123 -0.0135123)
(0.148178 -0.00625132 -0.0128058)
(0.145894 -0.00633559 -0.0106542)
(0.14477 -0.00597234 -0.00794204)
(0.144349 -0.00561974 -0.00534244)
(0.144101 -0.00532251 -0.00267461)
(0.144091 -0.00471749 0.000136253)
(0.144303 -0.00384494 0.00229287)
(0.144048 -0.00346192 0.0030252)
(0.14287 -0.00389183 0.00291406)
(0.141123 -0.00438357 0.00311971)
(0.139305 -0.00414796 0.00386035)
(0.137425 -0.00327612 0.00436858)
(0.135454 -0.00228699 0.00393129)
(0.133579 -0.00147128 0.00263826)
(0.132016 -0.00112011 0.00119188)
(0.131282 -0.00151533 0.000202085)
(0.132324 -0.00252089 -0.000360831)
(0.13547 -0.00356843 -0.000847663)
(0.139073 -0.00451466 -0.0011065)
(0.140876 -0.00558791 -0.000555425)
(0.140323 -0.00649826 0.000902206)
(0.138595 -0.0065145 0.00287653)
(0.137162 -0.0052235 0.00473927)
(0.136072 -0.00295171 0.00564405)
(0.134247 -0.00057635 0.00518409)
(0.131599 0.00102929 0.0038636)
(0.129641 0.00166892 0.00210765)
(0.129529 0.00181566 -0.000291865)
(0.130877 0.00203391 -0.00288956)
(0.132595 0.00217167 -0.00450758)
(0.134161 0.00165809 -0.00480717)
(0.135944 0.000649221 -0.00466775)
(0.138373 -3.14645e-05 -0.00491469)
(0.141135 -0.000241888 -0.00557311)
(0.143571 -0.000659615 -0.00653363)
(0.145598 -0.00181935 -0.00782128)
(0.147819 -0.00205187 -0.00699491)
(0.150889 -0.00271066 -0.00916708)
(0.153701 -0.00316964 -0.011202)
(0.154653 -0.00384827 -0.0125959)
(0.15321 -0.00454033 -0.012688)
(0.150793 -0.00475069 -0.011186)
(0.149025 -0.00459822 -0.00863312)
(0.148091 -0.00452538 -0.00591018)
(0.147284 -0.00452189 -0.00328576)
(0.146397 -0.00412355 -0.000571055)
(0.145675 -0.00324103 0.00192928)
(0.144984 -0.00249829 0.00334193)
(0.143796 -0.00245935 0.00349024)
(0.141964 -0.00280154 0.00310749)
(0.139928 -0.00282704 0.00276536)
(0.138077 -0.00238599 0.00237898)
(0.136464 -0.00174773 0.00151326)
(0.135114 -0.00109263 6.09049e-05)
(0.134238 -0.000669444 -0.00152195)
(0.134224 -0.00104974 -0.00250237)
(0.135501 -0.00233428 -0.00259021)
(0.138388 -0.00386487 -0.00221405)
(0.141905 -0.00480431 -0.00170212)
(0.143982 -0.00526529 -0.000762413)
(0.143556 -0.00550839 0.000951708)
(0.141511 -0.00532507 0.00318384)
(0.13934 -0.00432283 0.00522816)
(0.137399 -0.00235748 0.00637683)
(0.134887 6.36085e-05 0.00643361)
(0.131625 0.0018515 0.00581614)
(0.128906 0.00244683 0.0047577)
(0.128036 0.00233024 0.00299647)
(0.128917 0.00220423 0.000910269)
(0.130481 0.0020786 -0.000298927)
(0.131998 0.00149478 -0.000429435)
(0.133578 0.000515328 -0.000553784)
(0.13578 -0.000173228 -0.00136811)
(0.13879 -0.000301059 -0.00250254)
(0.142115 -0.000420884 -0.00364479)
(0.145069 -0.00108491 -0.0050786)
(0.146362 -0.000441019 -0.00401411)
(0.150027 -0.000841926 -0.00633112)
(0.153872 -0.00127426 -0.0087528)
(0.156528 -0.00187986 -0.0107404)
(0.15691 -0.00246508 -0.0116055)
(0.15549 -0.00269615 -0.0108743)
(0.153656 -0.00269305 -0.00886855)
(0.152149 -0.00286258 -0.0063909)
(0.150619 -0.00316128 -0.00394267)
(0.148738 -0.00303218 -0.00142059)
(0.146849 -0.00233 0.0011694)
(0.145231 -0.00156053 0.00309823)
(0.143678 -0.00128792 0.00378679)
(0.142028 -0.0014518 0.00346699)
(0.140566 -0.00157222 0.00269145)
(0.13944 -0.00144715 0.00184931)
(0.138454 -0.0012161 0.00099862)
(0.137656 -0.000905667 -7.89819e-05)
(0.13742 -0.000516821 -0.00139763)
(0.137965 -0.000592821 -0.00240477)
(0.139171 -0.00168416 -0.00246614)
(0.141069 -0.0033846 -0.00174277)
(0.143335 -0.00453241 -0.000789062)
(0.14478 -0.00466115 0.000331195)
(0.144516 -0.00421231 0.00191967)
(0.142948 -0.00355375 0.00389495)
(0.141013 -0.00267167 0.00574723)
(0.138906 -0.00123074 0.00698351)
(0.136194 0.000715171 0.00741375)
(0.132841 0.00234677 0.00721631)
(0.129797 0.00284659 0.00656183)
(0.128112 0.00239179 0.00536379)
(0.127955 0.00170214 0.00383458)
(0.128794 0.00115458 0.0028477)
(0.130154 0.000577633 0.00274011)
(0.131868 -0.00011733 0.00268581)
(0.133958 -0.000565092 0.00188112)
(0.13664 -0.000474534 0.000551745)
(0.13985 -0.000170926 -0.000749829)
(0.143114 -0.000130728 -0.00214531)
(0.145012 0.00157465 -0.0012442)
(0.148802 0.00136274 -0.00338825)
(0.152934 0.000885788 -0.00576739)
(0.156316 0.000173314 -0.00809945)
(0.157968 -0.000373631 -0.00978633)
(0.157963 -0.000488201 -0.0100957)
(0.156962 -0.000482098 -0.00890449)
(0.155373 -0.000843276 -0.00685829)
(0.153144 -0.00141461 -0.00469184)
(0.150328 -0.00153923 -0.00249454)
(0.147442 -0.000981257 -6.74713e-05)
(0.144994 -0.000298981 0.00212964)
(0.143092 -4.47644e-05 0.00330855)
(0.141725 -0.000200655 0.00337829)
(0.140994 -0.000453039 0.00283505)
(0.140716 -0.000676641 0.00215623)
(0.140402 -0.000954362 0.00157488)
(0.139924 -0.00113897 0.00105005)
(0.139733 -0.0010199 0.000519315)
(0.14026 -0.00101504 0.0002275)
(0.141333 -0.0019169 0.000643081)
(0.142489 -0.00350616 0.00171431)
(0.143374 -0.00452418 0.0028238)
(0.143672 -0.0041605 0.00370054)
(0.143228 -0.00295499 0.00474761)
(0.14218 -0.00181586 0.00603442)
(0.140723 -0.00104814 0.00706745)
(0.138813 -0.000194658 0.00754364)
(0.136279 0.00119144 0.00764985)
(0.133238 0.00281247 0.00763626)
(0.130322 0.00373202 0.00746475)
(0.128361 0.00352333 0.00690199)
(0.127686 0.00272118 0.00611613)
(0.128151 0.00202613 0.00571414)
(0.129523 0.00159373 0.00590231)
(0.131499 0.00121516 0.00597215)
(0.133751 0.000961652 0.00518162)
(0.136186 0.00102945 0.0036995)
(0.138879 0.00130825 0.00210758)
(0.141797 0.00155106 0.000544)
(0.1455 0.00243697 0.000393527)
(0.148629 0.00224778 -0.00139046)
(0.151944 0.00192163 -0.00340089)
(0.155006 0.00131924 -0.00559093)
(0.157274 0.000698851 -0.00759426)
(0.158599 0.000528886 -0.00873241)
(0.158994 0.000796701 -0.00861881)
(0.158282 0.00091711 -0.00754498)
(0.156263 0.000562621 -0.00605701)
(0.15323 9.67331e-05 -0.00435376)
(0.150035 3.38565e-05 -0.00230849)
(0.14748 0.000251819 -0.000104221)
(0.145849 0.000343313 0.00164416)
(0.145039 0.00023414 0.00252862)
(0.144878 1.85433e-05 0.00271745)
(0.145049 -0.000335941 0.00270137)
(0.145137 -0.000748516 0.00289248)
(0.145004 -0.000906488 0.00333105)
(0.145011 -0.00064076 0.00367573)
(0.14552 -0.000360152 0.00353832)
(0.146236 -0.000793178 0.0032768)
(0.146465 -0.00197406 0.00362586)
(0.145989 -0.0028573 0.00463461)
(0.145062 -0.00242245 0.0054802)
(0.143937 -0.000881896 0.00573042)
(0.142689 0.000706473 0.00563332)
(0.141245 0.00175232 0.00557164)
(0.139448 0.00247162 0.00567968)
(0.137149 0.0034345 0.00579286)
(0.134388 0.00470233 0.00572121)
(0.131576 0.00560359 0.00558197)
(0.129434 0.00556513 0.00548124)
(0.12856 0.00483756 0.0053539)
(0.129076 0.00403581 0.00534304)
(0.130726 0.00348881 0.00564502)
(0.132939 0.00315487 0.00601244)
(0.13523 0.00293955 0.00585842)
(0.137496 0.00281633 0.0049465)
(0.13993 0.00271387 0.00354969)
(0.142617 0.00259473 0.00200876)
(0.14456 0.00140686 0.00136759)
(0.147283 0.000995081 -0.000140654)
(0.15011 0.000851149 -0.00170513)
(0.15275 0.000604717 -0.00343891)
(0.154827 0.000193053 -0.00525518)
(0.156277 2.81473e-05 -0.00676204)
(0.157272 0.000399392 -0.00750779)
(0.157789 0.00105569 -0.00735411)
(0.157445 0.00146672 -0.00654026)
(0.155874 0.0014097 -0.00537067)
(0.153358 0.000987167 -0.00389842)
(0.1508 0.000269989 -0.00212855)
(0.149055 -0.00078446 -0.000334634)
(0.148386 -0.00191309 0.00105108)
(0.148491 -0.00271267 0.00185971)
(0.148778 -0.00316625 0.00227122)
(0.1487 -0.00347553 0.00270527)
(0.148168 -0.00349688 0.00332629)
(0.147579 -0.00294776 0.00374265)
(0.147326 -0.00202873 0.00341086)
(0.147202 -0.00126354 0.00239682)
(0.146725 -0.000949856 0.00158788)
(0.145781 -0.000858481 0.00166623)
(0.144662 -0.000367988 0.00227643)
(0.143607 0.000884092 0.00259494)
(0.142745 0.00245688 0.00237544)
(0.142122 0.00363789 0.0020447)
(0.141673 0.00429068 0.00198158)
(0.141053 0.00498267 0.0021312)
(0.13988 0.00612263 0.00218456)
(0.138157 0.00733583 0.00212026)
(0.136406 0.00785493 0.00214556)
(0.135291 0.00747927 0.0022723)
(0.135016 0.00661339 0.00245892)
(0.135387 0.00565743 0.00284232)
(0.136072 0.00477702 0.00349881)
(0.136926 0.00407778 0.00416203)
(0.138097 0.00354819 0.00437405)
(0.139808 0.00295334 0.00389189)
(0.142035 0.00215707 0.00279122)
(0.144807 2.28017e-05 0.00433682)
(0.146155 -0.000317122 0.00309732)
(0.14744 -0.000250568 0.00149058)
(0.148685 -1.7098e-05 -0.00036869)
(0.149712 0.000232362 -0.00238798)
(0.150315 0.000554809 -0.0043798)
(0.150449 0.00104545 -0.00606401)
(0.15028 0.00162166 -0.00710474)
(0.150077 0.00206309 -0.00729525)
(0.149979 0.0021597 -0.00666921)
(0.149951 0.00180391 -0.00546198)
(0.149897 0.00090963 -0.00397756)
(0.149895 -0.000508033 -0.00241735)
(0.15018 -0.00215053 -0.000821963)
(0.150859 -0.00350975 0.000752373)
(0.151668 -0.00427246 0.00207582)
(0.152001 -0.00440639 0.00298871)
(0.151439 -0.00399486 0.0035849)
(0.150131 -0.00329556 0.00396129)
(0.148633 -0.00266971 0.00392883)
(0.147327 -0.00226098 0.00329064)
(0.146311 -0.00184025 0.00236506)
(0.145568 -0.00123342 0.00174438)
(0.14501 -0.000504119 0.00164393)
(0.144563 0.000276092 0.00179677)
(0.144366 0.0011294 0.00183104)
(0.144594 0.0019872 0.00164377)
(0.145193 0.00279646 0.00133815)
(0.145767 0.00368419 0.000941849)
(0.145886 0.00477735 0.000330907)
(0.145431 0.00596957 -0.000539957)
(0.144656 0.00688105 -0.00141593)
(0.143927 0.00722051 -0.00198705)
(0.143377 0.00698243 -0.00205005)
(0.142845 0.00622888 -0.0014481)
(0.142185 0.00505251 -6.64442e-05)
(0.141577 0.00372144 0.00186244)
(0.141446 0.00254774 0.00369465)
(0.142103 0.00159551 0.00482531)
(0.143372 0.000734952 0.00499395)
(0.1523 0.00140146 0.00480473)