/*--------------------------------*- C++ -*----------------------------------*\
| =========                 |                                                 |
| \\      /  F ield         | OpenFOAM: The Open Source CFD Toolbox           |
|  \\    /   O peration     | Version:  2306                                  |
|   \\  /    A nd           | Website:  www.openfoam.com                      |
|    \\/     M anipulation  |                                                 |
\*---------------------------------------------------------------------------*/
FoamFile
{
    version     2.0;
    format      ascii;
    arch        "LSB;label=32;scalar=64";
    class       volScalarField;
    location    "5.5";
    object      nut;
}
// * * * * * * * * * * * * * * * * * * * * * * * * * * * * * * * * * * * * * //

dimensions      [0 2 -1 0 0 0 0];

internalField   nonuniform List<scalar> 
60000
(
7.77393e-05
8.41631e-05
8.91834e-05
9.1573e-05
9.05361e-05
8.71181e-05
8.35352e-05
8.08008e-05
7.87019e-05
7.67491e-05
7.39635e-05
6.92322e-05
6.28974e-05
5.68528e-05
5.29603e-05
5.16244e-05
5.19482e-05
5.27804e-05
5.36579e-05
5.51037e-05
5.75949e-05
6.05958e-05
6.35491e-05
6.66805e-05
7.06471e-05
7.57139e-05
8.11246e-05
8.46875e-05
8.45758e-05
8.08106e-05
7.46161e-05
6.79943e-05
6.27678e-05
5.92874e-05
5.74109e-05
5.72958e-05
5.87043e-05
6.14286e-05
6.55253e-05
7.11298e-05
7.70561e-05
8.34422e-05
8.9087e-05
9.29588e-05
9.3394e-05
9.03222e-05
8.61489e-05
8.29911e-05
8.10098e-05
7.94029e-05
7.70754e-05
7.30635e-05
6.75926e-05
6.18731e-05
5.72474e-05
5.44153e-05
5.30956e-05
5.26431e-05
5.29375e-05
5.42026e-05
5.63775e-05
5.90765e-05
6.22373e-05
6.62472e-05
7.1352e-05
7.72594e-05
8.29978e-05
8.67321e-05
8.69359e-05
8.35312e-05
7.80448e-05
7.25669e-05
6.783e-05
6.33489e-05
5.94364e-05
5.7322e-05
5.76582e-05
6.02086e-05
6.45791e-05
7.04601e-05
7.17448e-05
7.84255e-05
8.52813e-05
9.15772e-05
9.47478e-05
9.28826e-05
8.80033e-05
8.38661e-05
8.17017e-05
8.06281e-05
7.94873e-05
7.72868e-05
7.36211e-05
6.85265e-05
6.26008e-05
5.71884e-05
5.33913e-05
5.1317e-05
5.07152e-05
5.1359e-05
5.29351e-05
5.51888e-05
5.81614e-05
6.21213e-05
6.72376e-05
7.32533e-05
7.96211e-05
8.49233e-05
8.73459e-05
8.61641e-05
8.25417e-05
7.83202e-05
7.40387e-05
6.89355e-05
6.29082e-05
5.76604e-05
5.52767e-05
5.62532e-05
5.98213e-05
6.52403e-05
6.19645e-05
6.86979e-05
7.62711e-05
8.51377e-05
9.22706e-05
9.33676e-05
8.86081e-05
8.31669e-05
8.04039e-05
7.98459e-05
8.01332e-05
8.01373e-05
7.90168e-05
7.58262e-05
6.97701e-05
6.17915e-05
5.44819e-05
4.96697e-05
4.73759e-05
4.68854e-05
4.75269e-05
4.89181e-05
5.0975e-05
5.3797e-05
5.76333e-05
6.26217e-05
6.90865e-05
7.64826e-05
8.27822e-05
8.58782e-05
8.55776e-05
8.33123e-05
8.01277e-05
7.57429e-05
6.90463e-05
6.06989e-05
5.39105e-05
5.11738e-05
5.23025e-05
5.61345e-05
4.88306e-05
5.38678e-05
6.02887e-05
7.00241e-05
8.15692e-05
8.82123e-05
8.59925e-05
7.97157e-05
7.59298e-05
7.56782e-05
7.72941e-05
7.92854e-05
8.07657e-05
8.0822e-05
7.73994e-05
6.92529e-05
5.85998e-05
4.95753e-05
4.41341e-05
4.16181e-05
4.07982e-05
4.07892e-05
4.11789e-05
4.21127e-05
4.37972e-05
4.63426e-05
5.05435e-05
5.80102e-05
6.86409e-05
7.80755e-05
8.33917e-05
8.45606e-05
8.31076e-05
8.05702e-05
7.59284e-05
6.74616e-05
5.68779e-05
4.86388e-05
4.50283e-05
4.54371e-05
3.9898e-05
4.12925e-05
4.31024e-05
4.71532e-05
5.82784e-05
7.21358e-05
7.66425e-05
7.16131e-05
6.67283e-05
6.6695e-05
6.95923e-05
7.30011e-05
7.61035e-05
7.94602e-05
8.13823e-05
7.78825e-05
6.74211e-05
5.41724e-05
4.38231e-05
3.78818e-05
3.49011e-05
3.32666e-05
3.22888e-05
3.22546e-05
3.33283e-05
3.50641e-05
3.83235e-05
4.14702e-05
4.55453e-05
5.79542e-05
7.11821e-05
7.84276e-05
7.95779e-05
7.86721e-05
7.76848e-05
7.38264e-05
6.48131e-05
5.32076e-05
4.39431e-05
3.98007e-05
3.78693e-05
3.67237e-05
3.68283e-05
3.96599e-05
4.01392e-05
4.53291e-05
5.65558e-05
5.61178e-05
5.04623e-05
5.0661e-05
5.58314e-05
6.08487e-05
6.40547e-05
6.8239e-05
7.55288e-05
8.12499e-05
7.81163e-05
6.51483e-05
4.98394e-05
3.89191e-05
3.29234e-05
2.9982e-05
2.8746e-05
2.90084e-05
3.04722e-05
3.08416e-05
3.02787e-05
3.70006e-05
4.05614e-05
3.66096e-05
4.67125e-05
6.14556e-05
6.71007e-05
6.68931e-05
6.81997e-05
7.05247e-05
6.92572e-05
6.2574e-05
5.25101e-05
4.278e-05
4.33173e-05
3.51621e-05
3.04005e-05
3.16592e-05
4.0162e-05
3.59496e-05
3.40433e-05
3.83488e-05
3.08585e-05
2.70309e-05
3.49812e-05
4.38208e-05
4.62366e-05
4.60317e-05
5.37897e-05
6.95081e-05
8.11044e-05
7.80543e-05
6.28128e-05
4.66619e-05
3.61301e-05
3.13071e-05
3.02071e-05
3.14482e-05
3.41543e-05
3.69422e-05
3.38807e-05
2.49041e-05
3.33699e-05
3.7866e-05
3.00407e-05
3.69067e-05
4.18572e-05
3.56443e-05
3.40526e-05
4.31551e-05
5.49875e-05
6.15658e-05
6.14291e-05
5.46572e-05
5.38202e-05
4.11561e-05
3.00265e-05
2.19949e-05
2.54806e-05
3.60547e-05
2.79635e-05
2.86018e-05
2.67723e-05
1.36422e-05
1.5145e-05
2.39116e-05
3.0416e-05
2.49671e-05
2.09003e-05
3.54937e-05
6.27825e-05
8.01626e-05
7.66111e-05
6.02446e-05
4.41572e-05
3.4931e-05
3.25723e-05
3.46208e-05
3.8744e-05
4.35473e-05
4.62212e-05
3.78942e-05
2.16889e-05
2.94151e-05
3.00694e-05
1.75725e-05
1.98101e-05
2.31379e-05
2.63741e-05
2.6934e-05
2.81885e-05
3.96016e-05
5.1713e-05
5.78328e-05
5.09812e-05
4.95299e-05
3.61828e-05
2.48833e-05
1.92228e-05
2.46649e-05
3.10409e-05
2.41536e-05
3.10826e-05
2.37616e-05
9.94187e-06
1.55247e-05
1.48121e-05
2.13687e-05
1.05654e-05
1.37774e-05
2.69045e-05
5.84551e-05
7.71672e-05
7.27078e-05
5.60122e-05
4.08442e-05
3.4676e-05
3.59138e-05
4.18515e-05
4.93283e-05
5.46327e-05
5.22494e-05
3.47878e-05
1.8227e-05
2.48471e-05
1.81469e-05
2.14821e-05
3.0309e-05
2.83044e-05
3.0342e-05
3.17932e-05
2.97802e-05
3.23519e-05
4.11362e-05
3.3318e-05
4.68355e-05
4.42222e-05
3.04234e-05
2.42231e-05
2.24843e-05
2.53068e-05
2.84155e-05
2.53722e-05
3.14589e-05
1.80718e-05
1.16893e-05
1.58617e-05
1.16425e-05
2.11797e-05
8.63333e-06
2.09993e-05
2.68028e-05
5.3602e-05
7.04358e-05
6.53384e-05
4.94034e-05
3.67805e-05
3.26044e-05
3.72773e-05
4.81734e-05
5.87649e-05
6.08842e-05
4.82716e-05
2.3826e-05
1.74632e-05
2.02828e-05
2.15258e-05
2.91936e-05
2.69655e-05
1.79281e-05
1.50176e-05
2.14016e-05
2.77891e-05
2.88716e-05
2.27772e-05
3.259e-05
4.54157e-05
3.85768e-05
2.93258e-05
2.91598e-05
2.52917e-05
2.55802e-05
2.69586e-05
2.18178e-05
2.34341e-05
8.71571e-06
1.37338e-05
1.45581e-05
1.2846e-05
1.79614e-05
1.09702e-05
2.55265e-05
2.57832e-05
4.42666e-05
5.75817e-05
5.16655e-05
3.65663e-05
2.29999e-05
2.47242e-05
3.43946e-05
4.90322e-05
6.08774e-05
5.647e-05
3.63331e-05
1.93101e-05
1.934e-05
1.84692e-05
2.32377e-05
3.04495e-05
3.33478e-05
2.73792e-05
1.70183e-05
1.74388e-05
2.64074e-05
2.49454e-05
1.75805e-05
3.59139e-05
4.17593e-05
3.48328e-05
3.33596e-05
3.21587e-05
2.40376e-05
2.41547e-05
2.11626e-05
1.51357e-05
1.55825e-05
4.77387e-06
1.44634e-05
1.38877e-05
1.33817e-05
1.49769e-05
1.50498e-05
2.54405e-05
2.07297e-05
2.35385e-05
2.89964e-05
2.78456e-05
2.44528e-05
2.18361e-05
2.52426e-05
2.8068e-05
4.61326e-05
5.52895e-05
4.46849e-05
2.78769e-05
2.17573e-05
1.73444e-05
1.68363e-05
2.39852e-05
3.44972e-05
4.02091e-05
3.67297e-05
2.95429e-05
2.63607e-05
2.74266e-05
1.84082e-05
1.77826e-05
3.49536e-05
3.77735e-05
3.72274e-05
3.78747e-05
3.0926e-05
2.35386e-05
2.13441e-05
1.48861e-05
1.29954e-05
1.1056e-05
9.10748e-06
1.49575e-05
1.23027e-05
1.46649e-05
1.57528e-05
1.78158e-05
2.99959e-05
3.04843e-05
1.6784e-05
1.58879e-05
2.77213e-05
2.72716e-05
2.16786e-05
1.94947e-05
2.54336e-05
4.39893e-05
4.44359e-05
3.27616e-05
2.57101e-05
2.00369e-05
1.51228e-05
1.43936e-05
1.99159e-05
3.05943e-05
3.81522e-05
3.82013e-05
3.16931e-05
2.16212e-05
2.52911e-05
1.37018e-05
1.85421e-05
3.33841e-05
3.8388e-05
4.09035e-05
3.65772e-05
3.03418e-05
2.61157e-05
1.94561e-05
1.28559e-05
1.36062e-05
1.22297e-05
1.28772e-05
1.28798e-05
1.10681e-05
1.77119e-05
2.06539e-05
2.17852e-05
2.32908e-05
1.86642e-05
1.77257e-05
2.45986e-05
3.07382e-05
2.57203e-05
1.86882e-05
1.57232e-05
3.1453e-05
3.98368e-05
3.29325e-05
2.65921e-05
2.07783e-05
1.33963e-05
1.26889e-05
1.37929e-05
1.14506e-05
1.68314e-05
2.30522e-05
2.29541e-05
1.92433e-05
2.64672e-05
2.85534e-05
1.64064e-05
2.29649e-05
3.53776e-05
4.02334e-05
3.77321e-05
3.35125e-05
3.13777e-05
2.42033e-05
1.42021e-05
1.19226e-05
1.52033e-05
1.39601e-05
1.14264e-05
1.12086e-05
1.51008e-05
2.02943e-05
2.09443e-05
1.6977e-05
1.81183e-05
2.15642e-05
2.05376e-05
2.56967e-05
2.94312e-05
2.12896e-05
1.15836e-05
2.32689e-05
3.52371e-05
3.24097e-05
2.59498e-05
1.8915e-05
1.71541e-05
2.12388e-05
2.10622e-05
1.9272e-05
1.7437e-05
1.52995e-05
1.55873e-05
2.23615e-05
2.65339e-05
3.13591e-05
3.08018e-05
2.51376e-05
2.70554e-05
3.29405e-05
3.33076e-05
3.04516e-05
3.23877e-05
2.85779e-05
1.78314e-05
8.1954e-06
8.82772e-06
1.15239e-05
1.11536e-05
1.30747e-05
1.40719e-05
1.28039e-05
1.6194e-05
2.10031e-05
2.33319e-05
2.19859e-05
1.67795e-05
1.98286e-05
2.98265e-05
2.78644e-05
1.20559e-05
1.06354e-05
2.63562e-05
3.12836e-05
2.79258e-05
2.08201e-05
1.99827e-05
1.96805e-05
1.78588e-05
1.68446e-05
1.51646e-05
1.22077e-05
1.61285e-05
2.74019e-05
2.93545e-05
2.83555e-05
2.8187e-05
2.92358e-05
3.08179e-05
2.90705e-05
2.40493e-05
2.13633e-05
2.60774e-05
3.02364e-05
2.70489e-05
1.86978e-05
9.71445e-06
7.04568e-06
9.0099e-06
1.18275e-05
1.47199e-05
1.76934e-05
2.19577e-05
2.43633e-05
2.43144e-05
2.24267e-05
1.79663e-05
1.58988e-05
2.61835e-05
3.10476e-05
1.96623e-05
6.13171e-06
1.67599e-05
2.40594e-05
2.71243e-05
2.559e-05
1.97982e-05
1.25461e-05
1.62736e-05
2.11014e-05
1.64257e-05
8.60043e-06
1.77126e-05
2.10257e-05
2.28399e-05
2.1449e-05
2.16949e-05
2.22081e-05
2.56704e-05
2.81943e-05
2.28302e-05
1.64343e-05
1.70623e-05
2.00524e-05
2.29652e-05
2.41178e-05
2.37684e-05
2.06038e-05
1.31635e-05
6.75752e-06
1.48486e-05
2.64125e-05
3.10367e-05
2.45118e-05
1.84744e-05
2.43908e-05
2.34441e-05
1.41626e-05
2.45091e-05
3.95301e-05
3.42772e-05
1.3248e-05
1.77934e-05
2.80573e-05
3.04072e-05
2.93418e-05
2.86577e-05
2.8887e-05
2.64912e-05
2.373e-05
2.2852e-05
1.85814e-05
1.54939e-05
1.64334e-05
2.14203e-05
2.26244e-05
2.08963e-05
1.78522e-05
1.72481e-05
1.8878e-05
1.89138e-05
1.81771e-05
1.92713e-05
1.72064e-05
1.36194e-05
1.49908e-05
1.68444e-05
2.06813e-05
2.36994e-05
2.11657e-05
1.65947e-05
1.9462e-05
2.71974e-05
2.78869e-05
2.09022e-05
2.19048e-05
2.55615e-05
2.15703e-05
1.29374e-05
1.85683e-05
2.51684e-05
1.43527e-05
1.43019e-05
3.13278e-05
3.7461e-05
4.26011e-05
4.85259e-05
4.84573e-05
4.13672e-05
3.08282e-05
2.14685e-05
1.49702e-05
1.19311e-05
2.22328e-05
2.31511e-05
2.51157e-05
2.4087e-05
2.03263e-05
1.7735e-05
1.3877e-05
1.13652e-05
1.66936e-05
2.02744e-05
1.74277e-05
1.21381e-05
1.34051e-05
1.7945e-05
1.93352e-05
1.8491e-05
1.82256e-05
1.89682e-05
1.6833e-05
1.02781e-05
5.93363e-06
8.32264e-06
1.50366e-05
2.31316e-05
2.61538e-05
2.4048e-05
1.48408e-05
8.77059e-06
9.79579e-06
9.98772e-06
2.74022e-05
3.89705e-05
4.51102e-05
4.64555e-05
4.18867e-05
3.57856e-05
3.17995e-05
2.93352e-05
2.63492e-05
2.32742e-05
2.93759e-05
2.81906e-05
2.59801e-05
2.22218e-05
1.60833e-05
1.3744e-05
1.7853e-05
1.96148e-05
2.11634e-05
2.32724e-05
2.22187e-05
1.76378e-05
1.25759e-05
8.51778e-06
7.27243e-06
1.10857e-05
1.28384e-05
1.10766e-05
1.07737e-05
1.5597e-05
1.95153e-05
1.71364e-05
1.78938e-05
2.57038e-05
3.18509e-05
3.27495e-05
2.70175e-05
1.69544e-05
1.15617e-05
1.3471e-05
2.46081e-05
3.49094e-05
3.71929e-05
3.24446e-05
2.51986e-05
2.1169e-05
2.19224e-05
2.66038e-05
3.04772e-05
3.07171e-05
2.25058e-05
1.79761e-05
1.37122e-05
1.18148e-05
1.21206e-05
1.28969e-05
1.30739e-05
1.18367e-05
1.03371e-05
1.24515e-05
1.44066e-05
1.3834e-05
1.57933e-05
1.96371e-05
2.00352e-05
1.63706e-05
1.25959e-05
1.30834e-05
1.43532e-05
1.28035e-05
1.39961e-05
1.86655e-05
1.863e-05
2.0469e-05
2.82608e-05
3.24461e-05
2.97975e-05
2.22771e-05
1.52864e-05
1.44369e-05
1.97339e-05
2.51862e-05
2.49634e-05
2.12708e-05
1.89344e-05
1.68562e-05
1.29521e-05
1.18534e-05
1.90308e-05
2.38368e-05
1.12524e-05
1.20432e-05
1.29008e-05
1.29304e-05
1.23272e-05
1.02731e-05
8.51448e-06
8.39907e-06
9.59418e-06
1.37449e-05
1.68484e-05
1.81237e-05
2.181e-05
2.43395e-05
2.09544e-05
1.47926e-05
1.21436e-05
1.28663e-05
1.27467e-05
8.74741e-06
6.55049e-06
1.20766e-05
1.58179e-05
1.85944e-05
1.96195e-05
1.68216e-05
1.12809e-05
7.96012e-06
9.13885e-06
1.04811e-05
1.25775e-05
1.48902e-05
1.59721e-05
1.6835e-05
1.63386e-05
1.32038e-05
9.46425e-06
8.87795e-06
1.029e-05
1.10188e-05
5.85475e-06
8.96734e-06
1.31553e-05
1.42243e-05
1.4725e-05
1.34579e-05
9.85278e-06
8.23969e-06
1.0086e-05
1.30728e-05
1.46298e-05
1.26996e-05
9.06955e-06
8.73769e-06
1.01299e-05
9.67193e-06
9.10919e-06
1.30134e-05
1.99453e-05
2.43119e-05
2.30339e-05
1.8821e-05
1.79459e-05
1.99773e-05
2.33502e-05
2.6802e-05
2.62575e-05
1.99261e-05
9.78342e-06
2.75628e-06
7.99966e-06
1.16724e-05
1.53956e-05
1.9281e-05
2.18176e-05
2.1071e-05
1.6401e-05
1.29564e-05
1.34386e-05
1.11752e-05
6.23581e-05
6.84436e-05
7.34654e-05
7.71175e-05
7.99064e-05
8.19441e-05
8.28102e-05
8.24486e-05
8.15113e-05
8.06667e-05
7.94701e-05
7.68503e-05
7.28747e-05
6.88723e-05
6.60477e-05
6.44489e-05
6.34284e-05
6.25181e-05
6.19651e-05
6.2597e-05
6.47482e-05
6.77583e-05
7.05813e-05
7.32802e-05
7.67376e-05
8.14202e-05
8.64485e-05
8.97296e-05
8.94911e-05
8.5964e-05
8.08807e-05
7.57517e-05
7.09143e-05
6.54718e-05
5.96734e-05
5.53861e-05
5.32569e-05
5.26245e-05
5.35224e-05
5.682e-05
6.15439e-05
6.69005e-05
7.18028e-05
7.62973e-05
8.03037e-05
8.33595e-05
8.50586e-05
8.53746e-05
8.47406e-05
8.3736e-05
8.23652e-05
8.01568e-05
7.70445e-05
7.35726e-05
7.05574e-05
6.81382e-05
6.59163e-05
6.38746e-05
6.27027e-05
6.30252e-05
6.46515e-05
6.6948e-05
6.94134e-05
7.25236e-05
7.71422e-05
8.33045e-05
8.93766e-05
9.29208e-05
9.29516e-05
9.00028e-05
8.51037e-05
8.00331e-05
7.59563e-05
7.1424e-05
6.49914e-05
5.80903e-05
5.32933e-05
5.1497e-05
5.26116e-05
5.63071e-05
5.68472e-05
6.21244e-05
6.75855e-05
7.31274e-05
7.82543e-05
8.22682e-05
8.48438e-05
8.59802e-05
8.5839e-05
8.49771e-05
8.40331e-05
8.30178e-05
8.13677e-05
7.86218e-05
7.52676e-05
7.18933e-05
6.84953e-05
6.51763e-05
6.27004e-05
6.17411e-05
6.21771e-05
6.34795e-05
6.5297e-05
6.80452e-05
7.25894e-05
7.91499e-05
8.62709e-05
9.1404e-05
9.35911e-05
9.3002e-05
8.95675e-05
8.48852e-05
8.16308e-05
7.89035e-05
7.31266e-05
6.36966e-05
5.48309e-05
5.0089e-05
4.96088e-05
5.22969e-05
4.94835e-05
5.45406e-05
6.06515e-05
6.71614e-05
7.33727e-05
7.82999e-05
8.16158e-05
8.35675e-05
8.41651e-05
8.37502e-05
8.3427e-05
8.37962e-05
8.40661e-05
8.28435e-05
7.98706e-05
7.59114e-05
7.15089e-05
6.68358e-05
6.25439e-05
5.95163e-05
5.80065e-05
5.7632e-05
5.80464e-05
5.93429e-05
6.22966e-05
6.77501e-05
7.51689e-05
8.23617e-05
8.78594e-05
9.1442e-05
9.15507e-05
8.82517e-05
8.56181e-05
8.51472e-05
8.22849e-05
7.28649e-05
5.99852e-05
5.02842e-05
4.6092e-05
4.63137e-05
4.11012e-05
4.46056e-05
5.04615e-05
5.73335e-05
6.43174e-05
7.01466e-05
7.39649e-05
7.64064e-05
7.78694e-05
7.8327e-05
7.87118e-05
8.00881e-05
8.21037e-05
8.3134e-05
8.20346e-05
7.88453e-05
7.42723e-05
6.8728e-05
6.27139e-05
5.72991e-05
5.32114e-05
5.03384e-05
4.83497e-05
4.7048e-05
4.70593e-05
4.96817e-05
5.53053e-05
6.29956e-05
7.14427e-05
8.02251e-05
8.66374e-05
8.72188e-05
8.52936e-05
8.64162e-05
8.80231e-05
8.29719e-05
6.99445e-05
5.5565e-05
4.55804e-05
4.09754e-05
3.56527e-05
3.51336e-05
3.80967e-05
4.33482e-05
5.00274e-05
5.66461e-05
6.09735e-05
6.32074e-05
6.51054e-05
6.68914e-05
6.8388e-05
7.02197e-05
7.27867e-05
7.5559e-05
7.76761e-05
7.77231e-05
7.50837e-05
7.00997e-05
6.33739e-05
5.61634e-05
4.96366e-05
4.40356e-05
3.93626e-05
3.58684e-05
3.43091e-05
3.48725e-05
3.76937e-05
4.11424e-05
4.57399e-05
5.5703e-05
6.96067e-05
7.79643e-05
7.83926e-05
7.95603e-05
8.50361e-05
8.75347e-05
8.06938e-05
6.7221e-05
5.32277e-05
4.17321e-05
3.91877e-05
3.10644e-05
2.93621e-05
3.02944e-05
3.33624e-05
3.89025e-05
4.37176e-05
4.47482e-05
4.50118e-05
4.76922e-05
5.13153e-05
5.3755e-05
5.52065e-05
5.71328e-05
6.1585e-05
6.72495e-05
7.03371e-05
6.90772e-05
6.38769e-05
5.63539e-05
4.84169e-05
4.11616e-05
3.52699e-05
3.13825e-05
3.03008e-05
3.00836e-05
3.00597e-05
3.14138e-05
3.02353e-05
2.95777e-05
4.07623e-05
5.73527e-05
6.34902e-05
6.34433e-05
6.9463e-05
7.91085e-05
8.27798e-05
7.81218e-05
6.85427e-05
5.45733e-05
5.58052e-05
3.56923e-05
2.74667e-05
2.63973e-05
2.65934e-05
2.58714e-05
2.80358e-05
3.00458e-05
2.6556e-05
2.41429e-05
2.83104e-05
3.34242e-05
3.39228e-05
3.10696e-05
3.20271e-05
4.1911e-05
5.43599e-05
6.20089e-05
6.26383e-05
5.72548e-05
4.89554e-05
4.12025e-05
3.58578e-05
3.38649e-05
3.61314e-05
4.00276e-05
3.80777e-05
3.19467e-05
2.67801e-05
2.14564e-05
2.16404e-05
3.24831e-05
4.32966e-05
3.93883e-05
3.7736e-05
5.01849e-05
6.61621e-05
7.52184e-05
7.83565e-05
7.3577e-05
7.60341e-05
5.15508e-05
3.04649e-05
2.60684e-05
2.8681e-05
2.87821e-05
2.2001e-05
2.1415e-05
2.22671e-05
1.4652e-05
1.10359e-05
1.47761e-05
1.96689e-05
1.73229e-05
1.03749e-05
1.37349e-05
2.65284e-05
4.49427e-05
5.65985e-05
5.77196e-05
5.0495e-05
4.17915e-05
3.64025e-05
3.44986e-05
3.59827e-05
4.20895e-05
4.64437e-05
4.0144e-05
3.10407e-05
2.21492e-05
1.7312e-05
2.00665e-05
2.49833e-05
2.13388e-05
1.27963e-05
1.73422e-05
2.50522e-05
4.60966e-05
6.68571e-05
8.06505e-05
8.19208e-05
7.14034e-05
4.37294e-05
2.58983e-05
2.60284e-05
3.22105e-05
3.10655e-05
1.95503e-05
1.91753e-05
1.87052e-05
9.00579e-06
1.503e-05
1.67845e-05
1.71868e-05
1.37488e-05
1.59159e-05
1.97453e-05
1.91718e-05
3.90876e-05
5.28811e-05
5.16737e-05
4.21375e-05
3.45747e-05
3.01655e-05
2.79555e-05
3.31826e-05
4.303e-05
4.45729e-05
3.47528e-05
2.65816e-05
1.80285e-05
1.61326e-05
1.46564e-05
1.92102e-05
1.84537e-05
2.13753e-05
2.6671e-05
1.84131e-05
2.99636e-05
6.20094e-05
6.30033e-05
7.82517e-05
6.07778e-05
3.50003e-05
2.12338e-05
2.60043e-05
3.41284e-05
3.0884e-05
1.79706e-05
1.73e-05
1.46248e-05
1.36485e-05
2.29008e-05
1.89349e-05
1.50728e-05
1.49912e-05
2.48377e-05
2.75739e-05
1.75008e-05
3.25417e-05
4.41426e-05
3.98837e-05
3.0634e-05
2.29606e-05
1.79164e-05
2.26893e-05
3.31996e-05
4.13319e-05
3.5752e-05
2.71306e-05
1.99318e-05
1.0295e-05
1.40772e-05
1.90399e-05
2.96165e-05
2.75053e-05
1.8211e-05
2.78231e-05
2.59586e-05
2.53558e-05
2.88984e-05
6.52255e-05
6.75603e-05
4.77093e-05
2.7042e-05
1.96609e-05
2.65661e-05
3.28983e-05
2.75945e-05
1.78778e-05
1.75995e-05
1.41495e-05
1.59736e-05
2.11996e-05
1.93782e-05
1.75154e-05
1.68096e-05
2.72136e-05
2.90232e-05
1.53249e-05
2.08621e-05
2.79827e-05
2.48792e-05
1.91231e-05
1.4252e-05
1.76904e-05
2.49133e-05
3.02936e-05
3.21624e-05
2.38327e-05
1.95821e-05
1.12376e-05
7.08759e-06
1.74724e-05
2.40377e-05
3.47679e-05
3.49616e-05
1.99628e-05
2.9248e-05
2.63894e-05
1.39775e-05
3.9188e-05
6.2858e-05
5.49944e-05
3.65552e-05
2.32733e-05
2.17156e-05
2.62227e-05
2.83957e-05
2.26049e-05
1.85229e-05
1.69323e-05
1.24493e-05
1.57599e-05
2.13893e-05
2.1896e-05
1.79021e-05
1.51946e-05
2.38722e-05
2.66375e-05
1.78192e-05
7.75816e-06
1.30327e-05
1.96e-05
1.85945e-05
1.23816e-05
1.81403e-05
1.90124e-05
2.49869e-05
2.03207e-05
1.71794e-05
1.43487e-05
1.06027e-05
1.16706e-05
1.91345e-05
1.98121e-05
2.85326e-05
3.18468e-05
2.43725e-05
3.20997e-05
2.53687e-05
1.06366e-05
4.82216e-05
5.83071e-05
4.68308e-05
3.28393e-05
2.60673e-05
2.40069e-05
2.42137e-05
2.16982e-05
1.8708e-05
1.84777e-05
1.62902e-05
1.56355e-05
2.09388e-05
2.36508e-05
2.08754e-05
1.36085e-05
1.13318e-05
2.3212e-05
2.65461e-05
1.84101e-05
1.76407e-05
1.98672e-05
2.02501e-05
1.67906e-05
1.138e-05
1.26236e-05
1.90094e-05
2.1372e-05
1.40962e-05
1.62518e-05
1.64138e-05
1.40403e-05
1.09636e-05
1.37247e-05
1.24787e-05
2.09847e-05
2.34949e-05
2.56847e-05
2.38427e-05
1.32081e-05
2.78909e-05
5.6228e-05
5.78197e-05
4.522e-05
3.546e-05
3.0837e-05
2.7817e-05
2.42715e-05
2.04754e-05
2.06618e-05
2.14452e-05
2.06701e-05
2.17641e-05
2.30024e-05
2.09602e-05
1.77344e-05
1.50676e-05
1.59535e-05
1.6826e-05
2.08241e-05
2.56999e-05
2.00851e-05
1.21699e-05
1.50262e-05
1.34242e-05
1.18346e-05
1.55504e-05
2.30906e-05
1.77597e-05
1.56111e-05
1.67423e-05
1.5684e-05
1.18632e-05
9.92831e-06
9.08182e-06
1.36619e-05
1.87896e-05
1.75909e-05
2.25532e-05
2.49499e-05
8.52334e-06
3.97038e-05
6.44444e-05
6.47668e-05
5.40702e-05
4.45312e-05
3.70947e-05
3.07756e-05
2.42743e-05
2.20278e-05
2.48622e-05
2.67896e-05
2.48037e-05
2.12103e-05
1.93766e-05
1.86414e-05
1.60509e-05
1.47358e-05
1.76756e-05
2.33062e-05
2.47239e-05
1.5627e-05
7.69123e-06
1.42185e-05
1.49963e-05
1.34459e-05
1.33501e-05
2.15057e-05
2.15701e-05
1.6189e-05
1.36076e-05
1.25818e-05
1.30435e-05
1.62315e-05
1.76581e-05
1.14032e-05
1.65709e-05
2.26666e-05
2.46203e-05
2.43298e-05
2.45796e-05
1.57143e-05
3.89223e-05
6.42487e-05
7.15355e-05
6.37861e-05
4.85931e-05
3.39872e-05
2.43295e-05
1.97226e-05
2.0033e-05
2.34223e-05
2.53936e-05
2.26033e-05
2.11191e-05
2.12975e-05
1.74358e-05
1.1926e-05
1.27139e-05
1.65057e-05
1.60133e-05
1.06455e-05
1.1395e-05
1.85321e-05
2.16018e-05
1.83646e-05
1.42993e-05
1.63773e-05
2.16294e-05
2.03454e-05
1.62649e-05
1.43012e-05
1.51859e-05
1.69407e-05
1.8793e-05
1.86224e-05
1.88145e-05
2.36494e-05
3.05703e-05
2.70239e-05
2.14342e-05
2.20177e-05
2.29491e-05
2.93093e-05
4.78116e-05
6.12543e-05
5.73893e-05
4.06091e-05
2.35971e-05
1.47984e-05
1.56879e-05
1.67106e-05
1.41872e-05
1.5636e-05
2.35098e-05
2.60786e-05
2.1843e-05
1.79573e-05
1.85863e-05
1.57921e-05
9.29964e-06
7.52015e-06
1.14885e-05
2.01076e-05
2.89549e-05
2.97457e-05
2.19272e-05
1.65467e-05
1.76134e-05
2.14456e-05
2.4413e-05
2.30722e-05
1.75588e-05
1.51345e-05
1.52446e-05
1.59801e-05
2.17856e-05
2.90186e-05
2.66628e-05
2.35071e-05
1.86325e-05
1.39953e-05
1.88235e-05
2.66311e-05
2.32291e-05
2.53243e-05
4.44483e-05
4.89707e-05
3.86823e-05
2.47285e-05
1.23542e-05
4.54447e-06
9.33142e-06
1.28638e-05
1.45948e-05
1.98335e-05
2.85368e-05
3.38168e-05
3.1458e-05
2.24814e-05
1.51404e-05
1.50285e-05
1.57957e-05
1.49296e-05
1.88095e-05
2.60587e-05
2.46948e-05
1.95208e-05
2.16307e-05
2.64993e-05
3.27537e-05
3.56128e-05
3.11045e-05
2.16253e-05
1.51009e-05
1.84583e-05
2.47907e-05
2.79107e-05
1.65789e-05
2.05329e-05
2.31439e-05
2.03663e-05
1.61219e-05
1.74174e-05
2.31731e-05
2.34872e-05
1.73555e-05
1.99906e-05
2.39357e-05
2.05568e-05
1.79716e-05
1.81968e-05
1.5862e-05
1.45358e-05
1.81849e-05
2.2641e-05
3.0366e-05
3.78294e-05
3.50587e-05
2.18212e-05
1.04247e-05
1.43998e-05
1.85491e-05
2.16272e-05
2.01063e-05
1.32602e-05
1.37448e-05
1.7659e-05
2.45811e-05
3.06237e-05
3.31924e-05
3.38541e-05
3.33483e-05
3.08034e-05
2.42476e-05
1.66801e-05
1.56376e-05
1.58317e-05
1.38357e-05
1.74548e-05
2.01732e-05
1.98328e-05
1.71867e-05
1.57925e-05
1.56892e-05
1.43409e-05
1.36911e-05
1.62386e-05
1.6016e-05
1.10608e-05
8.9772e-06
1.28613e-05
1.51431e-05
1.74695e-05
2.2903e-05
2.81255e-05
2.83383e-05
2.46336e-05
2.20369e-05
1.67314e-05
7.65505e-06
1.16424e-05
2.06536e-05
2.70975e-05
2.86442e-05
2.38347e-05
1.89951e-05
1.82411e-05
2.18292e-05
2.58195e-05
2.40661e-05
2.13884e-05
2.64637e-05
3.32034e-05
3.43071e-05
2.91126e-05
2.1148e-05
1.43164e-05
2.28834e-05
1.96602e-05
1.62682e-05
1.30876e-05
1.38903e-05
1.54131e-05
1.21213e-05
1.25594e-05
1.92279e-05
2.43425e-05
2.499e-05
2.10135e-05
1.49924e-05
8.98779e-06
7.70481e-06
1.19915e-05
1.48515e-05
1.68028e-05
1.9681e-05
1.86716e-05
1.28337e-05
9.87331e-06
7.22887e-06
5.34164e-06
1.55834e-05
2.4739e-05
2.92332e-05
2.77085e-05
2.23343e-05
1.96564e-05
2.07622e-05
2.15416e-05
1.82157e-05
1.44033e-05
1.71685e-05
2.19335e-05
2.61183e-05
2.945e-05
2.97933e-05
2.67259e-05
1.60783e-05
1.26907e-05
1.1898e-05
1.15167e-05
9.67129e-06
9.78146e-06
1.2896e-05
1.43166e-05
1.55144e-05
1.85226e-05
2.19286e-05
2.34e-05
2.19767e-05
2.04527e-05
2.11668e-05
2.30144e-05
2.52091e-05
2.51699e-05
2.12972e-05
1.74401e-05
1.45883e-05
1.0191e-05
6.19907e-06
7.01186e-06
8.45382e-06
1.0513e-05
1.74146e-05
2.28381e-05
2.15774e-05
1.86892e-05
1.89215e-05
1.67483e-05
1.3032e-05
1.25547e-05
1.04181e-05
5.34243e-06
6.34511e-06
1.02982e-05
1.5101e-05
1.78613e-05
1.03183e-05
1.08317e-05
1.1099e-05
9.86199e-06
1.00309e-05
1.19027e-05
1.28678e-05
1.13378e-05
8.28452e-06
1.00121e-05
1.38155e-05
1.38935e-05
1.38355e-05
1.56662e-05
1.4848e-05
1.14181e-05
9.53167e-06
1.21578e-05
1.60454e-05
1.66099e-05
1.36297e-05
1.16058e-05
1.11859e-05
1.26867e-05
1.9107e-05
2.47839e-05
2.57502e-05
2.31866e-05
1.87325e-05
1.36578e-05
1.12876e-05
1.28401e-05
1.575e-05
1.76907e-05
1.65756e-05
1.24718e-05
9.28477e-06
1.05187e-05
1.22948e-05
1.17307e-05
7.51911e-06
1.35865e-05
1.77347e-05
1.81386e-05
1.71479e-05
1.69536e-05
1.94244e-05
2.22461e-05
2.36043e-05
2.42546e-05
2.41845e-05
2.12274e-05
1.52288e-05
1.12639e-05
1.33518e-05
1.42826e-05
1.13886e-05
1.0007e-05
1.46625e-05
1.80335e-05
1.8244e-05
1.78399e-05
1.69448e-05
1.61563e-05
2.24999e-05
2.9784e-05
2.90281e-05
2.3043e-05
1.92973e-05
1.69903e-05
1.63122e-05
1.94011e-05
2.43759e-05
2.66249e-05
2.40051e-05
1.98403e-05
1.47148e-05
8.11255e-06
7.31372e-06
7.77752e-06
4.64324e-05
5.01924e-05
5.48544e-05
5.96548e-05
6.39519e-05
6.73483e-05
6.94802e-05
7.02648e-05
7.03022e-05
7.02098e-05
6.98478e-05
6.86117e-05
6.68056e-05
6.55614e-05
6.54531e-05
6.5982e-05
6.64995e-05
6.68633e-05
6.74286e-05
6.8649e-05
7.03895e-05
7.18187e-05
7.24838e-05
7.29801e-05
7.42479e-05
7.69098e-05
8.0784e-05
8.43816e-05
8.60123e-05
8.54455e-05
8.33283e-05
7.99901e-05
7.44716e-05
6.58756e-05
5.62446e-05
4.91944e-05
4.53011e-05
4.36142e-05
4.33203e-05
4.4132e-05
4.50703e-05
4.85375e-05
5.30958e-05
5.82382e-05
6.35679e-05
6.83717e-05
7.18651e-05
7.37939e-05
7.44913e-05
7.43556e-05
7.35245e-05
7.21501e-05
7.07608e-05
6.99009e-05
6.95985e-05
6.93978e-05
6.89482e-05
6.84754e-05
6.86188e-05
6.96438e-05
7.10444e-05
7.20539e-05
7.24781e-05
7.30766e-05
7.49389e-05
7.85391e-05
8.31516e-05
8.72056e-05
8.93127e-05
8.91125e-05
8.71022e-05
8.43321e-05
8.04669e-05
7.37453e-05
6.38826e-05
5.38377e-05
4.69135e-05
4.35966e-05
4.25709e-05
4.30776e-05
4.15963e-05
4.47037e-05
4.93577e-05
5.50772e-05
6.14325e-05
6.75413e-05
7.25157e-05
7.58562e-05
7.75848e-05
7.79106e-05
7.72807e-05
7.63471e-05
7.55632e-05
7.49539e-05
7.43154e-05
7.34038e-05
7.19575e-05
7.02047e-05
6.89269e-05
6.86752e-05
6.916e-05
6.96542e-05
6.98104e-05
7.01772e-05
7.19227e-05
7.567e-05
8.07757e-05
8.58116e-05
8.94267e-05
9.07135e-05
8.96386e-05
8.799e-05
8.6688e-05
8.35003e-05
7.50213e-05
6.18595e-05
5.00301e-05
4.33998e-05
4.08356e-05
4.03324e-05
3.71246e-05
3.97293e-05
4.42998e-05
5.0299e-05
5.7257e-05
6.4319e-05
7.06288e-05
7.55085e-05
7.87054e-05
8.01122e-05
8.02158e-05
8.00592e-05
8.02072e-05
8.02901e-05
7.98033e-05
7.85733e-05
7.64094e-05
7.32147e-05
6.96303e-05
6.67773e-05
6.51841e-05
6.43803e-05
6.3765e-05
6.34497e-05
6.44422e-05
6.76438e-05
7.28044e-05
7.87567e-05
8.44228e-05
8.83631e-05
8.90933e-05
8.84152e-05
8.93726e-05
9.07686e-05
8.67887e-05
7.3532e-05
5.65386e-05
4.45663e-05
3.9096e-05
3.69038e-05
3.25705e-05
3.40969e-05
3.81436e-05
4.37969e-05
5.04962e-05
5.76319e-05
6.44868e-05
7.04844e-05
7.53258e-05
7.85176e-05
8.00189e-05
8.08541e-05
8.20807e-05
8.34467e-05
8.40782e-05
8.35182e-05
8.16406e-05
7.78567e-05
7.20717e-05
6.56395e-05
6.03415e-05
5.66074e-05
5.39504e-05
5.2093e-05
5.15974e-05
5.36185e-05
5.82403e-05
6.42391e-05
7.13408e-05
7.89492e-05
8.30927e-05
8.31752e-05
8.49258e-05
9.06769e-05
9.42402e-05
8.66332e-05
6.80194e-05
4.97246e-05
3.9282e-05
3.42338e-05
2.94592e-05
2.8871e-05
3.20294e-05
3.68488e-05
4.20527e-05
4.7606e-05
5.31984e-05
5.87644e-05
6.45173e-05
6.98586e-05
7.36231e-05
7.58079e-05
7.77776e-05
8.0343e-05
8.27637e-05
8.42611e-05
8.44696e-05
8.2202e-05
7.60994e-05
6.68563e-05
5.71882e-05
4.89092e-05
4.2422e-05
3.79428e-05
3.60788e-05
3.77444e-05
4.22071e-05
4.67307e-05
5.06184e-05
5.96436e-05
6.95332e-05
7.12483e-05
7.10936e-05
7.87319e-05
9.10931e-05
9.511e-05
8.25075e-05
6.07722e-05
4.37108e-05
3.42948e-05
2.99912e-05
2.56535e-05
2.7199e-05
3.17184e-05
3.54545e-05
3.81578e-05
4.01785e-05
4.17821e-05
4.4747e-05
5.04489e-05
5.69831e-05
6.15822e-05
6.40649e-05
6.64335e-05
6.9782e-05
7.39064e-05
7.80683e-05
8.03908e-05
7.76599e-05
6.87844e-05
5.67111e-05
4.4772e-05
3.49139e-05
2.85342e-05
2.60487e-05
2.7659e-05
3.27511e-05
3.79592e-05
3.84859e-05
3.69824e-05
4.80468e-05
5.42564e-05
4.90324e-05
5.22179e-05
7.10165e-05
9.01994e-05
9.26179e-05
7.61545e-05
5.41782e-05
3.89527e-05
3.58783e-05
2.71944e-05
2.37704e-05
2.73648e-05
3.17124e-05
3.31813e-05
3.24467e-05
3.03836e-05
2.81812e-05
2.90505e-05
3.26844e-05
3.73745e-05
4.01803e-05
3.98252e-05
3.92801e-05
4.27441e-05
5.17996e-05
6.31106e-05
6.89452e-05
6.54555e-05
5.51157e-05
4.34793e-05
3.44857e-05
2.93075e-05
2.7035e-05
2.73097e-05
3.07582e-05
3.54629e-05
3.55296e-05
3.21109e-05
2.95669e-05
3.78139e-05
3.07982e-05
1.93267e-05
3.08637e-05
6.28819e-05
8.70649e-05
8.80355e-05
7.03381e-05
4.958e-05
4.7019e-05
3.54194e-05
2.62371e-05
2.2303e-05
2.69882e-05
3.12855e-05
3.11389e-05
2.81934e-05
2.44934e-05
2.19608e-05
2.30981e-05
2.26596e-05
2.10245e-05
1.82969e-05
1.81125e-05
2.41089e-05
2.44297e-05
2.48719e-05
4.07331e-05
5.02264e-05
4.7385e-05
3.97077e-05
3.46354e-05
3.42361e-05
3.6637e-05
3.7919e-05
3.64318e-05
3.63409e-05
4.06351e-05
3.20715e-05
2.72376e-05
2.44666e-05
2.90176e-05
1.07245e-05
1.79066e-05
2.03824e-05
5.59902e-05
8.31537e-05
8.45938e-05
6.63581e-05
6.22286e-05
4.63278e-05
3.69829e-05
2.54415e-05
2.04096e-05
2.78079e-05
3.32825e-05
3.19744e-05
2.76065e-05
2.24736e-05
1.92967e-05
2.08161e-05
2.04719e-05
1.94055e-05
2.1486e-05
2.81949e-05
3.72968e-05
3.53948e-05
1.80392e-05
2.31953e-05
3.35696e-05
3.31195e-05
3.06403e-05
3.24179e-05
3.75706e-05
4.19003e-05
3.93235e-05
3.07019e-05
3.06472e-05
3.86892e-05
2.19537e-05
2.34876e-05
1.95461e-05
2.74051e-05
6.11401e-06
2.77809e-05
1.84406e-05
5.07196e-05
8.12053e-05
8.19374e-05
7.5685e-05
5.65871e-05
4.66631e-05
3.72583e-05
2.23488e-05
2.04529e-05
3.09771e-05
3.63769e-05
3.45554e-05
2.85631e-05
2.0173e-05
1.57142e-05
1.92192e-05
2.06359e-05
1.67841e-05
1.163e-05
1.52057e-05
2.85579e-05
2.98525e-05
1.3019e-05
1.94496e-05
2.81138e-05
2.83433e-05
2.88517e-05
3.05425e-05
3.26458e-05
3.40674e-05
2.62956e-05
1.59522e-05
2.04891e-05
2.62605e-05
1.47223e-05
2.01601e-05
1.63345e-05
2.60082e-05
1.17143e-05
3.33077e-05
1.9529e-05
4.93739e-05
7.95465e-05
7.42705e-05
6.50201e-05
5.04706e-05
4.35122e-05
3.17884e-05
1.83981e-05