/*--------------------------------*- C++ -*----------------------------------*\
| =========                 |                                                 |
| \\      /  F ield         | OpenFOAM: The Open Source CFD Toolbox           |
|  \\    /   O peration     | Version:  2306                                  |
|   \\  /    A nd           | Website:  www.openfoam.com                      |
|    \\/     M anipulation  |                                                 |
\*---------------------------------------------------------------------------*/
FoamFile
{
    version     2.0;
    format      ascii;
    arch        "LSB;label=32;scalar=64";
    class       volScalarField;
    location    "5.5";
    object      p;
}
// * * * * * * * * * * * * * * * * * * * * * * * * * * * * * * * * * * * * * //

dimensions      [0 2 -2 0 0 0 0];

internalField   nonuniform List<scalar> 
60000
(
-8.85566e-05
-9.50995e-05
-0.000147985
-0.0002109
-0.000237453
-0.000224425
-0.000201394
-0.000189177
-0.000180169
-0.000167149
-0.000158588
-0.000167488
-0.000183686
-0.000180799
-0.000147167
-9.63665e-05
-5.27569e-05
-4.38114e-05
-7.33549e-05
-0.000110607
-0.000142164
-0.00018806
-0.000254604
-0.000307767
-0.000317096
-0.000262695
-0.000168043
-8.97691e-05
-5.93586e-05
-8.04032e-05
-0.000126275
-0.000143462
-9.86761e-05
-3.95578e-05
-8.60937e-06
-9.11858e-06
-3.5762e-05
-7.50288e-05
-0.00010441
-0.000104757
-8.69794e-05
-9.31423e-05
-0.000146399
-0.00021086
-0.000238894
-0.000226223
-0.000202553
-0.000189742
-0.000180471
-0.000167624
-0.000159412
-0.000168509
-0.000184896
-0.000182046
-0.000148403
-9.75094e-05
-5.35827e-05
-4.40004e-05
-7.30924e-05
-0.000110052
-0.000141216
-0.000187124
-0.000254107
-0.000308129
-0.000318406
-0.000264421
-0.000169671
-9.12454e-05
-6.04792e-05
-8.1177e-05
-0.000127119
-0.000144946
-0.000100281
-4.0358e-05
-8.6421e-06
-8.55287e-06
-3.45535e-05
-7.3546e-05
-0.000102879
-0.000103516
-8.59509e-05
-9.15425e-05
-0.000145694
-0.00021284
-0.000242972
-0.000230455
-0.000205002
-0.000190854
-0.000181008
-0.00016819
-0.00015995
-0.000169231
-0.000186194
-0.000183993
-0.000150651
-9.94617e-05
-5.4536e-05
-4.3627e-05
-7.20995e-05
-0.000108935
-0.000140119
-0.000186463
-0.000254395
-0.000309797
-0.00032078
-0.000266577
-0.000170998
-9.24313e-05
-6.15396e-05
-8.2274e-05
-0.000128859
-0.000147974
-0.000103146
-4.19771e-05
-9.36247e-06
-8.37937e-06
-3.33964e-05
-7.22355e-05
-0.000102042
-0.00010334
-8.50411e-05
-9.01046e-05
-0.000145752
-0.000217201
-0.00025034
-0.000237849
-0.000209729
-0.000193099
-0.00018197
-0.000168868
-0.000160302
-0.000169592
-0.000187386
-0.000186366
-0.000153826
-0.000102348
-5.56292e-05
-4.24668e-05
-7.0081e-05
-0.000107084
-0.000138659
-0.000186137
-0.000255348
-0.000312726
-0.000324165
-0.000268857
-0.000171401
-9.26571e-05
-6.23888e-05
-8.41823e-05
-0.000132003
-0.000152803
-0.000107163
-4.4147e-05
-1.07869e-05
-8.95395e-06
-3.24411e-05
-7.11163e-05
-0.000101892
-0.000104275
-8.45803e-05
-8.78443e-05
-0.00014545
-0.000222915
-0.000260452
-0.000248629
-0.000216961
-0.000196917
-0.000183616
-0.000169782
-0.000160474
-0.000169391
-0.00018783
-0.00018824
-0.000157264
-0.000106265
-5.74622e-05
-4.08694e-05
-6.6949e-05
-0.00010415
-0.000136615
-0.00018568
-0.00025719
-0.000316954
-0.000329228
-0.000272596
-0.000173058
-9.36938e-05
-6.34441e-05
-8.72022e-05
-0.000136833
-0.000159359
-0.000111762
-4.60912e-05
-1.23958e-05
-1.03777e-05
-3.19689e-05
-6.97775e-05
-0.00010188
-0.00010525
-8.36275e-05
-8.28586e-05
-0.00014599
-0.000230367
-0.000271097
-0.000262355
-0.000226842
-0.000202572
-0.00018597
-0.000171093
-0.00016083
-0.0001688
-0.000187222
-0.000188467
-0.000159458
-0.000110356
-6.03158e-05
-3.94125e-05
-6.27786e-05
-9.96767e-05
-0.000133246
-0.000184873
-0.000259707
-0.000323185
-0.000337716
-0.000280566
-0.000178693
-0.000101141
-7.06343e-05
-9.32273e-05
-0.000143534
-0.000167189
-0.000116576
-4.68959e-05
-1.28632e-05
-1.18602e-05
-3.16688e-05
-6.77943e-05
-0.000101427
-0.000106111
-8.38338e-05
-7.39317e-05
-0.000138088
-0.00023638
-0.000289635
-0.00028353
-0.000241412
-0.00021095
-0.000188875
-0.000172278
-0.00016169
-0.000168867
-0.000185833
-0.0001868
-0.000159027
-0.000112827
-6.34082e-05
-3.84608e-05
-5.7861e-05
-9.32819e-05
-0.000127886
-0.000182886
-0.000263074
-0.000331789
-0.000350771
-0.000293883
-0.00018889
-0.000111017
-8.42818e-05
-0.000108314
-0.000155556
-0.000177929
-0.000122274
-4.68069e-05
-1.12949e-05
-1.1661e-05
-3.08024e-05
-6.48773e-05
-9.99281e-05
-0.00010875
-8.92461e-05
-6.41919e-05
-0.00012098
-0.000232474
-0.000304807
-0.000314717
-0.000264358
-0.000225672
-0.000194704
-0.000173176
-0.000161879
-0.000170556
-0.000186944
-0.000184412
-0.00015579
-0.000111856
-6.47235e-05
-3.76496e-05
-5.26981e-05
-8.49763e-05
-0.000120053
-0.000179427
-0.000266054
-0.000338864
-0.000360102
-0.000302616
-0.000192209
-0.000109761
-9.19203e-05
-0.000125181
-0.000175334
-0.000196225
-0.00013192
-4.97798e-05
-1.11479e-05
-8.9499e-06
-2.59795e-05
-5.94479e-05
-9.81867e-05
-0.000114132
-9.8649e-05
-5.70639e-05
-9.66062e-05
-0.000219112
-0.000314622
-0.000340025
-0.000295712
-0.000247452
-0.000204461
-0.000177007
-0.000162783
-0.00017182
-0.000190646
-0.000186971
-0.000155287
-0.000107343
-6.19416e-05
-3.50117e-05
-4.76227e-05
-7.54642e-05
-0.000110124
-0.000175196
-0.000268696
-0.000342696
-0.000358475
-0.000293142
-0.000174606
-8.7029e-05
-7.94304e-05
-0.000131321
-0.000198436
-0.000226045
-0.00014801
-5.4216e-05
-1.33079e-05
-1.41444e-05
-2.71636e-05
-5.47946e-05
-9.36416e-05
-0.000117832
-0.000104419
-5.20172e-05
-6.55366e-05
-0.000193006
-0.000316659
-0.000364351
-0.00032742
-0.000277872
-0.000217831
-0.000181957
-0.000166034
-0.000175431
-0.000193946
-0.000189664
-0.000160573
-0.000115011
-6.47826e-05
-3.01653e-05
-4.26555e-05
-6.62517e-05
-9.97533e-05
-0.000170993
-0.000272588
-0.000345853
-0.000350149
-0.00026883
-0.000135081
-3.66722e-05
-4.19084e-05
-0.000121914
-0.000218717
-0.000265007
-0.000171574
-6.47357e-05
-1.98987e-05
-2.10016e-05
-3.1991e-05
-5.61291e-05
-9.02307e-05
-0.000114378
-9.97716e-05
-4.72595e-05
-3.43244e-05
-0.000149573
-0.000299414
-0.000377074
-0.000372647
-0.00031609
-0.000237259
-0.000187686
-0.000167543
-0.000176813
-0.000197642
-0.000193538
-0.000166537
-0.00012876
-8.49008e-05
-4.29004e-05
-3.28655e-05
-5.85985e-05
-9.18239e-05
-0.000166492
-0.00028098
-0.000352693
-0.000344249
-0.000245481
-9.45067e-05
2.54802e-05
1.99298e-05
-9.06718e-05
-0.00022559
-0.000303564
-0.000209265
-8.72323e-05
-3.80512e-05
-3.44788e-05
-3.59345e-05
-5.55984e-05
-7.57666e-05
-9.98811e-05
-7.58706e-05
-4.04374e-05
-1.3206e-05
-0.000101626
-0.000257552
-0.000364619
-0.000396872
-0.000361903
-0.000264557
-0.000196452
-0.000167149
-0.000175231
-0.000197553
-0.000195154
-0.000170969
-0.000139896
-0.000106142
-7.2521e-05
-5.83026e-05
-6.9698e-05
-9.40861e-05
-0.000161998
-0.000287003
-0.000352294
-0.000337801
-0.000233322
-8.19926e-05
6.54482e-05
8.34573e-05
-3.4296e-05
-0.00020155
-0.000296717
-0.000238082
-0.000117507
-6.57595e-05
-5.1912e-05
-4.08319e-05
-3.78434e-05
-5.28529e-05
-6.40287e-05
-3.35327e-05
-3.3125e-05
-9.10885e-06
-6.62335e-05
-0.000201973
-0.000324489
-0.000390726
-0.000389831
-0.000294276
-0.000212218
-0.000168279
-0.000172111
-0.000195526
-0.000195729
-0.000170791
-0.000144849
-0.00011925
-9.49603e-05
-9.16287e-05
-0.000111376
-0.000118707
-0.000163489
-0.000245558
-0.00033206
-0.000313801
-0.000223147
-9.0898e-05
6.27434e-05
0.000114632
2.95111e-05
-0.000143544
-0.000259358
-0.000248666
-0.000146003
-9.43315e-05
-7.03348e-05
-4.89324e-05
-4.03423e-05
-3.76032e-05
-2.44712e-05
-1.24894e-05
-2.94056e-05
-2.25014e-05
-5.01695e-05
-0.000143796
-0.000264187
-0.000354998
-0.000390278
-0.000328464
-0.000227881
-0.000170569
-0.000170524
-0.000195131
-0.000198518
-0.000173739
-0.000147199
-0.000124229
-0.000101965
-0.000109861
-0.000142339
-0.000147322
-0.000168761
-0.00023664
-0.000302878
-0.000293909
-0.000216198
-0.000108528
9.80058e-06
0.000104278
6.8231e-05
-7.54673e-05
-0.000196656
-0.000217381
-0.000168193
-0.000118895
-8.75929e-05
-5.85038e-05
-4.35873e-05
-4.04574e-05
-5.82455e-06
-6.77106e-06
-4.62089e-05
-3.9651e-05
-1.66765e-05
-8.8344e-05
-0.000194211
-0.000297954
-0.00036349
-0.000334725
-0.000240676
-0.000170917
-0.000167182
-0.000195082
-0.000201195
-0.000183971
-0.000156196
-0.000128458
-0.000101238
-0.000106669
-0.000144361
-0.000154014
-0.000165018
-0.000221978
-0.00028298
-0.000281252
-0.000209257
-0.000128308
-3.57687e-05
7.31855e-05
7.72731e-05
-2.82638e-05
-0.000136203
-0.000183881
-0.000187993
-0.000138294
-0.000102877
-7.18744e-05
-5.43488e-05
-3.97076e-05
-4.56264e-06
-9.36975e-06
-4.36312e-05
-5.49424e-05
-2.45151e-05
-5.05225e-05
-0.000129457
-0.000231919
-0.000316284
-0.000316556
-0.000238744
-0.000172778
-0.000168019
-0.000197354
-0.000200667
-0.000190559
-0.000165172
-0.000136344
-0.000108062
-0.000102049
-0.000130973
-0.000151098
-0.00015701
-0.00019556
-0.000259438
-0.000268194
-0.000189365
-0.000133581
-7.98897e-05
2.18502e-05
5.86194e-05
-4.94707e-06
-9.44613e-05
-0.000155825
-0.000174169
-0.000152588
-0.000123839
-9.30995e-05
-6.64982e-05
-3.95757e-05
-4.6005e-06
-1.07824e-05
-4.32768e-05
-5.65061e-05
-4.07282e-05
-4.73974e-05
-9.49148e-05
-0.000174364
-0.000253583
-0.000277414
-0.00022617
-0.000172442
-0.000171838
-0.000197956
-0.000220198
-0.000198859
-0.000170424
-0.000139236
-0.000114605
-0.000106248
-0.000125433
-0.000151151
-0.000152731
-0.000173118
-0.000227465
-0.000230247
-0.000170391
-0.000119463
-0.000100869
-2.92135e-05
1.59753e-05
-4.06121e-06
-6.45237e-05
-0.000129389
-0.000167541
-0.000164505
-0.000136048
-0.000107155
-7.75326e-05
-4.87518e-05
-7.08549e-06
-1.27061e-05
-4.86447e-05
-7.08142e-05
-6.71003e-05
-6.96162e-05
-8.97607e-05
-0.000128484
-0.000183697
-0.00021671
-0.000204354
-0.000180466
-0.000178173
-0.000208721
-0.000222165
-0.000201736
-0.000173795
-0.000147204
-0.000117338
-9.89521e-05
-0.000110973
-0.000149378
-0.000155369
-0.000159495
-0.000205903
-0.000221327
-0.00016746
-0.000109782
-9.59937e-05
-5.47212e-05
-1.98213e-05
-2.05817e-05
-6.21213e-05
-0.00012287
-0.000167431
-0.000172602
-0.000143581
-0.000101581
-6.9537e-05
-5.21587e-05
-1.0199e-05
-2.00881e-05
-6.29169e-05
-9.79539e-05
-9.90021e-05
-9.13655e-05
-0.000101284
-0.000128101
-0.000145936
-0.000150532
-0.000155079
-0.000174522
-0.000187142
-0.000215406
-0.000226905
-0.000211966
-0.000192066
-0.000170961
-0.000143571
-0.000109648
-9.84677e-05
-0.000128241
-0.000141665
-0.000133572
-0.000162177
-0.000195542
-0.00017176
-0.000113821
-9.39268e-05
-7.13057e-05
-2.98389e-05
-1.85023e-05
-6.69027e-05
-0.000139564
-0.000177677
-0.000168153
-0.000137881
-0.000102599
-6.67079e-05
-3.69427e-05
-1.20852e-05
-4.6683e-05
-7.80011e-05
-0.000108491
-0.000127556
-0.000124761
-0.000132473
-0.000139025
-0.0001438
-0.000148272
-0.000146374
-0.000137822
-0.000169219
-0.000195656
-0.000209566
-0.000209918
-0.000204785
-0.000202727
-0.000194871
-0.00016646
-0.000137469
-0.000137302
-0.000135256
-0.000115366
-0.000114286
-0.000161478
-0.00017625
-0.00014645
-0.000115281
-8.93614e-05
-4.10588e-05
-1.60405e-05
-6.46271e-05
-0.000142551
-0.000184755
-0.00017979
-0.000152679
-0.000119588
-7.82157e-05
-4.56326e-05
-3.3583e-05
-4.84668e-05
-7.5234e-05
-9.6161e-05
-0.000128007
-0.000166419
-0.00018428
-0.000187217
-0.000168612
-0.000142358
-0.000130704
-0.000142372
-0.00017438
-0.000197279
-0.000202671
-0.000203021
-0.000205774
-0.000218374
-0.000218587
-0.000202722
-0.000177031
-0.000158496
-0.00014396
-0.000118727
-0.000120256
-0.000142621
-0.000181681
-0.000173794
-0.000132656
-9.46722e-05
-2.95335e-05
-1.5927e-05
-6.45776e-05
-0.000160881
-0.000234784
-0.000248854
-0.00020373
-0.000145358
-9.4294e-05
-5.04545e-05
-3.69167e-05
-6.79884e-05
-9.40992e-05
-8.4457e-05
-8.6225e-05
-0.000104991
-0.000145137
-0.000174784
-0.000179234
-0.000157088
-0.000137616
-0.00014181
-0.000169145
-0.000193153
-0.000200856
-0.000199571
-0.000203705
-0.000208612
-0.000213766
-0.000215138
-0.000207776
-0.00018222
-0.000151814
-0.00012263
-0.00010558
-0.000124819
-0.000161741
-0.000169421
-0.000140087
-0.000125475
-3.09552e-05
1.37215e-05
-4.16008e-05
-0.000151046
-0.000248138
-0.000292614
-0.000260273
-0.000190398
-0.000109447
-5.4286e-05
-4.18083e-05
-7.16603e-05
-9.62702e-05
-0.000121752
-0.000102198
-9.93447e-05
-0.000112326
-0.000133742
-0.000146673
-0.000154246
-0.000161791
-0.000169592
-0.000182867
-0.000187938
-0.000187924
-0.000192851
-0.000198458
-0.000193306
-0.000184528
-0.00018014
-0.000179168
-0.00017116
-0.000133445
-0.000124079
-0.00010481
-0.000113209
-0.000142684
-0.000149548
-0.000130037
-0.000114409
-6.00761e-05
-1.90899e-05
-4.3793e-05
-0.000118995
-0.000199033
-0.000241742
-0.000237086
-0.000196189
-0.000138772
-8.96179e-05
-6.30649e-05
-8.97812e-05
-9.9167e-05
-0.000104727
-9.17377e-05
-9.43432e-05
-0.00012199
-0.000161966
-0.000193555
-0.000201325
-0.00019702
-0.000189873
-0.000180521
-0.000166361
-0.000154874
-0.000158956
-0.000174215
-0.000192644
-0.000194844
-0.000192159
-0.000179844
-0.000152662
-0.000127174
-0.000114717
-9.93143e-05
-9.60781e-05
-0.000117262
-0.000141821
-0.000152022
-0.000141595
-0.000114544
-8.72193e-05
-7.36552e-05
-0.000110133
-0.000170038
-0.000214856
-0.000221026
-0.000205841
-0.000169736
-0.00012318
-9.32125e-05
-0.000102515
-9.69238e-05
-0.000102531
-9.50579e-05
-9.88884e-05
-0.000122562
-0.00016329
-0.000201332
-0.000223523
-0.000221765
-0.000213234
-0.000198514
-0.000178555
-0.000162328
-0.000161842
-0.000176995
-0.000186914
-0.000179452
-0.000167768
-0.000163617
-0.000153084
-0.000123346
-9.0628e-05
-6.7873e-05
-6.58582e-05
-9.84352e-05
-0.000146176
-0.000194045
-0.000180594
-0.0001714
-0.000165008
-0.000113014
-0.000113404
-0.000149185
-0.000187697
-0.000209415
-0.000208951
-0.000182817
-0.00014684
-0.000117466
-1.21487e-05
6.21063e-09
-5.78848e-05
-0.000165246
-0.000255648
-0.000305079
-0.000311295
-0.000288803
-0.000249704
-0.000208858
-0.000191844
-0.000205504
-0.000221324
-0.000209172
-0.00016661
-0.000115043
-8.00839e-05
-8.06466e-05
-0.000110876
-0.000135186
-0.000144553
-0.000164909
-0.000218342
-0.000283301
-0.000313516
-0.000268031
-0.000148798
-2.86853e-05
1.39537e-05
7.24879e-06
-4.79268e-07
-9.9991e-06
-1.06499e-05
9.47993e-06
3.76746e-05
5.24618e-05
3.11943e-05
-2.00201e-05
-6.00134e-05
-5.29902e-05
-1.10578e-05
2.59939e-06
-5.45829e-05
-0.000162205
-0.000253521
-0.000304339
-0.000311575
-0.000289634
-0.000250677
-0.000209706
-0.000192597
-0.000206392
-0.000222613
-0.000210723
-0.000168031
-0.000116228
-8.08882e-05
-8.10311e-05
-0.00011109
-0.000135394
-0.000144546
-0.000164643
-0.000218024
-0.000283581
-0.000315107
-0.000271247
-0.000153118
-3.26436e-05
1.05958e-05
3.92318e-06
-3.38769e-06
-1.21397e-05
-1.2784e-05
7.06263e-06
3.55088e-05
5.13394e-05
3.13066e-05
-1.93845e-05
-5.93486e-05
-5.22391e-05
-9.18291e-06
6.30461e-06
-5.04645e-05
-0.000159938
-0.000253649
-0.000306586
-0.000314458
-0.0002923
-0.000252793
-0.000210939
-0.000193335
-0.000207464
-0.000224524
-0.000213114
-0.00017027
-0.000117934
-8.18353e-05
-8.12797e-05
-0.000111268
-0.000135727
-0.000144547
-0.000164179
-0.000217676
-0.000284342
-0.00031752
-0.00027492
-0.000157065
-3.60157e-05
8.42337e-06
7.41871e-07
-6.30853e-06
-1.38286e-05
-1.45437e-05
4.45747e-06
3.2627e-05
4.98251e-05
3.18906e-05
-1.82171e-05
-5.87998e-05
-5.14439e-05
-5.37776e-06
1.16591e-05
-4.67816e-05
-0.000159638
-0.000257619
-0.000313354
-0.000321003
-0.000297352
-0.000256216
-0.000212515
-0.000193915
-0.000208449
-0.000226832
-0.000216225
-0.000173257
-0.000120104
-8.28062e-05
-8.12269e-05
-0.000111279
-0.000136039
-0.00014436
-0.000163474
-0.000217386
-0.000285654
-0.000320464
-0.000278101
-0.000159153
-3.62366e-05
8.59899e-06
-1.7993e-06
-9.26972e-06
-1.5234e-05
-1.58499e-05
2.18995e-06
2.95067e-05
4.77633e-05
3.23679e-05
-1.69954e-05
-5.87442e-05
-5.06799e-05
-6.05543e-07
1.89676e-05
-4.20436e-05
-0.000161119
-0.000265661
-0.000325257
-0.000331685
-0.000304973
-0.00026107
-0.000214496
-0.000194373
-0.000209072
-0.000228769
-0.000219162
-0.000176405
-0.000122635
-8.40045e-05
-8.10414e-05
-0.000111148
-0.000136295
-0.000143937
-0.000162739
-0.000217416
-0.000287755
-0.000323254
-0.00028154
-0.000160764
-3.50313e-05
1.00032e-05
-4.03361e-06
-1.26136e-05
-1.68619e-05
-1.69115e-05
8.61618e-07
2.70454e-05
4.52681e-05
3.17162e-05
-1.70325e-05
-6.01136e-05
-5.06269e-05
5.91335e-06
3.03737e-05
-3.50369e-05
-0.000162383
-0.000276611
-0.000342297
-0.000346957
-0.000315408
-0.000266722
-0.000217173
-0.000195082
-0.000209512
-0.000229939
-0.000220593
-0.000178109
-0.000124595
-8.53746e-05
-8.09786e-05
-0.000110989
-0.000136437
-0.000143159
-0.000161518
-0.00021775
-0.000290823
-0.000329057
-0.000289807
-0.000167945
-3.90885e-05
7.11012e-06
-9.61149e-06
-1.78978e-05
-1.94877e-05
-1.84146e-05
5.37436e-07
2.62738e-05
4.31079e-05
2.98382e-05
-1.92879e-05
-6.46635e-05
-5.30267e-05
1.21348e-05
4.94307e-05
-1.8617e-05
-0.00015777
-0.000286194
-0.000363295
-0.000367259
-0.000329246
-0.000273311
-0.000220862
-0.000196424
-0.000210436
-0.000231046
-0.000220705
-0.000177241
-0.000123962
-8.57257e-05
-8.08668e-05
-0.000110969
-0.000136557
-0.000141943
-0.000159576
-0.000218326
-0.000296527
-0.000341741
-0.0003098
-0.000188299
-5.32644e-05
-5.43455e-06
-2.67681e-05
-3.2298e-05
-2.67661e-05
-2.29391e-05
-7.23836e-07
2.6854e-05
4.1927e-05
2.74099e-05
-2.32702e-05
-7.28909e-05
-6.04708e-05
1.49771e-05
7.38241e-05
1.08517e-05
-0.000139854
-0.000284707
-0.000382597
-0.000391966
-0.000347738
-0.000284878
-0.000226608
-0.000198169
-0.000211506
-0.00023239
-0.000222482
-0.000176663
-0.000120839
-8.30667e-05
-7.91405e-05
-0.000110659
-0.000136878
-0.000140585
-0.000157339
-0.000219343
-0.000303612
-0.000361502
-0.000340277
-0.000222441
-7.84325e-05
-2.28636e-05
-5.23143e-05
-5.99685e-05
-4.44132e-05
-3.41079e-05
-8.75161e-06
2.28606e-05
3.96674e-05
2.54494e-05
-2.68469e-05
-8.15499e-05
-7.19739e-05
1.44087e-05
0.000100055
5.21768e-05
-0.000100707
-0.000268589
-0.000383711
-0.000417522
-0.000371485
-0.00030104
-0.000236311
-0.000202099
-0.000211612
-0.00023099
-0.000222783
-0.000180949
-0.000124306
-8.1137e-05
-7.43904e-05
-0.000108073
-0.000137088
-0.000139689
-0.000155761
-0.0002216
-0.000310481
-0.000373542
-0.000359372
-0.000249828
-0.000106621
-4.16485e-05
-7.60027e-05
-9.55062e-05
-7.37069e-05
-5.31517e-05
-2.05118e-05
1.25948e-05
2.72144e-05
1.79826e-05
-2.37756e-05
-7.94742e-05
-7.88824e-05
1.36733e-05
0.00012146
0.000100199
-5.11796e-05
-0.000237716
-0.000375208
-0.000439819
-0.00039909
-0.000322721
-0.000248728
-0.000207826
-0.000213014
-0.00023028
-0.000220987
-0.000184683
-0.000134364
-9.15749e-05
-7.56243e-05
-0.000103795
-0.000136153
-0.000139602
-0.000155252
-0.000225544
-0.000319115
-0.000377872
-0.000356521
-0.000248926
-0.000116291
-5.53837e-05
-9.3726e-05
-0.000130182
-0.000113062
-8.41297e-05
-3.7421e-05
5.94889e-06
1.82437e-05
5.12696e-06
-2.51653e-05
-6.70839e-05
-6.9997e-05
1.55208e-05
0.000130008
0.000139385
9.74244e-06
-0.000188958
-0.00035284
-0.000441199
-0.000427377
-0.000348608
-0.000262382
-0.000213091
-0.000213453
-0.000229879
-0.000220448
-0.000187786
-0.000144563
-0.000106583
-8.84505e-05
-0.000108651
-0.000138759
-0.000142565
-0.00015705
-0.000231038
-0.000330368
-0.000376514
-0.000337475
-0.000225966
-0.000102861
-5.13958e-05
-9.92395e-05
-0.000154095
-0.00015411
-0.000124445
-6.41632e-05
-6.1427e-06
1.54292e-05
3.2871e-06
-1.98339e-05
-4.5772e-05
-4.47824e-05
1.79363e-05
0.00012673
0.000153338
6.50253e-05
-0.000125244
-0.000309251
-0.000427442
-0.000448457
-0.000379756
-0.000280468
-0.000215106
-0.000211339
-0.000229366
-0.000222497
-0.000191844
-0.000154246
-0.000121755
-0.000105014
-0.000122291
-0.000152097
-0.000154169
-0.000164627
-0.000237821
-0.000339612
-0.000376465
-0.000317138
-0.000201622
-9.12567e-05
-3.59391e-05
-8.55774e-05
-0.000154511
-0.000183216
-0.000162033
-9.66099e-05
-3.07086e-05
1.94834e-06
-9.75976e-07
-1.28147e-05
-2.23336e-05
-2.33526e-05
1.48592e-05
0.000119035
0.000143021
9.86237e-05
-6.13766e-05
-0.000248432
-0.00038954
-0.000449334
-0.000423138
-0.00030493
-0.000223893
-0.000210353
-0.000228798
-0.000226966
-0.000196271
-0.000160042
-0.000132592
-0.000121509
-0.000139801
-0.000170854
-0.000174978
-0.000178677
-0.000238609
-0.000344387
-0.000377867
-0.000305514
-0.000197187
-0.00010718
-3.49451e-05
-6.38918e-05
-0.000132149
-0.000171787
-0.000177786
-0.000126276
-6.53954e-05
-2.53545e-05
-1.35715e-05
-1.00983e-05
-4.25437e-06
-4.79915e-06
3.94732e-06
8.32971e-05
0.00011644
0.000109505
-9.48215e-06
-0.000182101
-0.00033302
-0.000424395
-0.00042218
-0.000331046
-0.000236669
-0.000210832
-0.000228083
-0.000232328
-0.000202517
-0.000163495
-0.000135854
-0.000127924
-0.000149782
-0.000183981
-0.000188031
-0.000182583
-0.000228091
-0.000343534
-0.000355115
-0.000289048
-0.000194722
-0.000115814
-5.04237e-05
-4.96574e-05
-0.000102754
-0.000143338
-0.000166924
-0.000139636
-9.69548e-05
-6.19523e-05
-3.89912e-05
-1.53034e-05
4.45588e-06
6.66179e-06
-4.56039e-06
3.09285e-05
8.02419e-05
0.000102122
2.20502e-05
-0.000123539
-0.000271854
-0.000380489
-0.000410104
-0.000339723
-0.000252138
-0.000216557
-0.000225317
-0.000236133
-0.000211884
-0.000170026
-0.000135743
-0.000122011
-0.000138222
-0.000169448
-0.000178324
-0.000175761
-0.000222665
-0.000297383
-0.000327946
-0.000269374
-0.00018778
-0.000124765
-6.11134e-05
-3.80681e-05
-7.67357e-05
-0.000116523
-0.000148937
-0.00014424
-0.000119479
-8.95001e-05
-6.61409e-05
-4.30431e-05
-6.45744e-06
6.9068e-06
-5.23131e-07
1.90784e-06
3.58619e-05
6.72907e-05
3.22947e-05
-7.87447e-05
-0.000211617
-0.000321352
-0.000375076
-0.000339736
-0.000259464
-0.000225358
-0.000228594
-0.000224308
-0.000218078
-0.0001774
-0.000131134
-0.000110632
-0.000128448
-0.000157501
-0.000170861
-0.000175257
-0.00020733
-0.000278608
-0.000305521
-0.000244561
-0.000173555
-0.000133453
-7.59826e-05
-3.09243e-05
-4.75827e-05
-9.49019e-05
-0.000134494
-0.000149232
-0.000132111
-0.00010922
-8.10136e-05
-5.60895e-05
-1.88192e-05
8.10689e-06
6.47481e-06
-1.95116e-05
-2.87472e-06
2.1134e-05
6.12374e-06
-7.03042e-05
-0.000165515
-0.000241752
-0.000292616
-0.000300165
-0.000264986
-0.000235779
-0.000242825
-0.000238246
-0.000219514
-0.000185456
-0.000126128
-0.000103001
-0.000116283
-0.000138226
-0.000162681
-0.000158718
-0.000192173
-0.00025524
-0.000275825
-0.000220943
-0.000150512
-0.000121802
-8.12399e-05
-4.06486e-05
-3.58993e-05
-7.54361e-05
-0.00012331
-0.000148053
-0.00014229
-0.000119051
-8.83692e-05
-6.55922e-05
-2.59512e-05
1.48192e-05
5.31002e-06
-3.40525e-05
-4.53279e-05
-3.19128e-05
-3.58225e-05
-7.85093e-05
-0.000132609
-0.00016609
-0.000190427
-0.000222998
-0.000241432
-0.000242122
-0.000258485
-0.000253533
-0.000229713
-0.000165907
-0.000122807
-9.7528e-05
-0.000105302
-0.000128397
-0.000157694
-0.000164772
-0.000176738
-0.000222178
-0.000253753
-0.000214854
-0.000144225
-0.00010437
-5.67488e-05
-4.13361e-05
-3.28616e-05
-7.05649e-05
-0.000118265
-0.000142053
-0.000143619
-0.000126498
-8.81019e-05
-6.33633e-05
-2.41316e-05
9.83358e-06
-1.20575e-05
-5.04017e-05
-8.11406e-05
-7.95906e-05
-6.75435e-05
-9.17715e-05
-0.00012821
-0.000127127
-0.000103731
-0.000127612
-0.000179081
-0.000222448
-0.000251246
-0.000256288
-0.000234807
-0.000196695
-0.000157351
-0.000126463
-0.000108364
-0.000110696
-0.000142425
-0.000167203
-0.000164137
-0.000183789
-0.000220845
-0.000215725
-0.000164021
-0.000110207
-6.93626e-05
-3.51837e-05
-2.54326e-05
-7.01651e-05
-0.000123664
-0.000146286
-0.000143668
-0.000126698
-0.000100611
-7.01039e-05
-3.40892e-05
-6.51867e-06
-4.44992e-05
-6.77591e-05
-9.30634e-05
-0.000114436
-0.000106611
-0.000105612
-0.000113341
-0.000113575
-0.000112809
-0.00011842
-0.000138519
-0.000177145
-0.000215314
-0.000233185
-0.000233765
-0.000212358
-0.000193978
-0.000177887
-0.000158633
-0.000136293
-0.000135755
-0.000145423
-0.000147663
-0.000152586
-0.000184171
-0.000205287
-0.000187206
-0.000139539
-8.95131e-05
-3.96553e-05
-1.55675e-05
-7.51435e-05
-0.000135563
-0.000160073
-0.000150834
-0.000122486
-9.47215e-05
-6.97853e-05
-4.68137e-05
-3.72237e-05
-5.43734e-05
-7.46716e-05
-8.76653e-05
-0.000114093
-0.000136305
-0.00014845
-0.00015027
-0.000133329
-0.000112379
-0.000104326
-0.000124593
-0.000165574
-0.000200131
-0.00021696
-0.00022574
-0.000230426
-0.000231197
-0.000225577
-0.000209871
-0.000185305
-0.000159355
-0.000144627
-0.000141575
-0.000150826
-0.000172955
-0.000196726
-0.000178236
-0.000136421
-8.89899e-05
-4.25105e-05
-4.80236e-05
-8.47957e-05
-0.0001567
-0.000194166
-0.000189415
-0.000148445
-0.000101598
-7.0932e-05
-4.7713e-05
-4.15749e-05
-7.59809e-05
-9.84337e-05
-8.25483e-05
-7.96759e-05
-9.31475e-05
-0.000121774
-0.000140729
-0.000139497
-0.000128552
-0.000111131
-0.000121072
-0.000157796
-0.000193433
-0.000209055
-0.000211647
-0.000216834
-0.000223539
-0.000230827
-0.000238609
-0.000241653
-0.000217038
-0.000188986
-0.000160658
-0.000146585
-0.000153172
-0.000169112
-0.000162781
-0.000131524
-8.58762e-05
-4.88499e-05
-3.43857e-05
-7.29146e-05
-0.000145133
-0.000204028
-0.000215738
-0.000190688
-0.000137156
-7.98687e-05
-4.47833e-05
-4.20072e-05
-7.40767e-05
-9.98713e-05
-0.000119546
-9.50239e-05
-9.30943e-05
-0.000107169
-0.000124613
-0.000132658
-0.000124267
-0.000122424
-0.000135463
-0.00016493
-0.000187958
-0.000194991
-0.000196461
-0.000193318
-0.000185586
-0.00017675
-0.000182134
-0.000195422
-0.000202019
-0.000207906
-0.000160938
-0.000143082
-0.000152864
-0.000173634
-0.00017165
-0.000141049
-0.000105135
-7.43734e-05
-5.79219e-05
-7.53313e-05
-0.000124712
-0.000180137
-0.0002042
-0.000201034
-0.000163837
-0.000117944
-7.97677e-05
-6.13275e-05
-8.75839e-05
-0.000100427
-0.000107407
-9.11344e-05
-9.02856e-05
-0.000110511
-0.000138914
-0.000161071
-0.000166667
-0.000168754
-0.000172806
-0.00017951
-0.000176581
-0.00016551
-0.000164192
-0.000176343
-0.000189519
-0.000193473
-0.000185263
-0.000175258
-0.000162259
-0.000149321
-0.000134482
-0.000127132
-0.00012681
-0.000139834
-0.00015397
-0.00015206
-0.000134784
-0.000113433
-9.85806e-05
-9.42726e-05
-0.000121199
-0.000167812
-0.000204878
-0.000206124
-0.000183236
-0.000147518
-0.000111219
-8.69509e-05
-0.000103524
-9.51156e-05
-9.24714e-05
-8.62691e-05
-9.22993e-05
-0.000117341
-0.000155523
-0.000188487
-0.000212393
-0.000211569
-0.000212367
-0.00020468
-0.000185908
-0.000166316
-0.000160709
-0.000171434
-0.000181255
-0.000178502
-0.000168695
-0.00016623
-0.000159519
-0.00013065
-9.92611e-05
-8.39757e-05
-8.51089e-05
-0.000111252
-0.000149288
-0.000169028
-0.00016837
-0.000158293
-0.0001488
-0.000118036
-0.000117104
-0.000145565
-0.000177169
-0.000188236
-0.000183852
-0.000163082
-0.000139274
-0.000117937
-1.83072e-05
-3.68362e-05
-6.77348e-05
-0.000113694
-0.000168944
-0.000224047
-0.000263435
-0.000274633
-0.00025264
-0.000211123
-0.000185591
-0.000199765
-0.000227733
-0.00022763
-0.00019105
-0.000145722
-0.000118518
-0.000120771
-0.000141149
-0.00015092
-0.000148679
-0.000161231
-0.000198678
-0.000239616
-0.000261383
-0.000245375
-0.000176152
-8.55753e-05
-2.0134e-05
1.50738e-05
3.25236e-05
2.88442e-05
2.15817e-05
2.79609e-05
4.90758e-05
6.93714e-05
6.69351e-05
4.82484e-05
2.72132e-05
-1.8981e-06
-1.66858e-05
-3.39457e-05
-6.45614e-05
-0.000110562
-0.000166329
-0.000222326
-0.000262559
-0.000274478
-0.00025305
-0.000211642
-0.000185801
-0.000199727
-0.000227824
-0.000228001
-0.000191469
-0.000145989
-0.000118706
-0.000121036
-0.000141654
-0.000151542
-0.000149091
-0.000161487
-0.000198871
-0.000239856
-0.000261843
-0.000246521
-0.000178127
-8.79057e-05
-2.26128e-05
1.23793e-05
2.99083e-05
2.59409e-05
1.77942e-05
2.34115e-05
4.44685e-05
6.59298e-05
6.51312e-05
4.75724e-05
2.79036e-05
-7.47632e-07
-1.37489e-05
-3.05412e-05
-6.17044e-05
-0.000108501
-0.000165429
-0.000222622
-0.000263764
-0.000276075
-0.000254706
-0.000212823
-0.000186135
-0.000199809
-0.000228542
-0.000229358
-0.000192628
-0.000146581
-0.00011898
-0.000121349
-0.000142315
-0.000152204
-0.000149142
-0.000161349
-0.000199014
-0.000240325
-0.000262708
-0.000248263
-0.000180406
-8.91314e-05
-2.4537e-05
1.0197e-05
2.81182e-05
2.41208e-05
1.49632e-05
1.88906e-05
3.86046e-05
6.12924e-05
6.34834e-05
4.81032e-05
2.95846e-05
1.98372e-06
-8.86488e-06
-2.62894e-05
-5.85493e-05
-0.000108269
-0.000167322
-0.000225949
-0.000268151
-0.000280231
-0.000258054
-0.00021488
-0.00018683
-0.000200402
-0.000230407
-0.000232286
-0.000195194
-0.000148116
-0.000119808
-0.000122037
-0.000143384
-0.000153039
-0.000148893
-0.000160734
-0.000199126
-0.000241128
-0.000263982
-0.000250362
-0.000182367
-8.92994e-05
-2.48931e-05
9.29383e-06
2.77994e-05
2.39571e-05
1.39101e-05
1.57804e-05
3.26815e-05
5.57102e-05
6.16206e-05
5.05181e-05
3.31374e-05
6.9254e-06
-1.64444e-06
-2.06097e-05
-5.57753e-05
-0.000109757
-0.00017204
-0.000232489
-0.000275949
-0.000287104
-0.000263122
-0.000217869
-0.000188026
-0.000201633
-0.0002334
-0.000236732
-0.000199963
-0.000151497
-0.000122217
-0.000123889
-0.000145468
-0.000154583
-0.000148654
-0.000159867
-0.000199513
-0.000242538
-0.000266708
-0.0002532
-0.000184549
-8.85283e-05
-2.32851e-05
9.88105e-06
2.87668e-05
2.50649e-05
1.4568e-05
1.53154e-05
2.8416e-05
4.97102e-05
5.84881e-05
5.06275e-05
3.82591e-05
1.45174e-05
8.80931e-06
-1.21319e-05
-5.20264e-05
-0.000112246
-0.000179017
-0.000241674
-0.000287137
-0.00029679
-0.000269827
-0.000221729
-0.000189732
-0.000203314
-0.000236804
-0.000242076
-0.000205255
-0.00015685
-0.000127125
-0.000127854
-0.000149219
-0.000157383
-0.000148795
-0.000158896
-0.000200337
-0.000245245
-0.000270781
-0.000259075
-0.000190639
-9.04864e-05
-2.24329e-05
1.13361e-05
3.05551e-05
2.62934e-05
1.57029e-05
1.76265e-05
2.76966e-05
4.46793e-05
5.38004e-05
4.88173e-05
4.40042e-05
2.51395e-05
2.4569e-05
1.57017e-06
-4.49003e-05
-0.000113555
-0.000187204
-0.000251567
-0.000301191
-0.000309484
-0.000278664
-0.000226737
-0.000191872
-0.00020504
-0.000239489
-0.00024552
-0.000209327
-0.000162085
-0.000133651
-0.000134044
-0.000154881
-0.000161552
-0.000149385
-0.000157586
-0.000201287
-0.000248958
-0.000278097
-0.000272806
-0.000208717
-0.00010421
-3.13386e-05
7.62344e-06
3.10806e-05