/*--------------------------------*- C++ -*----------------------------------*\
| =========                 |                                                 |
| \\      /  F ield         | OpenFOAM: The Open Source CFD Toolbox           |
|  \\    /   O peration     | Version:  2306                                  |
|   \\  /    A nd           | Website:  www.openfoam.com                      |
|    \\/     M anipulation  |                                                 |
\*---------------------------------------------------------------------------*/
FoamFile
{
    version     2.0;
    format      ascii;
    arch        "LSB;label=32;scalar=64";
    class       volScalarField;
    location    "5.5";
    object      pMean;
}
// * * * * * * * * * * * * * * * * * * * * * * * * * * * * * * * * * * * * * //

dimensions      [0 2 -2 0 0 0 0];

internalField   nonuniform List<scalar> 
60000
(
2.29754e-05
1.97734e-05
2.69418e-05
4.54096e-05
6.96575e-05
8.86066e-05
9.41277e-05
8.74647e-05
7.82822e-05
7.8471e-05
9.20694e-05
0.000114508
0.000138563
0.000157067
0.000163851
0.000154645
0.000128625
9.14374e-05
5.32456e-05
2.1305e-05
-7.42621e-07
-8.72545e-06
1.24308e-06
2.80302e-05
6.3574e-05
9.66339e-05
0.000120761
0.00013717
0.000148671
0.000158602
0.000172396
0.000191037
0.000205301
0.000205621
0.00019109
0.000165864
0.000133049
9.54837e-05
6.06278e-05
3.59304e-05
2.24697e-05
1.8634e-05
2.54152e-05
4.37797e-05
6.81759e-05
8.73617e-05
9.29738e-05
8.6185e-05
7.67761e-05
7.68003e-05
9.04802e-05
0.000113175
0.000137521
0.000156343
0.000163486
0.000154672
0.00012897
9.19407e-05
5.37521e-05
2.17315e-05
-4.91019e-07
-8.75577e-06
8.32049e-07
2.71498e-05
6.22878e-05
9.50235e-05
0.000118979
0.000135449
0.000147235
0.00015753
0.000171696
0.000190886
0.000205846
0.000206789
0.000192685
0.000167774
0.000135043
9.72172e-05
6.17067e-05
3.61766e-05
2.02135e-05
1.58567e-05
2.24089e-05
4.09442e-05
6.59057e-05
8.58573e-05
9.20035e-05
8.51711e-05
7.52302e-05
7.47633e-05
8.84155e-05
0.000111418
0.000136162
0.000155468
0.000163201
0.000154971
0.000129637
9.25936e-05
5.41244e-05
2.17648e-05
-7.84299e-07
-9.40528e-06
-1.74692e-07
2.58772e-05
6.08441e-05
9.32786e-05
0.000116727
0.00013289
0.000144787
0.000155353
0.000169959
0.000189951
0.000205954
0.000207672
0.000193917
0.000169065
0.000136119
9.76692e-05
6.11715e-05
3.46663e-05
1.6135e-05
1.12778e-05
1.77152e-05
3.6672e-05
6.26098e-05
8.38588e-05
9.10398e-05
8.44129e-05
7.38002e-05
7.24791e-05
8.58961e-05
0.000109268
0.000134582
0.000154548
0.000163084
0.000155654
0.000130779
9.35394e-05
5.44421e-05
2.14804e-05
-1.5369e-06
-1.05467e-05
-1.55924e-06
2.44811e-05
5.9556e-05
9.17292e-05
0.00011432
0.000129611
0.000141254
0.00015197
0.000167057
0.000188139
0.000205577
0.000208243
0.000194748
0.000169671
0.000136132
9.66881e-05
5.8924e-05
3.13265e-05
1.1043e-05
5.30792e-06
1.14328e-05
3.08804e-05
5.79577e-05
8.08738e-05
8.97374e-05
8.39997e-05
7.3076e-05
7.06675e-05
8.33993e-05
0.000106955
0.0001329
0.000153594
0.000163022
0.000156603
0.000132388
9.49535e-05
5.49641e-05
2.10931e-05
-2.59824e-06
-1.21676e-05
-3.58097e-06
2.23555e-05
5.76863e-05
8.97575e-05
0.00011145
0.000125734
0.000137046
0.000147911
0.000163515
0.000185799
0.00020498
0.000208876
0.000195764
0.000170544
0.000136218
9.54259e-05
5.61072e-05
2.71848e-05
5.26996e-06
-1.88142e-06
3.01979e-06
2.30022e-05
5.14324e-05
7.62558e-05
8.73935e-05
8.3603e-05
7.33252e-05
7.0154e-05
8.18592e-05
0.000105166
0.000131617
0.000152962
0.000163137
0.000157754
0.000134477
9.69771e-05
5.57868e-05
2.04364e-05
-4.55621e-06
-1.52414e-05
-7.96015e-06
1.67886e-05
5.18166e-05
8.40987e-05
0.000105363
0.000119185
0.000131537
0.000143881
0.000160453
0.000183981
0.000204939
0.000210358
0.000197925
0.000173083
0.000138447
9.57152e-05
5.37667e-05
2.28363e-05
3.06648e-07
-9.05653e-06
-6.78842e-06
1.13338e-05
4.08067e-05
6.84275e-05
8.29752e-05
8.20805e-05
7.37306e-05
7.09754e-05
8.19765e-05
0.000104893
0.000131626
0.000153423
0.000163981
0.000159287
0.00013698
9.96153e-05
5.6996e-05
1.93245e-05
-7.98952e-06
-2.05457e-05
-1.49476e-05
7.84128e-06
4.13003e-05
7.31357e-05
9.39742e-05
0.000107433
0.000121527
0.0001378
0.000158098
0.000183978
0.000206661
0.000213306
0.000201706
0.000178018
0.000144499
0.000100847
5.52783e-05
2.04121e-05
-3.15971e-06
-1.54118e-05
-1.6666e-05
-2.11321e-06
2.61156e-05
5.59562e-05
7.50316e-05
7.83073e-05
7.25089e-05
7.054e-05
8.21154e-05
0.000105801
0.000133668
0.000156145
0.000166577
0.000161848
0.000139984
0.000102733
5.86482e-05
1.81325e-05
-1.21003e-05
-2.60131e-05
-2.01529e-05
2.51218e-06
3.45842e-05
6.43462e-05
8.29501e-05
9.39914e-05
0.00010761
0.000126694
0.000151603
0.000182697
0.000208987
0.000217247
0.000206205
0.000183649
0.000152565
0.000109621
6.10858e-05
2.09544e-05
-4.7625e-06
-2.07534e-05
-2.64592e-05
-1.68142e-05
8.72104e-06
3.994e-05
6.36217e-05
7.22167e-05
6.97822e-05
6.81492e-05
7.87581e-05
0.000103411
0.00013397
0.000159124
0.000170971
0.000166311
0.000144033
0.00010634
6.08416e-05
1.81991e-05
-1.35582e-05
-2.63681e-05
-1.66422e-05
9.54153e-06
4.15223e-05
6.73667e-05
8.00601e-05
8.46584e-05
9.38919e-05
0.000112324
0.000139766
0.000175423
0.000206193
0.000216437
0.000205507
0.000184262
0.000157751
0.00011928
7.02696e-05
2.4917e-05
-1.73613e-06
-2.29337e-05
-3.42985e-05
-3.1418e-05
-1.03266e-05
2.07432e-05
4.91081e-05
6.38035e-05
6.56135e-05
6.44489e-05
7.27029e-05
9.57512e-05
0.000127589
0.000155525
0.000169989
0.000167987
0.000148013
0.000110423
6.33761e-05
1.94808e-05
-1.17059e-05
-2.03573e-05
-2.69269e-06
3.12367e-05
6.57311e-05
8.75153e-05
9.14657e-05
8.48308e-05
8.37191e-05
9.63871e-05
0.000123385
0.000162974
0.000198638
0.000211551
0.000201235
0.00018071
0.000158639
0.000127971
8.30308e-05
3.46491e-05
9.78867e-06
-1.79928e-05
-3.54231e-05
-4.09075e-05
-2.69826e-05
1.23128e-06
3.25693e-05
5.41214e-05
6.16107e-05
6.1378e-05
6.63151e-05
8.48724e-05
0.000113985
0.000142038
0.00015871
0.000159858
0.000145144
0.000112375
6.64344e-05
2.14805e-05
-8.13387e-06
-1.1403e-05
1.64829e-05
6.17148e-05
0.000102169
0.00012227
0.000118549
9.88835e-05
8.20604e-05
8.20797e-05
0.000103571
0.000144104
0.000184963
0.00020322
0.000197125
0.000179999
0.000162712
0.000140378
0.000102092
5.25916e-05
3.05684e-05
-4.66094e-06
-2.77039e-05
-4.08188e-05
-3.58594e-05
-1.40725e-05
1.59845e-05
4.34543e-05
5.79081e-05
6.09675e-05
6.39116e-05
7.75245e-05
0.000100986
0.000124136
0.000137912
0.000139975
0.000129548
0.000104328
6.56572e-05
2.48818e-05
-1.15248e-06
5.15991e-07
3.65382e-05
9.24085e-05
0.000139915
0.000161015
0.000154468
0.000126693
9.45145e-05
7.76706e-05
8.7861e-05
0.000124964
0.000169452
0.000194514
0.000195885
0.000185252
0.000173682
0.000159694
0.000129417
8.07979e-05
5.72055e-05
1.44513e-05
-1.24672e-05
-3.04706e-05
-3.42619e-05
-2.17866e-05
2.93604e-06
3.21518e-05
5.30154e-05
6.01444e-05
6.3306e-05
7.40178e-05
9.29286e-05
0.000110466
0.000117589
0.000115536
0.000106165
8.65575e-05
5.71643e-05
2.80566e-05
1.13455e-05
1.80346e-05
5.6592e-05
0.000116041
0.000167409
0.0001908
0.00018546
0.000158856
0.000120023
8.90337e-05
8.52149e-05
0.000113777
0.000156289
0.000186957
0.000197005
0.000194065
0.000186839
0.000178401
0.000156709
0.000112117
8.24832e-05
3.7789e-05
1.02024e-05
-9.04802e-06
-1.97925e-05
-1.8006e-05
-1.91388e-06
2.43365e-05
4.79517e-05
5.86984e-05
6.24618e-05
7.18171e-05
8.82864e-05
0.000102871
0.000106209
0.000100632
9.01543e-05
7.22802e-05
4.85659e-05
2.84229e-05
2.06806e-05
2.992e-05
6.49611e-05
0.000122458
0.000176047
0.00020389
0.000202777
0.000181021
0.000143983
0.000107741
9.45562e-05
0.000112619
0.000148795
0.000180866
0.000196983
0.000200254
0.000196056
0.000188665
0.000172592
0.000135014
0.000105776
6.66782e-05
4.22022e-05
2.36369e-05
6.85374e-06
-1.94749e-06
3.34177e-06
2.27064e-05
4.51437e-05
5.76925e-05
6.15539e-05
6.96005e-05
8.50513e-05
0.000100453
0.000105918
0.000101621
9.13569e-05
7.39937e-05
5.03335e-05
3.21356e-05
2.65946e-05
3.44799e-05
6.27194e-05
0.000113751
0.0001699
0.000202979
0.00020628
0.000189503
0.000156873
0.000120711
0.000102649
0.000112512
0.000141454
0.000172133
0.000192798
0.000200346
0.000197549
0.000189104
0.000176008
0.000149054
0.000125721
9.49923e-05
7.41369e-05
5.77388e-05
3.86385e-05
2.17908e-05
1.59977e-05
2.57562e-05
4.36231e-05
5.55868e-05
5.96636e-05
6.68416e-05
8.14199e-05
9.8293e-05
0.000107326
0.000106253
9.74439e-05
8.09136e-05
5.72324e-05
3.84602e-05
3.44603e-05
4.33693e-05
6.56672e-05
0.000107391
0.000159744
0.000194308
0.000200393
0.00018771
0.000160952
0.000127267
0.000105935
0.000108279
0.000129419
0.000157744
0.000181345
0.000193752
0.000194574
0.000187401
0.000176243
0.000157628
0.000138864
0.000113609
9.57669e-05
8.16341e-05
6.48904e-05
4.71749e-05
3.45989e-05
3.36653e-05
4.30794e-05
5.16118e-05
5.53176e-05
6.18197e-05
7.63644e-05
9.45214e-05
0.000106861
0.000108326
0.000100653
8.52077e-05
6.39526e-05
4.75152e-05
4.79498e-05
6.07191e-05
7.92778e-05
0.000109596
0.000150899
0.000181853
0.000189086
0.000179385
0.000158799
0.000131965
0.000111165
0.000108202
0.000121289
0.000144029
0.000167656
0.000182773
0.000187175
0.000182878
0.000175715
0.000163388
0.000136988
0.000117744
0.000104526
9.62204e-05
8.61336e-05
7.18315e-05
5.57289e-05
4.46062e-05
4.18678e-05
4.32037e-05
4.64984e-05
5.49347e-05
7.24886e-05
9.32446e-05
0.000107834
0.000110788
0.000104854
9.14191e-05
7.22113e-05
5.62722e-05
5.62363e-05
6.94883e-05
8.67295e-05
0.000110209
0.000142328
0.000169613
0.000177591
0.000167593
0.000149855
0.000127612
0.000112004
0.000109274
0.000120972
0.000142773
0.000166419
0.000182447
0.000184559
0.000176583
0.000167038
0.000155631
0.00012381
0.000108135
0.000100268
9.73724e-05
9.41658e-05
8.62753e-05
7.39159e-05
5.97047e-05
4.53804e-05
3.42122e-05
2.95742e-05
3.68361e-05
5.55705e-05
8.0077e-05
9.94864e-05
0.000108369
0.000108733
0.000103103
9.15732e-05
7.82116e-05
7.37221e-05
8.1645e-05
9.46606e-05
0.0001111
0.000136412
0.000161745
0.000170042
0.000160932
0.000145233
0.000125775
0.000109338
0.000104392
0.000116084
0.000139895
0.000164105
0.000178939
0.000180154
0.000169777
0.000155415
0.000140964
0.000104754
9.18236e-05
8.46737e-05
8.26222e-05
8.27163e-05
8.02571e-05
7.39195e-05
6.3553e-05
5.03588e-05
3.73038e-05
2.78382e-05
2.58266e-05
3.52999e-05
5.25418e-05
6.97325e-05
8.14162e-05
8.84477e-05
9.36055e-05
9.51783e-05
9.08996e-05
8.72297e-05
9.02421e-05
9.72419e-05
0.000107627
0.000124861
0.000144999
0.000153472
0.000147224
0.000132882
0.000116794
0.000100124
9.22419e-05
0.000101183
0.000123732
0.000147417
0.000162826
0.000165583
0.000156011
0.000138803
0.000120627
9.65259e-05
8.08013e-05
7.13303e-05
6.72692e-05
6.67563e-05
6.84394e-05
6.88973e-05
6.44555e-05
5.34901e-05
3.87907e-05
2.55146e-05
1.92246e-05
2.22352e-05
3.20159e-05
4.45988e-05
5.61925e-05
6.59233e-05
7.53933e-05
8.42266e-05
8.74464e-05
8.64593e-05
8.89044e-05
9.56281e-05
0.00010471
0.000119052
0.000136254
0.000144594
0.000136261
0.000116073
9.33716e-05
7.26156e-05
6.20357e-05
6.9653e-05
9.431e-05
0.000125287
0.000148991
0.000158328
0.000153596
0.000138046
0.000117097
0.000115058
9.98045e-05
9.02492e-05
8.14256e-05
7.35062e-05
6.77936e-05
6.45463e-05
6.15686e-05
5.48116e-05
4.39157e-05
3.20482e-05
2.41479e-05
2.29947e-05
2.75212e-05
3.51573e-05
4.47684e-05
5.42771e-05
6.33e-05
7.33488e-05
8.22981e-05
8.82671e-05
9.41367e-05
0.000101637
0.000110603
0.000122518
0.000136932
0.000145535
0.000138244
0.000116855
9.06094e-05
6.32711e-05
4.58104e-05
4.82602e-05
7.07057e-05
0.000104338
0.000134797
0.00015415
0.000159204
0.000150829
0.000133577
0.000119743
0.000105311
9.37397e-05
8.59284e-05
7.76649e-05
6.95739e-05
6.32342e-05
5.75966e-05
5.09719e-05
4.46047e-05
3.86726e-05
3.60064e-05
3.7091e-05
4.05098e-05
4.619e-05
5.47272e-05
6.4753e-05
7.36973e-05
8.11775e-05
8.8075e-05
9.47801e-05
0.000101724
0.000108417
0.000115408
0.000122841
0.000132308
0.00013903
0.000134137
0.00011682
9.62724e-05
7.70915e-05
6.35823e-05
6.27908e-05
7.68231e-05
9.95728e-05
0.00012236
0.00013854
0.000146046
0.000144512
0.000134532
0.00011494
9.74496e-05
8.09058e-05
6.84039e-05
5.79305e-05
5.08552e-05
4.89375e-05
5.0266e-05
5.28806e-05
5.43353e-05
5.4702e-05
5.48344e-05
5.43294e-05
5.34631e-05
5.44433e-05
5.87513e-05
6.76039e-05
7.92518e-05
9.04566e-05
0.000100762
0.000107709
0.000110062
0.000111344
0.000112636
0.000113529
0.000115558
0.000118087
0.000116008
0.000106649
9.29155e-05
7.8797e-05
6.8404e-05
6.54164e-05
7.2828e-05
8.81344e-05
0.000105659
0.000121415
0.00013196
0.000135355
0.000129149
0.000107665
8.81591e-05
6.97857e-05
5.45153e-05
4.37583e-05
3.803e-05
3.6562e-05
3.90238e-05
4.46824e-05
4.94072e-05
5.30459e-05
5.72009e-05
6.04578e-05
6.24656e-05
6.44888e-05
6.99015e-05
8.05179e-05
9.46981e-05
0.000108276
0.000119029
0.000125349
0.000125268
0.000119038
0.000108886
9.82684e-05
9.16168e-05
9.06308e-05
9.18537e-05
9.06843e-05
8.55547e-05
7.92216e-05
7.42743e-05
7.03461e-05
7.28119e-05
8.26945e-05
9.66909e-05
0.00011171
0.000123617
0.000127565
0.000121708
4.20253e-05
1.87428e-08
-2.68139e-05
-2.99281e-05
-1.14875e-05
1.54836e-05
3.75179e-05
4.78624e-05
4.95357e-05
5.20584e-05
6.22779e-05
8.01722e-05
0.000100345
0.000116121
0.000123388
0.00011957
0.000104066
8.01082e-05
5.4002e-05
3.14475e-05
1.63943e-05
1.36211e-05
2.90077e-05
6.46784e-05
0.00011558
0.00016962
0.000211024
0.000231442
0.000236901
0.000239693
0.000244779
0.0002538
0.000264617
0.00026836
0.000259888
0.00024086
0.000213013
0.000176731
0.000134069
8.85226e-05
4.37235e-05
1.00603e-06
-2.67731e-05
-3.06983e-05
-1.27386e-05
1.40547e-05
3.61142e-05
4.64961e-05
4.8158e-05
5.06841e-05
6.09906e-05
7.90007e-05
9.93295e-05
0.000115316
0.000122789
0.000119191
0.000103917
8.01239e-05
5.40474e-05
3.13355e-05
1.58599e-05
1.24205e-05
2.69799e-05
6.18084e-05
0.000112091
0.000166
0.000207781
0.000228753
0.000234622
0.000237661
0.000242989
0.000252279
0.000263504
0.000267881
0.000260162
0.000241857
0.000214665
0.000178837
0.000136335
9.06426e-05
4.45091e-05
6.97024e-07
-2.83096e-05
-3.30861e-05
-1.53046e-05
1.18343e-05
3.43437e-05
4.49369e-05
4.64979e-05
4.88618e-05
5.91361e-05
7.72592e-05
9.77997e-05
0.000114052
0.000121851
0.00011862
0.000103699
8.01363e-05
5.40859e-05
3.11795e-05
1.52291e-05
1.11337e-05
2.49605e-05
5.91276e-05
0.000108999
0.000162985
0.000205254
0.000226657
0.000232607
0.000235549
0.000240903
0.000250387
0.000262127
0.000267287
0.000260475
0.000243131
0.000216702
0.000181143
0.000138419
9.22252e-05
4.38129e-05
-1.55776e-06
-3.21415e-05
-3.78001e-05
-1.98422e-05
8.28431e-06
3.19237e-05
4.31545e-05
4.46773e-05
4.67037e-05
5.67677e-05
7.49278e-05
9.56912e-05
0.000112275
0.000120519
0.000117811
0.000103355
8.00903e-05
5.40956e-05
3.10753e-05
1.48074e-05
1.02956e-05
2.37486e-05
5.77089e-05
0.000107519
0.000161693
0.000204319
0.000225725
0.000231211
0.000233584
0.000238651
0.000248117
0.000260363
0.000266396
0.000260528
0.000244333
0.000218826
0.000183356
0.00013994
9.27405e-05
4.16772e-05
-5.70251e-06
-3.8418e-05
-4.52506e-05
-2.69404e-05
2.83345e-06
2.8571e-05
4.13626e-05
4.33442e-05
4.4905e-05
5.43866e-05
7.23506e-05
9.3248e-05
0.00011009
0.000118734
0.000116604
0.000102729
7.98143e-05
5.39314e-05
3.09052e-05
1.44753e-05
9.70977e-06
2.30462e-05
5.7172e-05
0.000107182
0.000161559
0.000204442
0.000225594
0.000230342
0.000231984
0.000236599
0.000245683
0.000258076
0.000264789
0.000259705
0.000244708
0.00022049
0.000185294
0.000141014
9.2396e-05
3.92789e-05
-1.09643e-05
-4.6623e-05
-5.56364e-05
-3.74093e-05
-5.6238e-06
2.33152e-05
3.91115e-05
4.27823e-05
4.44133e-05
5.30946e-05
7.04559e-05
9.1308e-05
0.000108235
0.000116964
0.000115171
0.000101861
7.93844e-05
5.36198e-05
3.04837e-05
1.3657e-05
8.15969e-06
2.07512e-05
5.42511e-05
0.000103782
0.00015824
0.000201809
0.000223538
0.000228383
0.000230339
0.000235227
0.000243823
0.000255682
0.000262312
0.000257505
0.000243603
0.000221156
0.000187006
0.000142253
9.21573e-05
3.99849e-05
-1.3969e-05
-5.41099e-05
-6.71552e-05
-5.11248e-05
-1.80599e-05
1.46201e-05
3.46825e-05
4.15528e-05
4.45859e-05
5.31623e-05
6.99442e-05
9.07232e-05
0.000107758
0.000116292
0.000114288
0.000101143
7.89731e-05
5.31498e-05
2.92723e-05
1.07679e-05
2.87905e-06
1.29088e-05
4.39936e-05
9.1518e-05
0.000145424
0.000190294
0.000213996
0.000220702
0.000225279
0.000233069
0.000242493
0.000253615
0.000259195
0.000253452
0.000240343
0.000220565
0.00018899
0.000145435
9.48999e-05
4.80927e-05
-9.66376e-06
-5.58793e-05
-7.53969e-05
-6.45768e-05
-3.30197e-05
2.61909e-06
2.74589e-05
3.82068e-05
4.28e-05
5.16002e-05
6.84743e-05
8.98839e-05
0.000107912
0.000117009
0.000114756
0.000101217
7.87771e-05
5.23749e-05
2.6734e-05
4.61999e-06
-7.98075e-06
-2.39137e-06
2.47113e-05
6.97634e-05
0.000122846
0.000169025
0.000195299
0.000204536
0.000212708
0.00022578
0.000238744
0.000250295
0.000254851
0.00024768
0.000234834
0.000218755
0.000192059
0.000152317
0.000103659
6.45831e-05
3.74269e-06
-4.93699e-05
-7.76011e-05
-7.48668e-05
-4.79379e-05
-1.13013e-05
1.81956e-05
3.3346e-05
3.97719e-05
4.82288e-05
6.45507e-05
8.61875e-05
0.000105228
0.000115831
0.000115061
0.000102111
7.90503e-05
5.13081e-05
2.32599e-05
-3.1451e-06
-2.10434e-05
-1.9567e-05
4.95962e-06
4.78005e-05
9.90433e-05
0.000144239
0.000171242
0.000182417
0.000193641
0.000211981
0.000229533
0.000243207
0.000247682
0.000239343
0.000227401
0.000217342
0.000198701
0.000164551
0.000119205
8.67555e-05
2.36938e-05
-3.58984e-05
-7.43023e-05
-8.14741e-05
-6.12278e-05
-2.6123e-05
7.16506e-06
2.68826e-05
3.56866e-05
4.38372e-05
5.8897e-05
7.9713e-05
9.87755e-05
0.000110116
0.000111321
0.000100919
7.899e-05
5.02354e-05
2.06245e-05
-8.1902e-06
-2.94475e-05
-3.00439e-05
-5.55756e-06
3.67816e-05
8.51819e-05
0.000125461
0.000147826
0.000157646
0.000170499
0.000193179
0.000216414
0.000234444
0.00024138
0.000233458
0.000221614
0.000217085
0.000209
0.000182659
0.000140284
0.000110943
4.61114e-05
-1.80629e-05
-6.56129e-05
-8.37429e-05
-7.14389e-05
-3.93039e-05
-3.75672e-06
2.07383e-05
3.23066e-05
4.00364e-05
5.29815e-05
7.15676e-05
8.88039e-05
9.93013e-05
0.000101706
9.42818e-05
7.48909e-05
4.70228e-05
1.79503e-05
-9.74592e-06
-3.05724e-05
-3.00586e-05
-2.37044e-06
4.13599e-05
8.64499e-05
0.000119029
0.000132761
0.000136103
0.00014668
0.000171208
0.000200069
0.000224932
0.000238841
0.000236349
0.000226504
0.000225276
0.000225397
0.000206242
0.000165429
0.000135348
6.91842e-05
3.04663e-06
-5.08222e-05
-7.94068e-05
-7.65915e-05
-4.96571e-05
-1.44376e-05
1.41514e-05
2.87743e-05
3.63597e-05
4.7252e-05
6.32011e-05
7.75586e-05
8.54399e-05
8.73268e-05
8.21662e-05
6.58871e-05
3.98588e-05
1.28546e-05
-1.04857e-05
-2.66726e-05
-2.23952e-05
9.50304e-06
5.61795e-05
9.86321e-05
0.000123599
0.000129271
0.000124699
0.00012859
0.00014999
0.000180518
0.000211186
0.000232771
0.000238948
0.000235775
0.000238569
0.000244935
0.000232058
0.000192027
0.000156145
9.17909e-05
2.64341e-05
-2.97564e-05
-6.62994e-05
-7.37941e-05
-5.56351e-05
-2.43229e-05
4.84353e-06
2.3205e-05
3.23606e-05
4.28592e-05
5.75775e-05
6.99225e-05
7.47505e-05
7.38556e-05
6.87128e-05
5.47439e-05
3.1063e-05
6.56013e-06
-1.18441e-05
-2.14676e-05
-1.4224e-05
1.87514e-05
6.8649e-05
0.00010938
0.000130203
0.000132014
0.000124229
0.000120915
0.000134891
0.000162068
0.000194096
0.000220809
0.000235572
0.000240694
0.000247983
0.000258284
0.000250456
0.000212763
0.000169731
0.000112008
5.22651e-05
-2.37374e-06
-4.3904e-05
-6.15792e-05
-5.37693e-05
-2.94203e-05
-2.17335e-06
1.79216e-05
2.99177e-05
4.16222e-05
5.67541e-05
6.8803e-05
7.25137e-05
6.95756e-05
6.31977e-05
5.04011e-05
2.99634e-05
9.78378e-06
-3.18637e-06
-9.62742e-06
-3.41028e-06
2.64292e-05
7.57628e-05
0.000116077
0.000135405
0.000137144
0.000129763
0.000122239
0.000127654
0.000147592
0.000175667
0.000202722
0.000222795
0.000234707
0.000246191
0.00025803
0.000253733
0.000220982
0.000176786
0.000129527
7.94996e-05
2.91404e-05
-1.50178e-05
-4.15234e-05
-4.44504e-05
-2.86431e-05
-5.30591e-06
1.53432e-05
3.02568e-05
4.3849e-05
5.96398e-05
7.34324e-05
8.04698e-05
7.90587e-05
7.09781e-05
5.64477e-05
3.60071e-05
1.76449e-05
7.5866e-06
3.20997e-06
8.49348e-06
3.60032e-05
8.24473e-05
0.000123867
0.000144084
0.000145815
0.000137827
0.000126433
0.000124602
0.000137543
0.000159344
0.000183861
0.000205621
0.000221019
0.000232174
0.000242756
0.000242176
0.000218142
0.000181927
0.000145446
0.000105778
6.2549e-05
1.92217e-05
-1.41761e-05
-2.79055e-05
-2.28188e-05
-5.98535e-06
1.39557e-05
3.09147e-05
4.60137e-05
6.35795e-05
7.98383e-05
8.92265e-05
8.99614e-05
8.04604e-05
6.08309e-05
3.68128e-05
1.8221e-05
1.16758e-05
1.2735e-05
2.11734e-05
4.71702e-05
9.12592e-05
0.000133301
0.000153446
0.000153882
0.000144793
0.00013128
0.000123014
0.000128924
0.000146469
0.000170256
0.000193773
0.000211921
0.000222931
0.000229249
0.000229197
0.000212952
0.000183839
0.000156126
0.000125921
9.17073e-05
5.50148e-05
2.24412e-05
2.44587e-06
-4.77082e-06
-1.5072e-06
9.07737e-06
2.4094e-05
4.21411e-05
6.34808e-05
8.40564e-05
9.69644e-05
9.93296e-05
9.04075e-05
7.0726e-05
4.63287e-05
2.779e-05
2.28504e-05
2.87124e-05
4.01151e-05
6.35046e-05
0.000102129
0.000140597
0.000158754
0.000157041
0.000146589
0.000133347
0.000123602
0.000125751
0.000140102
0.000162283
0.000186814
0.000205662
0.000215543
0.000219484
0.000219765
0.000208087
0.000176386
0.000156227
0.000136278
0.000112489
8.63212e-05
6.08265e-05
4.05122e-05
2.51951e-05
1.43264e-05
1.02948e-05
1.78867e-05
3.60358e-05
6.04587e-05
8.55527e-05
0.000102953
0.000107642
9.8638e-05
8.04389e-05
5.81477e-05
3.99355e-05
3.47663e-05
4.29338e-05
5.67356e-05
7.71968e-05
0.000109984
0.000145011
0.000163086
0.000160243
0.000148042
0.000132814
0.000122267
0.000122825
0.00013689
0.000158665
0.000181351
0.000198659
0.000206441
0.000206288
0.000203083
0.000193943
0.000156229
0.000142526
0.000132701
0.000122987
0.000108715
9.0998e-05
7.44915e-05
5.8396e-05
3.80768e-05
1.95257e-05
1.29264e-05
2.27948e-05
4.64014e-05
7.4839e-05
9.68575e-05
0.000105852
0.000102638
9.17954e-05
7.58841e-05
5.7972e-05
4.86373e-05
5.41383e-05
6.7818e-05
8.60608e-05
0.000112709
0.000143026
0.000161505
0.000161053
0.000149141
0.000133221
0.00012038
0.00011758
0.000129224
0.000150554
0.000172003
0.000186421
0.000190643
0.000185767
0.000178106
0.000169019
0.00013228
0.00012364
0.00011717
0.000112787
0.000106952
9.74297e-05
8.38295e-05
6.7296e-05
4.80902e-05
2.93317e-05
1.62866e-05
1.40608e-05
2.52452e-05
4.5785e-05
6.77345e-05
8.24445e-05
8.8705e-05
8.93854e-05
8.57726e-05
7.64041e-05
6.55196e-05
6.13765e-05
6.86587e-05
8.23532e-05
0.000102855
0.000127276
0.000145168
0.000149993
0.000142921
0.000129363
0.000116672
0.000111675
0.000121016
0.000140657
0.000160361
0.00017216
0.0001736
0.000165923
0.000153744
0.00014228
0.000118667
0.000109273
0.000102935
9.93124e-05
9.64137e-05
9.19773e-05
8.4436e-05
7.23228e-05
5.4858e-05
3.36589e-05
1.43257e-05
3.9814e-06
4.67287e-06
1.47777e-05
2.97583e-05
4.54126e-05
5.85433e-05
6.87605e-05
7.59103e-05
7.76528e-05
7.33009e-05
6.99083e-05
7.45099e-05
8.59629e-05
0.000102507
0.000122347
0.000136477
0.000137948
0.000128795
0.00011311
9.9342e-05
9.487e-05
0.000104149
0.000124722
0.000146828
0.000162905
0.0001678
0.000161474
0.000147585
0.000131843
0.000126548
0.000119559
0.000115259
0.000108896
0.00010112
9.19217e-05
8.31187e-05
7.36288e-05
6.09178e-05
4.50422e-05
2.75533e-05
1.34974e-05
6.87274e-06
7.30637e-06
1.24307e-05
2.00877e-05
3.02428e-05
4.06895e-05
5.1079e-05
6.1183e-05
6.99782e-05
7.70315e-05
8.60204e-05
9.75967e-05
0.000111264
0.000125918
0.000136088
0.000135357
0.000123128
0.000105408
8.96752e-05
8.23731e-05
8.89303e-05
0.000107517
0.000130143
0.000149827
0.000161591
0.000163293
0.00015429
0.00013931
0.000126446
0.000116807
0.000110171
0.000104249
9.60285e-05
8.74987e-05
7.96944e-05
7.22641e-05
6.36858e-05
5.39514e-05
4.47689e-05
3.90701e-05
3.76449e-05
3.88949e-05
4.13397e-05
4.51139e-05
4.99986e-05
5.39562e-05
5.76031e-05
6.22388e-05
6.88923e-05
7.6781e-05
8.53399e-05
9.38647e-05
0.00010379
0.000115543
0.000125321
0.000125657
0.000114172
9.8245e-05
8.50498e-05
7.87625e-05
8.25301e-05
9.58635e-05
0.000114277
0.000131919
0.000144139
0.000149546
0.000147521
0.000138336
0.000121254
0.000108011
9.6123e-05
8.52747e-05
7.48989e-05
6.66086e-05
6.16545e-05
5.98152e-05
5.84065e-05
5.56152e-05
5.26846e-05
5.12467e-05
5.18744e-05
5.27183e-05
5.37011e-05
5.65527e-05
6.24431e-05
7.08731e-05
7.86659e-05
8.47574e-05
8.90527e-05
9.15911e-05
9.37787e-05
9.71981e-05
0.000101614
0.000106509
0.000111027
0.000111148
0.000103773
9.20345e-05
8.14427e-05
7.54218e-05
7.58659e-05
8.40588e-05
9.85251e-05
0.000114444
0.000127551
0.000135861
0.000138252
0.000133011
0.000113944
9.56235e-05
7.70871e-05
6.05413e-05
4.83462e-05
4.13846e-05
3.92628e-05
4.15034e-05
4.57723e-05
4.96137e-05
5.2737e-05
5.68651e-05
6.09886e-05
6.40194e-05
6.64841e-05
7.10178e-05
7.96008e-05
9.08397e-05
0.000101383
0.000109515
0.000114096
0.000113578
0.000108407
0.000101859
9.60978e-05
9.29345e-05
9.38688e-05
9.58407e-05
9.50657e-05
9.16838e-05
8.83295e-05
8.47135e-05
8.22437e-05
8.46866e-05
9.3131e-05
0.000105127
0.00011744
0.000126931
0.000130931
0.000126797
8.80656e-05
4.56504e-05
1.26146e-05
-6.45977e-06
-8.11383e-06
4.8095e-06
2.35895e-05
3.86587e-05
4.53705e-05
4.60088e-05
4.56256e-05
4.91537e-05
5.84932e-05
7.07962e-05
8.07831e-05
8.33426e-05
7.68108e-05
6.43117e-05
5.14864e-05
4.15787e-05
3.60065e-05
3.91278e-05
5.59862e-05
8.56579e-05
0.000123176
0.000163035
0.00019861
0.000225057
0.000242966
0.000256535
0.000271122
0.000289438
0.000305564
0.000310453
0.000303472
0.000286101
0.000258955
0.000224289
0.000182471
0.000135379
9.02146e-05
4.75114e-05
1.40175e-05
-5.58675e-06
-7.76439e-06
4.79955e-06
2.34439e-05
3.85146e-05
4.5318e-05
4.60716e-05
4.57672e-05
4.92953e-05
5.85721e-05
7.07917e-05
8.06826e-05
8.31911e-05
7.65741e-05
6.39249e-05
5.09281e-05
4.08787e-05
3.51615e-05
3.80984e-05
5.47532e-05
8.41419e-05
0.000121284
0.000160755
0.000195962
0.000222022
0.00023953
0.000252749
0.000267135
0.000285654
0.000302479
0.000308307
0.000302412
0.000286181
0.000259961
0.00022596
0.000184535
0.00013758
9.18e-05
4.83118e-05
1.40362e-05
-6.26152e-06
-8.91842e-06
3.55489e-06
2.2437e-05
3.78569e-05
4.48863e-05
4.57052e-05
4.53571e-05
4.87556e-05
5.79062e-05
7.0123e-05
8.01823e-05
8.2851e-05
7.63165e-05
6.35844e-05
5.04415e-05
4.02576e-05
3.43354e-05
3.69772e-05
5.34049e-05
8.26553e-05
0.00011962
0.00015895
0.000193992
0.000219632
0.000236422
0.000248855
0.000262701
0.000281457
0.000299273
0.000306353
0.000301942
0.000287291
0.000262218
0.000228739
0.000187255
0.000139865
9.25637e-05
4.753e-05
1.19281e-05
-9.38811e-06
-1.25268e-05
1.67774e-07
1.98243e-05
3.60825e-05
4.35371e-05
4.43203e-05
4.37159e-05
4.68287e-05
5.58242e-05
6.8179e-05
7.86928e-05
8.19481e-05
7.58673e-05
6.32762e-05
5.01031e-05
3.98862e-05
3.3834e-05
3.62201e-05
5.25241e-05
8.19011e-05
0.000118976
0.000158444
0.000193564
0.000218836
0.000234672
0.000245894
0.00025869
0.000277462
0.000296462
0.000305004
0.000302307
0.000289636
0.000265965
0.000232846
0.000190828
0.000142233
9.29371e-05
4.54393e-05
7.84751e-06
-1.49959e-05
-1.8853e-05
-5.82498e-06
1.51079e-05
3.27868e-05
4.09736e-05
4.16009e-05
4.04078e-05
4.29726e-05
5.17066e-05
6.42456e-05
7.53763e-05
7.96667e-05
7.45899e-05
6.25929e-05
4.95831e-05
3.94508e-05
3.34001e-05
3.56611e-05
5.21132e-05
8.1977e-05
0.000119515
0.000159298
0.000194694
0.000219789
0.000234806
0.000244751
0.000255974
0.000274162
0.000294263
0.000304349
0.00030338
0.000292963
0.000271095
0.000238416
0.000195631
0.000145139
9.37577e-05
4.27675e-05
2.28419e-06
-2.27578e-05
-2.78806e-05
-1.46823e-05
7.93689e-06
2.77757e-05
3.72959e-05
3.78097e-05
3.56282e-05
3.72035e-05
4.53662e-05
5.77542e-05
6.9567e-05
7.51783e-05
7.17463e-05
6.10111e-05
4.8536e-05
3.85169e-05
3.22075e-05
3.38657e-05
5.0221e-05
8.09123e-05
0.000119375
0.000159809
0.000195865
0.000221274
0.000236313
0.000245816
0.000255466
0.000272285
0.000292965
0.000304503
0.000305129
0.000297109
0.00027751
0.000245674
0.000202314
0.000149442
9.6526e-05
4.08175e-05
-3.65592e-06
-3.19883e-05
-3.94248e-05
-2.67814e-05
-2.40455e-06
2.05214e-05
3.26192e-05
3.37695e-05
3.06109e-05
3.07525e-05
3.78149e-05
4.95681e-05
6.15164e-05
6.84238e-05
6.71785e-05
5.84965e-05
4.70939e-05
3.7148e-05
2.98021e-05
2.92901e-05
4.36245e-05
7.35946e-05
0.000112428
0.00015393
0.000191752
0.000218688
0.000235333
0.000246852
0.000256379
0.000271516
0.000292122
0.000305039
0.000307256
0.000301945
0.000285424
0.000255196
0.000211851
0.000156539
0.000103341
4.18046e-05
-7.90129e-06
-4.07148e-05
-5.22236e-05
-4.17255e-05
-1.66118e-05
9.45736e-06
2.53415e-05
2.89378e-05
2.59188e-05
2.49006e-05
3.06412e-05
4.12528e-05
5.25358e-05
6.06224e-05
6.19514e-05
5.57905e-05
4.577e-05
3.56698e-05
2.61021e-05
2.13171e-05
3.1044e-05
5.77334e-05
9.49329e-05
0.000137152
0.000177564
0.000207252
0.000226169
0.000241269
0.000253628
0.000267951
0.000287977
0.000302827
0.000308033
0.000306734
0.000294787
0.00026753
0.000225094
0.00016802
0.000115617
4.80986e-05
-7.77132e-06
-4.60913e-05
-6.27172e-05
-5.6179e-05
-3.24851e-05
-5.09356e-06
1.35803e-05
1.97839e-05
1.78342e-05
1.63765e-05
2.09722e-05
3.03211e-05
4.05594e-05
4.9127e-05
5.41022e-05
5.2187e-05
4.43702e-05
3.38944e-05
2.0866e-05
9.62186e-06
1.2951e-05
3.54144e-05
7.01718e-05
0.000112281
0.00015491
0.000187608
0.00020869
0.000226281
0.000241742
0.000256341
0.000275215
0.000291576
0.000301402
0.000308074
0.000304568
0.000282574
0.000242146
0.000184349
0.000133451
6.11157e-05
-7.60156e-07
-4.53562e-05
-6.76691e-05
-6.63503e-05
-4.57238e-05
-1.91445e-05
-1.21887e-07
7.03901e-06
5.55031e-06
2.97138e-06
5.31243e-06
1.26061e-05
2.15325e-05
3.1193e-05
4.00868e-05
4.33973e-05
3.95187e-05
3.04036e-05
1.5045e-05
-2.33346e-06
-5.76216e-06
1.27941e-05
4.58462e-05
8.7508e-05
0.000130826
0.000165183
0.0001871
0.000205596
0.000222366
0.000236792
0.000254293
0.000271571
0.000285251
0.000300822
0.000310626
0.000298837
0.000262106
0.000204454
0.0001551
8.10349e-05
1.37854e-05
-3.70971e-05
-6.51553e-05
-6.84438e-05
-5.12966e-05
-2.67738e-05
-8.91944e-06
-3.16576e-06
-6.45206e-06
-1.13884e-05
-1.16657e-05
-6.64786e-06
1.28528e-06
1.21508e-05
2.4681e-05
3.17814e-05
3.10578e-05
2.51365e-05
1.14835e-05
-7.97869e-06
-1.62217e-05
-8.04697e-07
3.10001e-05
7.17813e-05
0.000114046
0.00014766