/*--------------------------------*- C++ -*----------------------------------*\
| =========                 |                                                 |
| \\      /  F ield         | OpenFOAM: The Open Source CFD Toolbox           |
|  \\    /   O peration     | Version:  2306                                  |
|   \\  /    A nd           | Website:  www.openfoam.com                      |
|    \\/     M anipulation  |                                                 |
\*---------------------------------------------------------------------------*/
FoamFile
{
    version     2.0;
    format      ascii;
    arch        "LSB;label=32;scalar=64";
    class       volScalarField;
    location    "5.5";
    object      pPrime2Mean;
}
// * * * * * * * * * * * * * * * * * * * * * * * * * * * * * * * * * * * * * //

dimensions      [0 4 -4 0 0 0 0];

internalField   nonuniform List<scalar> 
60000
(
2.626e-09
9.32002e-09
2.05745e-08
2.84864e-08
2.96782e-08
2.71816e-08
2.40732e-08
2.02595e-08
1.57356e-08
1.41629e-08
1.95736e-08
2.91109e-08
3.47097e-08
3.17681e-08
2.27659e-08
1.32598e-08
7.6274e-09
6.09476e-09
5.79571e-09
5.13087e-09
6.73034e-09
1.52055e-08
2.90087e-08
3.88042e-08
3.72803e-08
2.67619e-08
1.58078e-08
1.15963e-08
1.62374e-08
2.58664e-08
3.18566e-08
2.80053e-08
1.92759e-08
1.34154e-08
1.09276e-08
1.02685e-08
1.11394e-08
1.21105e-08
9.64187e-09
4.22193e-09
2.44637e-09
8.97348e-09
2.03026e-08
2.84525e-08
2.97751e-08
2.72171e-08
2.39927e-08
2.01208e-08
1.55818e-08
1.40088e-08
1.94821e-08
2.91364e-08
3.48263e-08
3.19258e-08
2.29249e-08
1.33791e-08
7.69319e-09
6.12742e-09
5.80817e-09
5.10525e-09
6.65595e-09
1.51146e-08
2.89572e-08
3.88154e-08
3.72994e-08
2.67505e-08
1.57676e-08
1.15269e-08
1.6175e-08
2.58936e-08
3.20643e-08
2.83284e-08
1.95629e-08
1.36253e-08
1.10742e-08
1.03445e-08
1.11834e-08
1.21783e-08
9.76351e-09
4.27043e-09
2.22249e-09
8.67485e-09
2.02471e-08
2.87554e-08
3.02224e-08
2.75294e-08
2.40932e-08
2.00941e-08
1.5463e-08
1.37509e-08
1.92171e-08
2.90939e-08
3.50566e-08
3.23079e-08
2.32909e-08
1.36065e-08
7.76968e-09
6.12271e-09
5.76729e-09
5.02412e-09
6.54222e-09
1.50614e-08
2.90505e-08
3.90001e-08
3.74159e-08
2.6729e-08
1.56395e-08
1.13212e-08
1.59797e-08
2.58955e-08
3.23655e-08
2.8783e-08
1.99415e-08
1.39062e-08
1.12507e-08
1.03774e-08
1.11443e-08
1.22142e-08
9.89858e-09
4.29471e-09
1.95081e-09
8.44148e-09
2.04621e-08
2.94779e-08
3.1104e-08
2.8204e-08
2.44417e-08
2.02159e-08
1.54118e-08
1.34249e-08
1.87675e-08
2.89358e-08
3.53651e-08
3.2922e-08
2.39072e-08
1.39771e-08
7.86544e-09
6.07858e-09
5.6625e-09
4.86579e-09
6.40326e-09
1.51108e-08
2.93709e-08
3.94186e-08
3.76357e-08
2.66492e-08
1.53659e-08
1.09706e-08
1.5728e-08
2.59624e-08
3.28083e-08
2.93428e-08
2.03653e-08
1.42574e-08
1.14908e-08
1.03843e-08
1.10252e-08
1.22253e-08
1.00576e-08
4.29362e-09
1.62279e-09
8.17882e-09
2.07621e-08
3.04285e-08
3.23153e-08
2.9206e-08
2.50499e-08
2.05261e-08
1.55186e-08
1.31714e-08
1.81823e-08
2.85202e-08
3.55098e-08
3.35791e-08
2.47242e-08
1.45413e-08
8.03716e-09
6.0151e-09
5.50445e-09
4.63982e-09
6.21728e-09
1.51976e-08
2.97961e-08
4.00088e-08
3.80512e-08
2.67288e-08
1.51636e-08
1.06272e-08
1.55697e-08
2.62747e-08
3.34731e-08
2.99603e-08
2.07385e-08
1.4635e-08
1.18708e-08
1.05003e-08
1.09394e-08
1.22995e-08
1.0297e-08
4.31436e-09
1.24129e-09
7.8091e-09
2.10834e-08
3.13938e-08
3.36414e-08
3.04664e-08
2.58572e-08
2.09639e-08
1.57902e-08
1.31763e-08
1.77237e-08
2.79152e-08
3.52949e-08
3.3963e-08
2.55265e-08
1.52678e-08
8.34395e-09
5.99836e-09
5.3094e-09
4.29414e-09
5.88734e-09
1.51935e-08
3.01642e-08
4.04362e-08
3.82951e-08
2.67769e-08
1.52406e-08
1.08333e-08
1.59271e-08
2.70877e-08
3.4663e-08
3.07923e-08
2.10544e-08
1.49523e-08
1.23586e-08
1.08064e-08
1.10441e-08
1.26766e-08
1.087e-08
4.48703e-09
8.88919e-10
6.80099e-09
2.07791e-08
3.25934e-08
3.55072e-08
3.2265e-08
2.70414e-08
2.14509e-08
1.59995e-08
1.34487e-08
1.77729e-08
2.75419e-08
3.48874e-08
3.39327e-08
2.60335e-08
1.59933e-08
8.78219e-09
6.08145e-09
5.14119e-09
3.83068e-09
5.25505e-09
1.49709e-08
3.07126e-08
4.12877e-08
3.86498e-08
2.63838e-08
1.47965e-08
1.1124e-08
1.7212e-08
2.91399e-08
3.69761e-08
3.24217e-08
2.16606e-08
1.51777e-08
1.27198e-08
1.11622e-08
1.13098e-08
1.33757e-08
1.2298e-08
5.47383e-09
9.58768e-10
5.1839e-09
1.93818e-08
3.31599e-08
3.7791e-08
3.49079e-08
2.88858e-08
2.23492e-08
1.61448e-08
1.34192e-08
1.82313e-08
2.81849e-08
3.50515e-08
3.37299e-08
2.61422e-08
1.64902e-08
9.26534e-09
6.2796e-09
5.05283e-09
3.32687e-09
4.42487e-09
1.47872e-08
3.1884e-08
4.29773e-08
3.93729e-08
2.55107e-08
1.30737e-08
1.01084e-08
1.81382e-08
3.18266e-08
4.01733e-08
3.49111e-08
2.31649e-08
1.60042e-08
1.29704e-08
1.09161e-08
1.10599e-08
1.40771e-08
1.43781e-08
7.55409e-09
1.91056e-09
3.48125e-09
1.71918e-08
3.31136e-08
4.0318e-08
3.81694e-08
3.1469e-08
2.36477e-08
1.66439e-08
1.33405e-08
1.78551e-08
2.86117e-08
3.63148e-08
3.46404e-08
2.63455e-08
1.66245e-08
9.64993e-09
6.55843e-09
5.00855e-09
2.8614e-09
3.83698e-09
1.53886e-08
3.45339e-08
4.58129e-08
4.01469e-08
2.38926e-08
1.00534e-08
7.32496e-09
1.76349e-08
3.45784e-08
4.4542e-08
3.78226e-08
2.41223e-08
1.64864e-08
1.35341e-08
1.0976e-08
1.05897e-08
1.43021e-08
1.65823e-08
1.06399e-08
4.07734e-09
2.11924e-09
1.4188e-08
3.19643e-08
4.26022e-08
4.23443e-08
3.49631e-08
2.55766e-08
1.72754e-08
1.33267e-08
1.70733e-08
2.73151e-08
3.56258e-08
3.52379e-08
2.76672e-08
1.77458e-08
1.02023e-08
6.93364e-09
5.02142e-09
2.38296e-09
3.7088e-09
1.76229e-08
3.99827e-08
5.13581e-08
4.26205e-08
2.30996e-08
7.18903e-09
3.61241e-09
1.52697e-08
3.59058e-08
4.8791e-08
4.15939e-08
2.56615e-08
1.70421e-08
1.40299e-08
1.11063e-08
1.03773e-08
1.43573e-08
1.85328e-08
1.4317e-08
7.24144e-09
1.48336e-09
1.02888e-08
2.83013e-08
4.29212e-08
4.64835e-08
3.99833e-08
2.87735e-08
1.8458e-08
1.32812e-08
1.5834e-08
2.51382e-08
3.32919e-08
3.36733e-08
2.7532e-08
1.91164e-08
1.17885e-08
7.85057e-09
5.20572e-09
2.01036e-09
3.98231e-09
2.13969e-08
4.86781e-08
6.09956e-08
4.90531e-08
2.59515e-08
7.2155e-09
9.97198e-10
1.09108e-08
3.32232e-08
4.96929e-08
4.46754e-08
2.83249e-08
1.93155e-08
1.59748e-08
1.20745e-08
1.02471e-08
1.3878e-08
1.93123e-08
1.77118e-08
1.01476e-08
1.67868e-09
6.24932e-09
2.21212e-08
3.9104e-08
4.78294e-08
4.52191e-08
3.33775e-08
2.0606e-08
1.35768e-08
1.48793e-08
2.27533e-08
2.99034e-08
3.02403e-08
2.50887e-08
1.83143e-08
1.27243e-08
9.22798e-09
6.02833e-09
2.3237e-09
4.68429e-09
2.4663e-08
5.64196e-08
7.08832e-08
5.77831e-08
3.26989e-08
1.08612e-08
8.02647e-10
5.70071e-09
2.54087e-08
4.4569e-08
4.48627e-08
3.17118e-08
2.34487e-08
1.96288e-08
1.45343e-08
1.09097e-08
1.27605e-08
1.80726e-08
1.88305e-08
1.12066e-08
2.21212e-09
2.93247e-09
1.51395e-08
3.16083e-08
4.42669e-08
4.73794e-08
3.82424e-08
2.34088e-08
1.4279e-08
1.42831e-08
2.11374e-08
2.74062e-08
2.67914e-08
2.13354e-08
1.53515e-08
1.15522e-08
9.77952e-09
7.62026e-09
4.20326e-09
6.3928e-09
2.48002e-08
5.58536e-08
7.29789e-08
6.28392e-08
3.90686e-08
1.61957e-08
2.33361e-09
1.82018e-09
1.53739e-08
3.4191e-08
4.0916e-08
3.44928e-08
2.81441e-08
2.37699e-08
1.77761e-08
1.29676e-08
1.24069e-08
1.56286e-08
1.74036e-08
1.06405e-08
2.80487e-09
1.01782e-09
9.12106e-09
2.28963e-08
3.68436e-08
4.48236e-08
4.02394e-08
2.57486e-08
1.49135e-08
1.40095e-08
2.03105e-08
2.67124e-08
2.61228e-08
1.98298e-08
1.34002e-08
9.94997e-09
9.39626e-09
8.94973e-09
7.08851e-09
8.55257e-09
2.29982e-08
4.95393e-08
6.80838e-08
6.29866e-08
4.27294e-08
2.1145e-08
5.14118e-09
2.91789e-10
7.47352e-09
2.28069e-08
3.42722e-08
3.56833e-08
3.2117e-08
2.70806e-08
2.06203e-08
1.49876e-08
1.26524e-08
1.34193e-08
1.46357e-08
9.9382e-09
4.39541e-09
9.81041e-10
4.82775e-09
1.50277e-08
2.82465e-08
3.87568e-08
3.84589e-08
2.64014e-08
1.51841e-08
1.37161e-08
1.97207e-08
2.65007e-08
2.72203e-08
2.17066e-08
1.45965e-08
1.01106e-08
9.13922e-09
8.88675e-09
7.6914e-09
9.17925e-09
2.01913e-08
4.157e-08
6.03588e-08
5.96306e-08
4.46221e-08
2.60578e-08
9.17977e-09
8.78673e-10
3.31252e-09
1.47984e-08
2.76436e-08
3.43102e-08
3.42693e-08
2.93524e-08
2.29513e-08
1.70062e-08
1.31411e-08
1.18702e-08
1.19941e-08
9.68045e-09
6.51401e-09
2.90042e-09
3.02624e-09
9.36983e-09
2.04036e-08
3.10842e-08
3.3302e-08
2.44553e-08
1.48979e-08
1.37603e-08
1.94905e-08
2.60387e-08
2.73663e-08
2.34414e-08
1.70735e-08
1.1999e-08
9.82377e-09
8.51282e-09
7.25379e-09
9.52986e-09
1.84913e-08
3.44859e-08
4.97536e-08
5.12961e-08
4.21729e-08
2.95269e-08
1.42228e-08
3.06504e-09
1.7903e-09
9.71166e-09
2.14174e-08
3.02904e-08
3.33934e-08
3.14319e-08
2.63249e-08
1.94807e-08
1.35765e-08
1.09201e-08
1.03623e-08
9.6954e-09
8.47185e-09
5.4988e-09
3.98376e-09
7.39208e-09
1.50934e-08
2.34175e-08
2.61875e-08
2.06379e-08
1.36688e-08
1.33347e-08
1.94225e-08
2.64224e-08
2.82905e-08
2.43685e-08
1.82405e-08
1.32733e-08
1.09063e-08
9.05426e-09
7.87309e-09
1.09787e-08
1.87754e-08
2.96365e-08
3.95324e-08
4.04138e-08
3.51794e-08
2.785e-08
1.71609e-08
6.36294e-09
2.38331e-09
6.62924e-09
1.66632e-08
2.68559e-08
3.18661e-08
3.11904e-08
2.75452e-08
2.13453e-08
1.51116e-08
1.09328e-08
9.46852e-09
9.0285e-09
1.00552e-08
9.12548e-09
7.26927e-09
8.04519e-09
1.1829e-08
1.64281e-08
1.80758e-08
1.54237e-08
1.2153e-08
1.31942e-08
1.93308e-08
2.65862e-08
2.95712e-08
2.63667e-08
2.02079e-08
1.42833e-08
1.07128e-08
8.67766e-09
8.39617e-09
1.22233e-08
1.93327e-08
2.7531e-08
3.41573e-08
3.4475e-08
2.95004e-08
2.45562e-08
1.73439e-08
8.2816e-09
4.05426e-09
6.87718e-09
1.60163e-08
2.65338e-08
3.25508e-08
3.19683e-08
2.66912e-08
2.00127e-08
1.36855e-08
9.31831e-09
7.87283e-09
8.63823e-09
1.12454e-08
1.16363e-08
1.0782e-08
1.15569e-08
1.36555e-08
1.42859e-08
1.23954e-08
9.63424e-09
8.75426e-09
1.17133e-08
1.78308e-08
2.54528e-08
3.02309e-08
2.95099e-08
2.46239e-08
1.85691e-08
1.35221e-08
1.02511e-08
9.16472e-09
1.1429e-08
1.60101e-08
2.16669e-08
2.85597e-08
3.19425e-08
2.90323e-08
2.39666e-08
1.74494e-08
8.57039e-09
4.12791e-09
7.24926e-09
1.64131e-08
2.65179e-08
3.17982e-08
3.11153e-08
2.64583e-08
1.94889e-08
1.23331e-08
7.38969e-09
6.36938e-09
7.87544e-09
1.06557e-08
1.2659e-08
1.33811e-08
1.39664e-08
1.50057e-08
1.48087e-08
1.2915e-08
1.02284e-08
8.36664e-09
9.02173e-09
1.24882e-08
1.79038e-08
2.36269e-08
2.7001e-08
2.64445e-08
2.31435e-08
1.96702e-08
1.66559e-08
1.38429e-08
1.19419e-08
1.20155e-08
1.4843e-08
2.20302e-08
2.99549e-08
3.14772e-08
2.67728e-08
1.84465e-08
9.34871e-09
3.83075e-09
6.17423e-09
1.47711e-08
2.50684e-08
3.11695e-08
3.12852e-08
2.65742e-08
1.92368e-08
1.21631e-08
7.62943e-09
6.30755e-09
5.9567e-09
7.84903e-09
1.14072e-08
1.56122e-08
1.93233e-08
2.02305e-08
1.71976e-08
1.24418e-08
9.40155e-09
8.69783e-09
9.6667e-09
1.14941e-08
1.37769e-08
1.71336e-08
2.14689e-08
2.45424e-08
2.47358e-08
2.31755e-08
2.08071e-08
1.77053e-08
1.39284e-08
1.12164e-08
1.23825e-08
1.98934e-08
3.04304e-08
3.50419e-08
2.95778e-08
1.89259e-08
8.23998e-09
2.13072e-09
4.67072e-09
1.56618e-08
2.99312e-08
3.86191e-08
3.71431e-08
2.93803e-08
2.06479e-08
1.36599e-08
9.00482e-09
6.49223e-09
9.99206e-09
8.51999e-09
7.65943e-09
9.91114e-09
1.41958e-08
1.77117e-08
1.75966e-08
1.40833e-08
1.06017e-08
9.27068e-09
1.0118e-08
1.19073e-08
1.35881e-08
1.50867e-08
1.71912e-08
1.99419e-08
2.20949e-08
2.37228e-08
2.38068e-08
2.10188e-08
1.65329e-08
1.26378e-08
1.22045e-08
1.74466e-08
2.69567e-08
3.37751e-08
3.18265e-08
2.26092e-08
1.07394e-08
1.79429e-09
2.48482e-09
1.38259e-08
3.14014e-08
4.50805e-08
4.55698e-08
3.55462e-08
2.27669e-08
1.40881e-08
1.12116e-08
1.09126e-08
1.20821e-08
1.1165e-08
9.66903e-09
8.74754e-09
9.55712e-09
1.16011e-08
1.34488e-08
1.39805e-08
1.34231e-08
1.24847e-08
1.25731e-08
1.32392e-08
1.43256e-08
1.57857e-08
1.72564e-08
1.83304e-08
1.90936e-08
2.00749e-08
2.09133e-08
2.03655e-08
1.76539e-08
1.40896e-08
1.28697e-08
1.55858e-08
2.19604e-08
2.72151e-08
2.62398e-08
1.97221e-08
1.11835e-08
3.8528e-09
2.83521e-09
1.01676e-08
2.3165e-08
3.46272e-08
3.78999e-08
3.25292e-08
2.38637e-08
1.67557e-08
1.31657e-08
1.22492e-08
1.27178e-08
9.36405e-09
6.63747e-09
6.09677e-09
8.60618e-09
1.30051e-08
1.71157e-08
1.92942e-08
1.87965e-08
1.69895e-08
1.50619e-08
1.32718e-08
1.21185e-08
1.25659e-08
1.50617e-08
1.84984e-08
2.12446e-08
2.25117e-08
2.23663e-08
2.02303e-08
1.69538e-08
1.39908e-08
1.18392e-08
1.19472e-08
1.55858e-08
2.11933e-08
2.40562e-08
2.11637e-08
1.42296e-08
7.33942e-09
4.84297e-09
8.52229e-09
1.73857e-08
2.68779e-08
3.16991e-08
3.02811e-08
2.48848e-08
1.96668e-08
1.64724e-08
1.48845e-08
1.4005e-08
1.037e-08
6.30201e-09
4.80526e-09
7.05358e-09
1.21139e-08
1.7849e-08
2.17614e-08
2.19965e-08
2.00523e-08
1.7461e-08
1.51117e-08
1.43159e-08
1.49393e-08
1.6284e-08
1.80353e-08
2.01784e-08
2.23319e-08
2.4173e-08
2.36848e-08
1.92115e-08
1.31966e-08
8.76452e-09
7.21236e-09
9.7018e-09
1.58858e-08
2.18953e-08
2.32251e-08
1.9299e-08
1.33609e-08
9.14747e-09
9.02849e-09
1.43457e-08
2.17556e-08
2.72248e-08
2.8655e-08
2.62892e-08
2.22063e-08
1.87441e-08
1.64278e-08
3.95171e-09
4.043e-15
5.02533e-09
1.8099e-08
3.13907e-08
3.78063e-08
3.5687e-08
2.76937e-08
1.87055e-08
1.50521e-08
2.01851e-08
2.86877e-08
3.15947e-08
2.66728e-08
1.82185e-08
1.13237e-08
8.51182e-09
8.89418e-09
9.11339e-09
7.28966e-09
6.77215e-09
1.41944e-08
3.117e-08
4.8515e-08
5.30175e-08
4.08298e-08
2.37591e-08
1.47049e-08
1.36997e-08
1.56969e-08
1.85246e-08
2.07883e-08
2.0254e-08
1.68296e-08
1.25301e-08
1.07193e-08
1.33147e-08
1.75485e-08
1.80458e-08
1.21e-08
4.16137e-09
5.10226e-12
4.6911e-09
1.75512e-08
3.09142e-08
3.75425e-08
3.55965e-08
2.7663e-08
1.86559e-08
1.49723e-08
2.01429e-08
2.8765e-08
3.17587e-08
2.68178e-08
1.83172e-08
1.13817e-08
8.54475e-09
8.92254e-09
9.14655e-09
7.29965e-09
6.68384e-09
1.38969e-08
3.06556e-08
4.79828e-08
5.27452e-08
4.08691e-08
2.39089e-08
1.48646e-08
1.38834e-08
1.58548e-08
1.86022e-08
2.08753e-08
2.04607e-08
1.71167e-08
1.27823e-08
1.09e-08
1.34527e-08
1.7698e-08
1.82489e-08
1.23425e-08
4.51963e-09
3.01172e-11
4.39149e-09
1.72291e-08
3.08845e-08
3.7801e-08
3.5917e-08
2.78594e-08
1.86476e-08
1.47945e-08
2.00042e-08
2.88422e-08
3.19945e-08
2.70483e-08
1.84586e-08
1.14411e-08
8.56289e-09
8.95262e-09
9.19971e-09
7.30911e-09
6.57091e-09
1.3613e-08
3.02934e-08
4.77397e-08
5.27565e-08
4.10306e-08
2.4011e-08
1.49486e-08
1.40342e-08
1.59625e-08
1.85274e-08
2.07892e-08
2.06253e-08
1.75021e-08
1.3138e-08
1.10756e-08
1.35557e-08
1.79295e-08
1.86856e-08
1.2848e-08
5.06559e-09
1.04249e-10
4.20754e-09
1.72787e-08
3.14556e-08
3.86922e-08
3.67272e-08
2.83359e-08
1.87146e-08
1.45261e-08
1.97067e-08
2.88462e-08
3.22719e-08
2.73498e-08
1.86327e-08
1.14848e-08
8.54872e-09
8.96848e-09
9.26531e-09
7.31785e-09
6.46012e-09
1.34682e-08
3.03165e-08
4.80238e-08
5.31572e-08
4.12573e-08
2.39273e-08
1.48314e-08
1.40843e-08
1.60396e-08
1.83558e-08
2.05165e-08
2.06283e-08
1.78583e-08
1.35511e-08
1.12747e-08
1.36778e-08
1.83235e-08
1.9474e-08
1.37099e-08
5.92516e-09
2.94626e-10
4.12799e-09
1.76412e-08
3.25688e-08
4.01788e-08
3.80351e-08
2.91479e-08
1.89811e-08
1.4311e-08
1.92874e-08
2.86443e-08
3.24014e-08
2.75999e-08
1.87986e-08
1.15094e-08
8.50567e-09
8.97259e-09
9.325e-09
7.30687e-09
6.34446e-09
1.34624e-08
3.06983e-08
4.87659e-08
5.39042e-08
4.16515e-08
2.38134e-08
1.461e-08
1.40904e-08
1.61866e-08
1.82574e-08
2.0155e-08
2.03439e-08
1.79214e-08
1.38325e-08
1.14924e-08
1.393e-08
1.90236e-08
2.07431e-08
1.50544e-08
7.28958e-09
7.1175e-10
4.06877e-09
1.80431e-08
3.39208e-08
4.20585e-08
3.97244e-08
3.02613e-08
1.95084e-08
1.43934e-08
1.90447e-08
2.83274e-08
3.22242e-08
2.75739e-08
1.8833e-08
1.14997e-08
8.45135e-09
8.98219e-09
9.40375e-09
7.26853e-09
6.13045e-09
1.33403e-08
3.09762e-08
4.94896e-08
5.4834e-08
4.24074e-08
2.41648e-08
1.47768e-08
1.44908e-08
1.67063e-08
1.85169e-08
1.99985e-08
1.98725e-08
1.74975e-08
1.3694e-08
1.15891e-08
1.44176e-08
2.02682e-08
2.27387e-08
1.70979e-08
9.62146e-09
1.61131e-09
3.92481e-09
1.80682e-08
3.50686e-08
4.40018e-08
4.15686e-08
3.15015e-08
2.01337e-08
1.4745e-08
1.92923e-08
2.83836e-08
3.20519e-08
2.72703e-08
1.85706e-08
1.13535e-08
8.37993e-09
9.01967e-09
9.53017e-09
7.20275e-09
5.6201e-09
1.26253e-08
3.07014e-08
5.01033e-08
5.6188e-08
4.37086e-08
2.48342e-08
1.53819e-08
1.57699e-08
1.83933e-08
1.97709e-08
2.05979e-08
1.97146e-08
1.6797e-08
1.29839e-08
1.12888e-08
1.50503e-08
2.22901e-08
2.58823e-08
2.03152e-08
1.30905e-08
3.28719e-09
3.50691e-09
1.70289e-08
3.53193e-08
4.59349e-08
4.37687e-08
3.30829e-08
2.09948e-08
1.4939e-08
1.9188e-08
2.84771e-08
3.23434e-08
2.73784e-08
1.82882e-08
1.10131e-08
8.17802e-09
9.02643e-09
9.69357e-09
7.14437e-09
4.78873e-09
1.11177e-08
2.97082e-08
5.09284e-08
5.8375e-08
4.59986e-08
2.58368e-08
1.56718e-08
1.71275e-08
2.10831e-08
2.23184e-08
2.23244e-08
2.05892e-08
1.68096e-08
1.23065e-08
1.05537e-08
1.54209e-08
2.462e-08
2.98746e-08
2.45777e-08
1.73812e-08
5.90023e-09
3.10118e-09
1.4692e-08
3.38239e-08
4.71837e-08
4.65468e-08
3.53462e-08
2.23803e-08
1.5368e-08
1.84236e-08
2.71499e-08
3.1589e-08
2.76357e-08
1.88351e-08
1.10973e-08
7.90963e-09
8.83502e-09
9.74328e-09
7.11231e-09
3.99534e-09
9.26332e-09
2.77928e-08
5.00429e-08
5.86451e-08
4.68954e-08
2.62716e-08
1.53347e-08
1.76941e-08
2.40302e-08
2.59743e-08
2.47845e-08
2.15631e-08
1.72711e-08
1.26968e-08
1.04746e-08
1.54136e-08
2.59585e-08
3.35493e-08
2.93732e-08
2.21167e-08
9.49993e-09
3.32926e-09
1.17248e-08
3.08836e-08
4.72002e-08
4.97201e-08
3.84698e-08
2.43411e-08
1.6065e-08
1.7905e-08
2.55394e-08
2.97483e-08
2.67253e-08
1.92685e-08
1.20229e-08
8.34636e-09
8.67998e-09
9.52701e-09
7.01111e-09
3.63387e-09
8.2241e-09
2.64008e-08
4.84102e-08
5.60345e-08
4.3946e-08
2.40772e-08
1.35128e-08
1.70239e-08
2.64575e-08
3.08599e-08
2.90417e-08
2.35372e-08
1.76363e-08
1.29895e-08
1.09706e-08
1.58795e-08
2.63916e-08
3.55264e-08
3.38152e-08
2.66819e-08
1.35767e-08
4.53264e-09
8.72277e-09
2.68211e-08
4.6272e-08
5.27642e-08
4.24896e-08
2.66318e-08
1.67629e-08
1.73235e-08
2.40057e-08
2.76835e-08
2.49461e-08
1.86224e-08
1.25759e-08
9.31706e-09
9.22191e-09
9.48909e-09
6.7888e-09
3.67265e-09
8.74302e-09
2.73287e-08
4.8404e-08
5.32313e-08
3.92123e-08
2.02411e-08
1.02488e-08
1.44877e-08
2.70438e-08
3.55067e-08
3.47371e-08
2.75606e-08
1.98337e-08
1.42805e-08
1.17806e-08
1.60066e-08
2.56165e-08
3.51967e-08
3.65541e-08
2.91249e-08
1.64855e-08
5.88537e-09
5.89959e-09
2.11369e-08
4.29076e-08
5.46827e-08
4.74971e-08
2.98032e-08
1.73451e-08
1.64867e-08
2.2722e-08
2.62375e-08
2.33363e-08
1.74027e-08
1.23435e-08
9.92644e-09
9.97299e-09
9.93518e-09
6.97038e-09
4.34084e-09
1.08651e-08
3.07617e-08
5.15272e-08
5.31367e-08
3.65333e-08
1.82864e-08
7.916e-09
1.0495e-08
2.37272e-08
3.63064e-08
3.89424e-08
3.21176e-08
2.35596e-08
1.72877e-08
1.39625e-08
1.69227e-08
2.46451e-08
3.30043e-08
3.6402e-08
2.85669e-08
1.71464e-08
6.52002e-09
3.73767e-09
1.48443e-08
3.6251e-08
5.24532e-08
5.03434e-08
3.38522e-08
1.849e-08
1.61074e-08
2.22295e-08
2.61073e-08
2.28834e-08
1.62359e-08
1.14321e-08
9.97041e-09
1.06619e-08
1.07277e-08
7.94857e-09
6.06698e-09
1.31318e-08
3.33814e-08
5.44071e-08
5.39163e-08
3.71087e-08
1.96454e-08
8.74987e-09
7.59555e-09
1.75938e-08
3.09976e-08
3.78455e-08
3.47499e-08
2.80056e-08
2.19608e-08
1.74547e-08
1.80334e-08
2.33726e-08
2.9819e-08
3.36562e-08
2.5359e-08
1.53839e-08
5.92831e-09
2.10139e-09
9.23832e-09
2.77632e-08
4.60274e-08
4.93499e-08
3.61271e-08
2.02712e-08
1.64959e-08
2.26492e-08
2.70667e-08
2.38869e-08
1.63766e-08
1.09355e-08
9.81157e-09
1.11844e-08
1.1677e-08
9.29977e-09
7.56046e-09
1.34846e-08
3.09393e-08
5.0504e-08
5.15286e-08
3.77832e-08
2.25815e-08
1.16976e-08
7.12503e-09
1.23471e-08
2.29564e-08
3.11936e-08
3.26098e-08
3.04009e-08
2.68429e-08
2.21299e-08
1.91883e-08
2.09606e-08
2.55317e-08
2.91007e-08
2.10599e-08
1.28044e-08
4.65294e-09
8.50833e-10
5.13056e-09
1.97988e-08
3.7512e-08
4.50837e-08
3.648e-08
2.23083e-08
1.74931e-08
2.29228e-08
2.78792e-08
2.59004e-08
1.87603e-08
1.26668e-08
1.02654e-08
1.03092e-08
1.00734e-08
8.43011e-09
8.04815e-09
1.35482e-08
2.75304e-08
4.39061e-08
4.79305e-08
3.83872e-08
2.54123e-08
1.42227e-08
7.44776e-09
9.02662e-09
1.65277e-08
2.44782e-08
2.90552e-08
3.04136e-08
2.89968e-08
2.50572e-08
2.08917e-08
1.91882e-08
2.08985e-08
2.35651e-08
1.62622e-08
1.04307e-08
3.74191e-09
1.39478e-10
2.39807e-09
1.26911e-08
2.73249e-08
3.67339e-08
3.36055e-08
2.3214e-08
1.885e-08
2.37329e-08
2.87403e-08
2.76232e-08
2.12517e-08
1.44259e-08
1.07243e-08
9.61803e-09
8.44437e-09
7.17992e-09
8.83234e-09
1.54269e-08
2.69995e-08
3.9544e-08
4.36903e-08
3.76293e-08
2.79848e-08
1.72752e-08
8.26073e-09
6.55882e-09
1.22963e-08
2.06939e-08
2.70143e-08
3.01133e-08
3.07254e-08
2.76678e-08
2.21118e-08
1.75701e-08
1.62331e-08
1.74323e-08
1.36544e-08
9.50293e-09
3.92803e-09
1.11782e-09
2.87503e-09
8.73335e-09
1.6542e-08
2.26343e-08
2.40177e-08
2.12831e-08
2.05878e-08
2.57567e-08
3.10341e-08
2.99569e-08
2.32009e-08
1.57034e-08
1.11039e-08
9.83635e-09
8.46258e-09
7.10897e-09
9.61262e-09
1.69492e-08
2.70538e-08
3.59023e-08
3.82973e-08
3.36484e-08
2.65954e-08
1.82134e-08
9.68238e-09
6.15206e-09
9.75181e-09
1.79607e-08
2.57144e-08
3.00783e-08
3.10091e-08
2.87758e-08
2.32159e-08
1.68635e-08
1.31768e-08
1.3585e-08
1.22977e-08
1.10444e-08
6.94586e-09
4.80963e-09
6.12536e-09
9.1434e-09
1.12701e-08
1.22917e-08
1.32096e-08
1.53519e-08
1.9726e-08
2.7141e-08
3.37531e-08
3.31007e-08
2.57103e-08
1.66977e-08
1.11906e-08
9.42909e-09
8.68837e-09
7.92779e-09
1.03824e-08
1.69642e-08
2.58493e-08
3.40977e-08
3.64667e-08
3.15531e-08
2.43939e-08
1.70774e-08
9.49697e-09
6.14785e-09
8.96419e-09
1.66721e-08
2.46091e-08
2.96017e-08
3.10961e-08
2.84521e-08
2.19257e-08
1.47994e-08
1.04851e-08
1.06037e-08
1.15979e-08
1.32744e-08
1.12901e-08
9.51318e-09
1.13055e-08
1.37205e-08
1.19172e-08
7.53433e-09
5.86796e-09
8.08668e-09
1.37068e-08
2.19873e-08
3.03655e-08
3.39793e-08
3.0434e-08
2.26034e-08
1.51542e-08
1.07388e-08
9.00128e-09
8.65844e-09
1.05138e-08
1.51079e-08
2.19613e-08
3.04765e-08
3.59016e-08
3.30148e-08
2.46389e-08
1.61998e-08
8.87652e-09
5.86945e-09
8.59249e-09
1.57689e-08
2.33377e-08
2.82058e-08
2.94693e-08
2.70088e-08
2.10781e-08
1.38358e-08
8.6017e-09
8.50671e-09
1.04157e-08
1.3182e-08
1.43171e-08
1.34875e-08
1.27871e-08
1.28883e-08
1.20832e-08
9.60261e-09
7.25656e-09
6.39803e-09
8.2704e-09
1.34385e-08
2.05455e-08
2.63473e-08
2.80405e-08
2.57727e-08
2.12337e-08
1.71784e-08
1.40901e-08
1.14369e-08
9.73414e-09
1.09417e-08
1.55537e-08
2.41366e-08
3.33015e-08
3.56718e-08
2.87032e-08
1.76513e-08
8.84127e-09
5.8523e-09
8.92025e-09
1.61563e-08
2.30164e-08
2.62815e-08
2.58843e-08
2.30904e-08
1.85155e-08
1.30829e-08
8.93868e-09
8.24226e-09
8.6012e-09
1.09626e-08
1.35623e-08
1.57329e-08
1.74899e-08
1.75921e-08
1.45748e-08
1.00242e-08
7.03546e-09
6.29444e-09
7.20355e-09
9.67812e-09
1.35634e-08
1.85535e-08
2.31961e-08
2.55709e-08
2.54657e-08
2.38175e-08
2.08065e-08
1.61118e-08
1.16769e-08
1.06291e-08
1.42613e-08
2.18579e-08
3.02696e-08
3.28162e-08
2.66506e-08
1.63544e-08
7.71392e-09
4.78493e-09
8.7175e-09
1.77783e-08
2.68975e-08
3.03491e-08
2.79048e-08
2.23299e-08
1.74316e-08
1.34432e-08
9.85269e-09
7.89967e-09
1.21375e-08
1.09581e-08
9.99089e-09
1.16978e-08
1.464e-08
1.64888e-08
1.5102e-08
1.12023e-08
8.07884e-09
7.31267e-09
8.62609e-09
1.04745e-08
1.19139e-08
1.3178e-08
1.54128e-08
1.86755e-08
2.20595e-08
2.49085e-08
2.58565e-08
2.32879e-08
1.82155e-08
1.50652e-08
1.55113e-08
1.95272e-08
2.53548e-08
2.83497e-08
2.50007e-08
1.71371e-08
8.75492e-09
3.87819e-09
5.92902e-09
1.53307e-08
2.70132e-08
3.4021e-08
3.32012e-08
2.58685e-08
1.77849e-08
1.30037e-08
1.18027e-08
1.2128e-08
1.2812e-08
1.20922e-08
1.1077e-08
1.05002e-08
1.14656e-08
1.26918e-08
1.27411e-08
1.13484e-08
9.75123e-09
9.61226e-09
1.13969e-08
1.37874e-08
1.53526e-08
1.57036e-08
1.51389e-08
1.44899e-08
1.49042e-08
1.70959e-08
1.96035e-08
2.03719e-08
1.83805e-08
1.57364e-08
1.532e-08
1.87088e-08
2.38718e-08
2.6663e-08
2.41089e-08
1.75589e-08
1.04943e-08
5.47947e-09
5.55281e-09
1.20693e-08
2.23355e-08
3.06391e-08
3.21884e-08
2.71883e-08
2.05313e-08
1.57273e-08
1.34741e-08
1.3e-08
1.32269e-08
1.07873e-08
8.49475e-09
7.63267e-09
8.96839e-09
1.14163e-08
1.37402e-08
1.50594e-08
1.53253e-08
1.50722e-08
1.45352e-08
1.37246e-08
1.30663e-08
1.34708e-08
1.53978e-08
1.77828e-08
1.94003e-08
1.96578e-08
1.92444e-08
1.80133e-08
1.59674e-08
1.39353e-08
1.31707e-08
1.43847e-08
1.74013e-08
2.09374e-08
2.20927e-08
1.90139e-08
1.32356e-08
8.10351e-09
6.79495e-09
1.06218e-08
1.83554e-08
2.61924e-08
2.94317e-08
2.70915e-08
2.22382e-08
1.82577e-08
1.60591e-08
1.4854e-08
1.40829e-08
1.02396e-08
6.37171e-09
4.84648e-09
6.5816e-09
1.08451e-08
1.587e-08
1.97367e-08
2.11468e-08
2.01765e-08
1.81301e-08
1.59079e-08
1.46431e-08
1.483e-08
1.60032e-08
1.76985e-08
1.96517e-08
2.13671e-08
2.25171e-08
2.17464e-08
1.78844e-08
1.25821e-08
9.09644e-09
8.65087e-09
1.13634e-08
1.64003e-08
2.07879e-08
2.115e-08
1.76818e-08
1.31396e-08
1.02071e-08
1.09627e-08
1.5106e-08
2.05699e-08
2.4188e-08
2.48292e-08
2.33332e-08
2.1312e-08
1.922e-08
1.70803e-08
5.55991e-09
2.60584e-09
2.14637e-09
6.00976e-09
1.41625e-08
2.37049e-08
2.92747e-08
2.734e-08
1.994e-08
1.39615e-08
1.51745e-08
2.14305e-08
2.50392e-08
2.2151e-08
1.61747e-08
1.18403e-08
1.07319e-08
1.13734e-08
1.10204e-08
9.22751e-09
9.31668e-09
1.54688e-08
2.81154e-08
4.12286e-08
4.66326e-08
4.10278e-08
2.93129e-08
1.97965e-08
1.51534e-08
1.50734e-08
1.88166e-08
2.37941e-08
2.52849e-08
2.20828e-08
1.65107e-08
1.22332e-08
1.08713e-08
1.07804e-08
1.03047e-08
8.58751e-09
5.63833e-09
2.6045e-09
2.05137e-09
5.82914e-09
1.39415e-08
2.35217e-08
2.91942e-08
2.73767e-08
2.00245e-08
1.40223e-08
1.52017e-08
2.14633e-08
2.50986e-08
2.22058e-08
1.61894e-08
1.18299e-08
1.07215e-08
1.1378e-08
1.10296e-08
9.20918e-09
9.24421e-09
1.53176e-08
2.78836e-08
4.0938e-08
4.63632e-08
4.08526e-08
2.92038e-08
1.9689e-08
1.50032e-08
1.48494e-08
1.85993e-08
2.37936e-08
2.56085e-08
2.25887e-08
1.69657e-08
1.25377e-08
1.10807e-08
1.09435e-08
1.04556e-08
8.72083e-09
5.68573e-09
2.56097e-09
1.9204e-09
5.66543e-09
1.38204e-08
2.35228e-08
2.93538e-08
2.76103e-08
2.01973e-08
1.40493e-08
1.51412e-08
2.14543e-08
2.51836e-08
2.22925e-08
1.6207e-08
1.18191e-08
1.07294e-08
1.14197e-08
1.10677e-08
9.18696e-09
9.13669e-09
1.51358e-08
2.76951e-08
4.08059e-08
4.63148e-08
4.0878e-08
2.91941e-08
1.96054e-08
1.48187e-08
1.44566e-08
1.80781e-08
2.35316e-08
2.59386e-08
2.33709e-08
1.77557e-08
1.30393e-08
1.135e-08
1.11001e-08
1.05883e-08
8.81931e-09
5.69887e-09
2.46571e-09
1.74311e-09
5.51882e-09
1.38201e-08
2.37637e-08
2.97971e-08
2.80484e-08
2.04243e-08
1.39915e-08
1.49452e-08
2.13736e-08
2.52901e-08
2.24209e-08
1.62479e-08
1.183e-08
1.07948e-08
1.15427e-08
1.11626e-08
9.16589e-09
9.01796e-09
1.50157e-08
2.7726e-08
4.10283e-08
4.66228e-08
4.11419e-08
2.92455e-08
1.95006e-08
1.46295e-08
1.39834e-08
1.7297e-08
2.29169e-08
2.60785e-08
2.42704e-08
1.88543e-08
1.3806e-08
1.17639e-08
1.13244e-08
1.07222e-08
8.89025e-09
5.70666e-09
2.33738e-09
1.52428e-09
5.36245e-09
1.38815e-08
2.4178e-08
3.04643e-08
2.86479e-08
2.06767e-08
1.38301e-08
1.45676e-08
2.1117e-08
2.52923e-08
2.25026e-08
1.63003e-08
1.18857e-08
1.09549e-08
1.17935e-08
1.13572e-08
9.1541e-09
8.87974e-09
1.50001e-08
2.80745e-08
4.17275e-08
4.74296e-08
4.17687e-08
2.93955e-08
1.93488e-08
1.44765e-08
1.36459e-08
1.65229e-08
2.20115e-08
2.57965e-08
2.49503e-08
2.00943e-08
1.49009e-08
1.24808e-08
1.17493e-08
1.09178e-08
8.96888e-09
5.75477e-09
2.20799e-09
1.26745e-09
5.147e-09
1.39136e-08
2.46787e-08
3.13081e-08
2.93934e-08
2.0973e-08
1.36219e-08
1.40266e-08
2.05593e-08
2.4949e-08
2.23704e-08
1.62281e-08
1.19761e-08
1.12477e-08
1.22172e-08
1.16908e-08
9.17098e-09
8.63194e-09
1.4798e-08
2.83488e-08
4.26681e-08
4.88957e-08
4.32572e-08
3.01316e-08
1.93679e-08
1.43951e-08
1.36207e-08
1.61803e-08
2.11762e-08
2.50731e-08
2.50564e-08
2.11486e-08
1.62867e-08
1.36796e-08
1.26071e-08
1.13175e-08
9.13875e-09
5.96511e-09
2.12053e-09
9.66505e-10
4.81598e-09
1.37129e-08
2.49844e-08
3.21758e-08
3.03092e-08
2.14147e-08
1.3523e-08
1.35164e-08
1.97786e-08
2.40692e-08
2.15734e-08
1.57419e-08
1.19642e-08
1.16683e-08
1.2854e-08
1.22131e-08
9.25715e-09
8.19758e-09
1.39574e-08
2.76103e-08
4.27968e-08
5.0521e-08
4.60258e-08
3.2405e-08
2.04101e-08
1.47985e-08
1.40272e-08
1.66245e-08
2.11256e-08
2.44385e-08
2.45437e-08
2.16449e-08
1.77887e-08
1.55499e-08
1.42238e-08
1.22117e-08
9.60135e-09
6.5861e-09
2.21158e-09
6.21545e-10
4.31608e-09
1.31857e-08
2.46822e-08
3.25713e-08
3.11159e-08
2.20356e-08
1.37242e-08
1.3259e-08
1.90665e-08
2.30914e-08
2.06073e-08
1.50836e-08
1.18727e-08
1.21151e-08
1.36416e-08
1.29168e-08
9.42404e-09
7.56871e-09
1.23454e-08
2.55795e-08
4.17858e-08
5.19131e-08
4.95401e-08
3.59559e-08
2.27315e-08
1.62722e-08
1.48316e-08
1.72372e-08
2.19229e-08
2.50824e-08
2.46215e-08
2.17802e-08
1.91597e-08
1.80673e-08
1.6941e-08
1.41403e-08
1.07269e-08
7.98902e-09
2.66951e-09
3.17028e-10
3.6592e-09
1.23977e-08
2.39893e-08
3.23791e-08
3.15408e-08
2.27176e-08
1.41133e-08
1.30567e-08
1.80472e-08
2.15098e-08
1.93323e-08
1.48878e-08
1.27556e-08
1.35031e-08
1.49159e-08
1.38233e-08
9.68744e-09
6.85796e-09
1.01929e-08
2.24673e-08
3.9572e-08
5.23771e-08
5.25521e-08
3.96161e-08
2.53774e-08
1.84995e-08
1.64402e-08
1.73092e-08
2.14594e-08
2.56616e-08
2.6221e-08
2.34797e-08
2.10558e-08
2.10376e-08
2.06606e-08
1.74337e-08
1.30105e-08
1.05035e-08
3.826e-09
2.00134e-10
2.8755e-09
1.14086e-08
2.30617e-08
3.18373e-08
3.1561e-08
2.30929e-08
1.43123e-08
1.26748e-08
1.66569e-08
1.93008e-08
1.74201e-08
1.44291e-08
1.41782e-08
1.60743e-08
1.75188e-08
1.56489e-08
1.04583e-08
6.58137e-09
8.27697e-09
1.87209e-08
3.57057e-08
5.04479e-08
5.32475e-08
4.16575e-08
2.68791e-08
1.98395e-08
1.83025e-08
1.80673e-08
2.00886e-08
2.44288e-08
2.68678e-08
2.60535e-08
2.46819e-08
2.4992e-08
2.4664e-08
2.15125e-08
1.65295e-08
1.39126e-08
5.96055e-09
5.50537e-10
1.87477e-09
1.02364e-08
2.25019e-08
3.19893e-08
3.17107e-08
2.27083e-08
1.37398e-08
1.18169e-08
1.52717e-08
1.76845e-08
1.62622e-08
1.42083e-08
1.49748e-08
1.78262e-08
1.988e-08
1.79503e-08
1.18784e-08
7.16624e-09
7.65165e-09
1.56921e-08
3.08387e-08
4.58815e-08
5.10694e-08
4.18327e-08
2.72744e-08
1.93852e-08
1.85617e-08
1.91993e-08
1.94323e-08
2.20989e-08
2.5381e-08
2.68381e-08
2.79179e-08
2.95695e-08
2.85006e-08
2.48702e-08
2.01978e-08
1.67282e-08
8.39006e-09
1.59896e-09
7.45381e-10
8.09879e-09