/*--------------------------------*- C++ -*----------------------------------*\
| =========                 |                                                 |
| \\      /  F ield         | OpenFOAM: The Open Source CFD Toolbox           |
|  \\    /   O peration     | Version:  2306                                  |
|   \\  /    A nd           | Website:  www.openfoam.com                      |
|    \\/     M anipulation  |                                                 |
\*---------------------------------------------------------------------------*/
FoamFile
{
    version     2.0;
    format      ascii;
    arch        "LSB;label=32;scalar=64";
    class       volVectorField;
    location    "5.5";
    object      UMean;
}
// * * * * * * * * * * * * * * * * * * * * * * * * * * * * * * * * * * * * * //

dimensions      [0 1 -1 0 0 0 0];

internalField   nonuniform List<vector> 
60000
(
(0.00996278 3.16484e-05 0.00197281)
(0.0101048 2.13667e-05 0.00217364)
(0.0100557 1.15276e-05 0.00226518)
(0.00988006 2.69987e-06 0.00224113)
(0.00965261 -3.80276e-06 0.00209733)
(0.00938119 -6.64196e-06 0.00184513)
(0.00902201 -6.45825e-06 0.00153794)
(0.00853183 -5.86838e-06 0.00125884)
(0.0079323 -7.87723e-06 0.00107965)
(0.00730164 -1.22325e-05 0.0010301)
(0.00670909 -1.63159e-05 0.00107515)
(0.00622261 -1.72014e-05 0.0011249)
(0.00591054 -1.60722e-05 0.00109604)
(0.0057919 -1.46605e-05 0.00096602)
(0.00583285 -1.30551e-05 0.00076092)
(0.00596021 -1.03628e-05 0.000514846)
(0.00612886 -4.11954e-06 0.000264059)
(0.00634081 3.86292e-06 2.61112e-05)
(0.00660854 1.048e-05 -0.000214426)
(0.00693652 1.44614e-05 -0.000482737)
(0.00732114 1.68578e-05 -0.000795905)
(0.00773988 1.61935e-05 -0.00114603)
(0.00816327 1.12735e-05 -0.00150309)
(0.0085451 3.53288e-06 -0.00183327)
(0.00879683 -3.73243e-06 -0.00210468)
(0.0088276 -6.99915e-06 -0.00228823)
(0.00861401 -7.27685e-06 -0.00236158)
(0.00818851 -5.93885e-06 -0.00233952)
(0.00762276 -2.75877e-06 -0.00227686)
(0.00704206 1.33365e-06 -0.0022034)
(0.00660194 3.85506e-06 -0.00208917)
(0.00639956 4.99353e-06 -0.00188595)
(0.00643784 9.65448e-06 -0.00155919)
(0.00667471 1.80458e-05 -0.00111249)
(0.00706507 2.76709e-05 -0.000592151)
(0.00755564 3.61571e-05 -5.10861e-05)
(0.00808429 4.45403e-05 0.000460041)
(0.00862286 4.94758e-05 0.000917364)
(0.00915508 4.8419e-05 0.00132765)
(0.00962699 4.13571e-05 0.00168302)
(0.0303383 0.000117829 0.00522683)
(0.0309008 6.73088e-05 0.00566062)
(0.0308696 1.96663e-05 0.00582525)
(0.0304008 -2.19825e-05 0.00574239)
(0.0296948 -4.37327e-05 0.00541321)
(0.028811 -3.85072e-05 0.00483843)
(0.0276918 -1.9396e-05 0.00411267)
(0.0262514 -1.08576e-05 0.00342793)
(0.0245314 -3.22897e-05 0.00297299)
(0.0227005 -7.82849e-05 0.00283049)
(0.0209219 -0.000125788 0.00291318)
(0.0193892 -0.000160551 0.00299494)
(0.0183122 -0.000181469 0.00287281)
(0.0177627 -0.000183675 0.00250176)
(0.0176716 -0.00016137 0.00196018)
(0.017867 -0.00011731 0.00134089)
(0.0182564 -6.14511e-05 0.000721541)
(0.0188653 -1.15217e-05 0.000120351)
(0.0197139 2.01059e-05 -0.000515272)
(0.0207812 3.11531e-05 -0.00125136)
(0.0220454 2.70639e-05 -0.00212755)
(0.0234464 7.5611e-06 -0.00311064)
(0.0248847 -2.8028e-05 -0.00409577)
(0.026192 -6.74103e-05 -0.00496533)
(0.0270847 -9.0218e-05 -0.0056199)
(0.0272866 -8.8985e-05 -0.0059996)
(0.0267191 -7.30642e-05 -0.00609897)
(0.0254598 -5.18703e-05 -0.00599886)
(0.0237279 -3.49941e-05 -0.00583576)
(0.0219154 -3.24162e-05 -0.00566815)
(0.0204817 -4.14042e-05 -0.0054225)
(0.0196977 -3.67352e-05 -0.00495242)
(0.0195885 5.81617e-06 -0.00411372)
(0.0200925 7.66085e-05 -0.0028992)
(0.0211262 0.000153496 -0.00145955)
(0.0225454 0.000220039 2.22083e-05)
(0.0241588 0.000265495 0.00139187)
(0.0258723 0.000269856 0.00259112)
(0.0276132 0.000232776 0.00364784)
(0.0291842 0.000174714 0.0045401)
(0.0513722 0.000157304 0.00763457)
(0.0525857 4.41555e-05 0.00827605)
(0.0527591 -5.41628e-05 0.00849568)
(0.0520944 -0.000131293 0.00838841)
(0.0509132 -0.000158792 0.00800032)
(0.0494068 -0.000127616 0.00730374)
(0.0476152 -7.41809e-05 0.00635507)
(0.0454242 -5.27729e-05 0.00537667)
(0.0427778 -0.000102192 0.00465224)
(0.0398152 -0.000209517 0.00434757)
(0.0367748 -0.000320124 0.00438906)
(0.0339988 -0.000404836 0.0044859)
(0.0318561 -0.000460843 0.00434004)
(0.0305095 -0.000469623 0.00384916)
(0.0299333 -0.000413396 0.00310508)
(0.0299317 -0.000300964 0.00225125)
(0.0303795 -0.000168677 0.00140658)
(0.0313033 -6.06746e-05 0.000589531)
(0.0327085 -1.02552e-06 -0.00029003)
(0.0345325 6.06259e-06 -0.00134338)
(0.036736 -2.93706e-05 -0.00264623)
(0.0392308 -0.000101126 -0.00416567)
(0.0418524 -0.000203353 -0.00573791)
(0.0443215 -0.00030364 -0.00715082)
(0.0461753 -0.00035244 -0.00821011)
(0.0469214 -0.000336499 -0.00880025)
(0.0463435 -0.000277767 -0.00892653)
(0.0444898 -0.00020091 -0.00874295)
(0.0416809 -0.00014066 -0.00848668)
(0.038539 -0.000128701 -0.00828976)
(0.0358211 -0.000150814 -0.00808255)
(0.0340317 -0.00013579 -0.00762666)
(0.0333178 -2.89775e-05 -0.00661526)
(0.0336844 0.000142446 -0.00494109)
(0.0350742 0.000324108 -0.00280206)
(0.0373028 0.000480286 -0.000517609)
(0.0400431 0.000577924 0.00162382)
(0.0430856 0.000567269 0.0034992)
(0.0462491 0.00045339 0.00515519)
(0.0491574 0.000298007 0.00656531)
(0.0721338 7.07713e-05 0.00884112)
(0.0742986 -0.000101825 0.00985128)
(0.0749614 -0.00023981 0.0102265)
(0.0743128 -0.00033596 0.0101627)
(0.0727651 -0.000347781 0.00982624)
(0.0707074 -0.00026761 0.00919763)
(0.0684176 -0.000159558 0.00824057)
(0.0658244 -0.000106591 0.0071098)
(0.0626617 -0.000169744 0.00613674)
(0.0588386 -0.000337817 0.00560604)
(0.0545695 -0.000526788 0.00553149)
(0.0503663 -0.000683715 0.00562608)
(0.0467965 -0.000800891 0.0055305)
(0.044158 -0.000841611 0.00506193)
(0.0425615 -0.000766796 0.0042735)
(0.0419084 -0.000586543 0.00333937)
(0.0420854 -0.000368556 0.00244267)
(0.0430842 -0.00019828 0.00162783)
(0.0448646 -0.000117804 0.000766846)
(0.0473119 -0.000135979 -0.000315208)
(0.0503816 -0.000239567 -0.00176529)
(0.0539781 -0.00040879 -0.00361352)
(0.0578856 -0.000620279 -0.00570144)
(0.0617491 -0.000808491 -0.00774262)
(0.0649765 -0.000883847 -0.0094112)
(0.0668451 -0.00082187 -0.010458)
(0.0669028 -0.000669841 -0.0108169)
(0.0650448 -0.000480603 -0.0106586)
(0.0615859 -0.000326663 -0.0103241)
(0.0572648 -0.000281171 -0.0100962)
(0.053057 -0.000325544 -0.010024)
(0.0497477 -0.0003274 -0.00986907)
(0.0477563 -0.000176922 -0.00916187)
(0.0472998 9.14966e-05 -0.00757139)
(0.0484535 0.000388057 -0.00518888)
(0.0511137 0.000649789 -0.0023894)
(0.054859 0.000817739 0.000393831)
(0.0593041 0.000794532 0.00290352)
(0.0640748 0.000584657 0.00517825)
(0.0685724 0.000308198 0.00721549)
(0.0909125 -0.000256075 0.0080618)
(0.0943751 -0.000437191 0.00987502)
(0.0959172 -0.000567682 0.0107667)
(0.0956804 -0.000642172 0.0109598)
(0.0940799 -0.000601055 0.0108085)
(0.0916721 -0.00044644 0.0104141)
(0.089094 -0.000269839 0.0096723)
(0.0865009 -0.000169033 0.00858693)
(0.083435 -0.000212752 0.00745209)
(0.0793673 -0.000406226 0.00667637)
(0.0742269 -0.000660927 0.0064304)
(0.0686204 -0.000900914 0.00648546)
(0.0633833 -0.00110345 0.00645345)
(0.0589974 -0.00121367 0.0060894)
(0.0557549 -0.00116658 0.00538028)
(0.0537811 -0.000960229 0.004493)
(0.0530931 -0.000682251 0.00369527)
(0.0536547 -0.000465272 0.00311743)
(0.0553283 -0.000384137 0.00262003)
(0.0579276 -0.000464567 0.00195478)
(0.0614364 -0.000701294 0.000868038)
(0.06583 -0.00105614 -0.000830655)
(0.0708954 -0.00145597 -0.00313327)
(0.0762433 -0.00177539 -0.00578178)
(0.08124 -0.00187061 -0.0083236)
(0.0849723 -0.00170169 -0.0102899)
(0.0866602 -0.00135555 -0.0114097)
(0.0858484 -0.000948048 -0.0117097)
(0.0826709 -0.000613939 -0.0115041)
(0.0778462 -0.00047286 -0.0112315)
(0.0724208 -0.000517188 -0.0112092)
(0.0673735 -0.000568358 -0.0114248)
(0.0634574 -0.000445078 -0.0114042)
(0.0612554 -0.000158183 -0.010554)
(0.0611472 0.000187371 -0.00867217)
(0.0633216 0.00050993 -0.00599739)
(0.0674563 0.000733308 -0.00299086)
(0.0730348 0.00071135 -6.401e-05)
(0.0794134 0.000423019 0.00276055)
(0.0856979 4.28995e-05 0.00554572)
(0.104852 -0.00112262 0.00391008)
(0.109966 -0.00118304 0.00709972)
(0.112894 -0.00117547 0.00925379)
(0.11378 -0.00111238 0.0103223)
(0.112835 -0.000932156 0.0107292)
(0.11057 -0.000651468 0.0107931)
(0.10797 -0.000393215 0.0104983)
(0.105706 -0.000243481 0.00970751)
(0.103402 -0.000236397 0.0085795)
(0.100037 -0.000391633 0.00760764)
(0.0949275 -0.000653003 0.00716096)
(0.0884371 -0.000955879 0.00713276)
(0.0816581 -0.00125333 0.007128)
(0.0753606 -0.0014624 0.00686917)
(0.0700169 -0.00149514 0.00628584)
(0.0660096 -0.00133058 0.00549044)
(0.0636436 -0.00105603 0.0048114)
(0.0629785 -0.000833872 0.004532)
(0.0637458 -0.000787813 0.00459028)
(0.0655804 -0.000988624 0.00471546)
(0.0684488 -0.00146815 0.0045787)
(0.0725407 -0.00217651 0.00380516)
(0.0779004 -0.0029643 0.00209068)
(0.0843249 -0.00357272 -0.000612472)
(0.091219 -0.0037245 -0.00390959)
(0.097503 -0.00336767 -0.00709745)
(0.10209 -0.00267252 -0.00962195)
(0.103983 -0.00183964 -0.0112204)
(0.102708 -0.00111693 -0.0118571)
(0.0987249 -0.000727749 -0.0118343)
(0.0931218 -0.000680088 -0.0117534)
(0.0869517 -0.00075002 -0.0120908)
(0.0811572 -0.000700747 -0.0127304)
(0.0766502 -0.000505864 -0.0130229)
(0.0741533 -0.000267903 -0.0124052)
(0.0743448 -4.24172e-05 -0.0107859)
(0.0773066 0.000113402 -0.00845745)
(0.0827119 1.42833e-05 -0.00584617)
(0.089917 -0.000386862 -0.00298607)
(0.0977882 -0.00084929 0.000324676)
(0.111119 -0.00284321 -0.00394716)
(0.117643 -0.00262046 0.00059977)
(0.121946 -0.00230154 0.00457592)
(0.124555 -0.00200106 0.00736313)
(0.125617 -0.0015517 0.0090688)
(0.12474 -0.000986214 0.0100559)
(0.122723 -0.000551276 0.0104888)
(0.120981 -0.000349598 0.0102767)
(0.119899 -0.000300658 0.0093966)
(0.118279 -0.000344606 0.00835421)
(0.114611 -0.000501323 0.00773517)
(0.108536 -0.000784356 0.00759143)
(0.101037 -0.00115371 0.00756308)
(0.0932261 -0.00146722 0.00737945)
(0.0858334 -0.0016046 0.0069423)
(0.0794454 -0.00153474 0.00625412)
(0.0747271 -0.00133226 0.00559564)
(0.0720958 -0.00116058 0.00537378)
(0.0713139 -0.00118707 0.00568806)
(0.0717537 -0.00156684 0.00638031)
(0.0731513 -0.0024079 0.00720437)
(0.0758258 -0.00363822 0.00773799)
(0.0801178 -0.0049999 0.00744012)
(0.0861137 -0.00607552 0.00585697)
(0.0936637 -0.00642534 0.00291554)
(0.101861 -0.00591078 -0.000848182)
(0.109381 -0.00482329 -0.00467518)
(0.114982 -0.00348282 -0.00803388)
(0.117533 -0.00218162 -0.0104389)
(0.116469 -0.00126257 -0.0115426)
(0.11244 -0.000869548 -0.0117258)
(0.10663 -0.000795527 -0.0119324)
(0.100153 -0.000745522 -0.012755)
(0.0940391 -0.000664193 -0.0139899)
(0.0891426 -0.000672067 -0.0149488)
(0.0865098 -0.000759238 -0.0150632)
(0.0867538 -0.000879378 -0.0142702)
(0.0898444 -0.00124019 -0.0129157)
(0.0954802 -0.00193714 -0.010992)
(0.103067 -0.00261624 -0.00804725)
(0.112677 -0.00521661 -0.0123328)
(0.119232 -0.00469317 -0.00721303)
(0.123998 -0.00390864 -0.00188281)
(0.127174 -0.00329957 0.00258663)
(0.12976 -0.00261312 0.00579748)
(0.131223 -0.00168854 0.00796504)
(0.130865 -0.000911294 0.00932365)
(0.129811 -0.000563418 0.00986102)
(0.129529 -0.000522991 0.00950907)
(0.130143 -0.000524018 0.00860329)
(0.129585 -0.000467267 0.00793537)
(0.126047 -0.000512197 0.00775279)
(0.119717 -0.000782144 0.00769723)
(0.111712 -0.00114539 0.00756089)
(0.103091 -0.00139457 0.00733172)
(0.0946943 -0.00144187 0.0068846)
(0.0875163 -0.00135563 0.00627775)
(0.0825819 -0.00128787 0.00588528)
(0.0801336 -0.00140478 0.00597126)
(0.0794974 -0.00192268 0.0066033)
(0.0799417 -0.003066 0.00778062)
(0.081397 -0.00478826 0.00928201)
(0.084222 -0.00670487 0.0104883)
(0.0886808 -0.00828411 0.0105878)
(0.0949618 -0.00897369 0.00904136)
(0.102765 -0.00851385 0.00594827)
(0.110856 -0.00720402 0.00192692)
(0.117895 -0.00551735 -0.00242081)
(0.122954 -0.00379381 -0.00645853)
(0.125266 -0.00236708 -0.0092972)
(0.124644 -0.00148888 -0.0104907)
(0.121501 -0.00101092 -0.0107739)
(0.116639 -0.00067248 -0.0113345)
(0.111079 -0.000451343 -0.0127918)
(0.105534 -0.000568857 -0.0149331)
(0.101025 -0.00105379 -0.0169127)
(0.0986884 -0.00165798 -0.0180413)
(0.0989133 -0.00245884 -0.0183501)
(0.101426 -0.00364071 -0.0178666)
(0.106114 -0.00481406 -0.016027)
(0.115818 -0.00742817 -0.0178231)
(0.120679 -0.00695309 -0.0130307)
(0.125107 -0.00575321 -0.00723686)
(0.128062 -0.0047646 -0.00189049)
(0.13034 -0.00392058 0.00218121)
(0.132611 -0.00275649 0.00500264)
(0.133849 -0.00153254 0.0069414)
(0.133593 -0.000900512 0.00806106)
(0.133106 -0.00090379 0.00823494)
(0.133821 -0.00109548 0.00768708)
(0.135559 -0.00103823 0.00715289)
(0.135874 -0.000795508 0.0071262)
(0.13314 -0.0006977 0.00723547)
(0.127634 -0.000802887 0.00722347)
(0.120118 -0.000943377 0.00728387)
(0.111311 -0.00101875 0.00732555)
(0.102432 -0.0010655 0.00708069)
(0.0952831 -0.00117269 0.00668931)
(0.0910758 -0.00144017 0.00646846)
(0.0895564 -0.00204095 0.00669738)
(0.0896588 -0.00328527 0.00763605)
(0.0906216 -0.0052568 0.00933986)
(0.0923781 -0.00753815 0.0113432)
(0.0951765 -0.00951401 0.0127181)
(0.0994915 -0.010584 0.0125267)
(0.105455 -0.0103989 0.0104973)
(0.112072 -0.00909197 0.007041)
(0.117703 -0.00719926 0.00281196)
(0.121524 -0.00517001 -0.00156918)
(0.123421 -0.00339139 -0.00513902)
(0.123479 -0.00212909 -0.00706565)
(0.122131 -0.00128023 -0.00752058)
(0.120071 -0.000624654 -0.00763504)
(0.118023 -0.00016884 -0.00867438)
(0.116043 -0.000166218 -0.0112063)
(0.113795 -0.000776985 -0.0146261)
(0.111668 -0.00175651 -0.017727)
(0.110604 -0.00299874 -0.019865)
(0.110913 -0.00467435 -0.020919)
(0.112489 -0.0064684 -0.0204712)
(0.121902 -0.00858618 -0.0198396)
(0.124085 -0.00865197 -0.0163153)
(0.127489 -0.00743035 -0.0110786)
(0.130397 -0.00613866 -0.00558454)
(0.132214 -0.00516982 -0.00110697)
(0.133799 -0.00400719 0.00196669)
(0.135431 -0.00249277 0.00402259)
(0.136249 -0.0013371 0.00540406)
(0.135893 -0.00114627 0.00600368)
(0.135562 -0.00164274 0.00585167)
(0.136713 -0.00201694 0.00560697)
(0.138775 -0.00186248 0.00587291)
(0.13929 -0.00152872 0.00634926)
(0.137092 -0.00131669 0.00657336)
(0.132734 -0.00110549 0.00683666)
(0.126439 -0.000793698 0.00735365)
(0.118268 -0.000616544 0.00774896)
(0.109928 -0.000810658 0.00780632)
(0.103896 -0.00132511 0.00765418)
(0.101112 -0.00209724 0.00755759)
(0.100755 -0.00338755 0.00790757)
(0.101559 -0.00539693 0.00903867)
(0.102794 -0.00780008 0.0108248)
(0.104399 -0.00994699 0.0125405)
(0.106793 -0.011233 0.0131967)
(0.110379 -0.0112872 0.012155)
(0.114577 -0.0100664 0.00947676)
(0.117901 -0.0080778 0.0057795)
(0.1196 -0.00583269 0.00172555)
(0.119738 -0.00375699 -0.00173531)
(0.11848 -0.00220243 -0.00355914)
(0.116522 -0.00113502 -0.00357207)
(0.115221 -0.000377325 -0.00272258)
(0.11569 0.000132318 -0.00259183)
(0.117565 0.000252911 -0.00447)
(0.119537 -0.000221357 -0.0083081)
(0.120715 -0.0012548 -0.0128285)
(0.121094 -0.00270533 -0.0168038)
(0.121246 -0.00465824 -0.0196229)
(0.121299 -0.00692746 -0.0208483)
(0.129017 -0.00839515 -0.0192705)
(0.128957 -0.00930003 -0.0176263)
(0.130553 -0.00862757 -0.0138478)
(0.13319 -0.00736278 -0.00901287)
(0.135298 -0.00628145 -0.0044144)
(0.136343 -0.00521366 -0.0010012)
(0.137169 -0.00371849 0.00123341)
(0.13811 -0.00217004 0.00278398)
(0.138625 -0.00140628 0.0037752)
(0.138291 -0.00177101 0.0040738)
(0.138254 -0.0026042 0.00409628)
(0.139921 -0.00296 0.00457534)
(0.142237 -0.00271225 0.00546165)
(0.142654 -0.00237491 0.00607489)
(0.140639 -0.00204329 0.00644935)
(0.137082 -0.00138858 0.00711883)
(0.131783 -0.000579372 0.00797351)
(0.12464 -0.000337622 0.00857792)
(0.117806 -0.000944871 0.00877974)
(0.113677 -0.00207847 0.00863796)
(0.112517 -0.0036216 0.00842239)
(0.113142 -0.00569692 0.00856589)
(0.114263 -0.0080123 0.00936122)
(0.115208 -0.00996036 0.0106081)
(0.116024 -0.0110901 0.0116091)
(0.11714 -0.0111101 0.0115103)
(0.118505 -0.00988905 0.00990748)
(0.119456 -0.00786119 0.00707816)
(0.11947 -0.00560183 0.00357271)
(0.118755 -0.00342885 0.000221286)
(0.117129 -0.00165862 -0.0016881)
(0.114722 -0.000467499 -0.00147737)
(0.113067 0.000191527 0.000155754)
(0.113817 0.000537657 0.00162339)
(0.117053 0.000651361 0.00127672)
(0.121312 0.000364587 -0.00150267)
(0.125243 -0.000477905 -0.00594934)
(0.127924 -0.00181556 -0.0108532)
(0.129292 -0.00373245 -0.0152567)
(0.129535 -0.00616854 -0.0183344)
(0.135778 -0.00704332 -0.0171501)
(0.134948 -0.00873729 -0.0173536)
(0.134827 -0.00907553 -0.0153087)
(0.136223 -0.00837326 -0.0117227)
(0.138184 -0.00736382 -0.007504)
(0.139249 -0.00630399 -0.00377874)
(0.139263 -0.00495525 -0.00115502)
(0.139355 -0.00337471 0.000693493)
(0.139922 -0.00219636 0.0020618)
(0.140261 -0.00206868 0.00280912)
(0.140003 -0.00290406 0.00306291)
(0.140559 -0.00379999 0.00351451)
(0.142811 -0.0039759 0.00447835)
(0.144992 -0.00359142 0.00537918)
(0.145025 -0.00308346 0.00584891)
(0.143106 -0.00231887 0.00642899)
(0.140124 -0.00112093 0.00742585)
(0.135765 -0.000165275 0.00832347)
(0.130296 -0.000328312 0.00861542)
(0.125918 -0.00163966 0.00831352)
(0.124207 -0.00358891 0.00764335)
(0.124527 -0.00595488 0.006879)
(0.125411 -0.00828727 0.00654388)
(0.125928 -0.0098871 0.00708373)
(0.125821 -0.0104675 0.00830836)
(0.125138 -0.0100642 0.00928382)
(0.124014 -0.0087105 0.0090493)
(0.122635 -0.00669674 0.00739158)
(0.121181 -0.00457557 0.00459507)
(0.119965 -0.00261816 0.0012795)
(0.118808 -0.000875944 -0.00126211)
(0.117192 0.000412931 -0.00183571)
(0.115748 0.00101445 -0.000528046)
(0.116058 0.0011236 0.00141569)
(0.118783 0.00107811 0.00247698)
(0.123156 0.000903106 0.00161224)
(0.127964 0.000298485 -0.00122118)
(0.132014 -0.000779752 -0.00541499)
(0.134613 -0.00239888 -0.0101751)
(0.135861 -0.00463548 -0.0144932)
(0.141745 -0.00535638 -0.0147593)
(0.141424 -0.00739916 -0.0162089)
(0.14044 -0.00873199 -0.0155721)
(0.140076 -0.00895095 -0.01326)
(0.140754 -0.00825947 -0.00976465)
(0.141501 -0.00713937 -0.0060203)
(0.141288 -0.00585936 -0.00298104)
(0.140619 -0.00447867 -0.000720311)
(0.140681 -0.0032432 0.00104756)
(0.141251 -0.00273788 0.00220753)
(0.14141 -0.00329696 0.0026776)
(0.14139 -0.00444827 0.0029465)
(0.142489 -0.00516208 0.00362514)
(0.144433 -0.00499757 0.00449733)
(0.145291 -0.00426035 0.00505587)
(0.144102 -0.00321726 0.00551417)
(0.141765 -0.00183478 0.00629189)
(0.139134 -0.000465735 0.00699165)
(0.136066 1.00385e-05 0.00685279)
(0.133175 -0.000936096 0.00588588)
(0.132039 -0.00286938 0.00457653)
(0.132678 -0.00526241 0.00315827)
(0.133548 -0.00767216 0.00217062)
(0.133681 -0.00929827 0.00247754)
(0.133199 -0.00958387 0.00420795)
(0.132056 -0.00860764 0.00636463)
(0.129869 -0.00684341 0.0075518)
(0.126915 -0.00471349 0.00710157)
(0.124185 -0.00270113 0.00512102)
(0.122459 -0.00106249 0.00195626)
(0.121735 0.000283597 -0.00135513)
(0.121297 0.00135945 -0.00331699)
(0.120844 0.00187142 -0.00332117)
(0.121062 0.00175052 -0.00195512)
(0.122836 0.00139101 -0.000384972)
(0.126318 0.00106172 0.000206901)
(0.130778 0.000588154 -0.000808461)
(0.135054 -0.000217919 -0.00342957)
(0.138332 -0.0014457 -0.00723418)
(0.14061 -0.0032242 -0.0114132)
(0.147219 -0.00419632 -0.0130453)
(0.147993 -0.0058606 -0.0149656)
(0.146805 -0.00753277 -0.0154016)
(0.144842 -0.0085058 -0.0141904)
(0.143607 -0.00837547 -0.0113683)
(0.143304 -0.00739686 -0.0077164)
(0.142901 -0.00617752 -0.0044365)
(0.142005 -0.00500346 -0.00182862)
(0.141575 -0.00393746 0.000384807)
(0.142099 -0.00321883 0.00205309)
(0.142736 -0.00337446 0.00283304)
(0.142834 -0.00441398 0.00296044)
(0.142786 -0.00545649 0.00320722)
(0.142878 -0.00558589 0.00390762)
(0.142255 -0.00483822 0.00466856)
(0.140175 -0.0037117 0.00520089)
(0.137365 -0.00236796 0.00556297)
(0.135036 -0.000924142 0.00554123)
(0.133393 -0.000107917 0.00470703)
(0.132346 -0.000633763 0.00312934)
(0.132848 -0.00234758 0.00128739)
(0.135259 -0.00444104 -0.000505978)
(0.137697 -0.00657874 -0.00153201)
(0.138405 -0.00824964 -0.000820706)
(0.13769 -0.00861459 0.00161325)
(0.136412 -0.0073458 0.0046047)
(0.134411 -0.00507233 0.00663622)
(0.131389 -0.00266936 0.00685189)
(0.128376 -0.000690933 0.00538799)
(0.126653 0.000673958 0.00252772)
(0.126516 0.00157636 -0.00117196)
(0.127283 0.00224824 -0.00445329)
(0.128122 0.00256871 -0.00614655)
(0.128908 0.0022651 -0.00602713)
(0.130157 0.00152574 -0.00478664)
(0.132446 0.000798886 -0.00362003)
(0.135738 0.000240253 -0.00343145)
(0.139246 -0.000404249 -0.00454375)
(0.1423 -0.00135812 -0.00692861)
(0.144978 -0.00268503 -0.0100697)
(0.150606 -0.00326376 -0.0112574)
(0.152819 -0.00425335 -0.0134239)
(0.15275 -0.00563968 -0.0146705)
(0.150522 -0.00698719 -0.014465)
(0.147988 -0.00745878 -0.0123859)
(0.146419 -0.0069005 -0.00898669)
(0.145418 -0.00588533 -0.00557907)
(0.144251 -0.00490518 -0.00272008)
(0.143274 -0.00401513 -0.000142246)
(0.143238 -0.00324715 0.0020402)
(0.1438 -0.00298927 0.00328027)
(0.143933 -0.00359421 0.00344204)
(0.143133 -0.00457561 0.0032188)
(0.141477 -0.00494033 0.00332338)
(0.139055 -0.00437314 0.00365882)
(0.135909 -0.00337071 0.00367586)
(0.132713 -0.00225055 0.00319575)
(0.130485 -0.0010594 0.00237064)
(0.129725 -0.000304837 0.00121756)
(0.13037 -0.000690921 -0.000176732)
(0.132653 -0.00227715 -0.00149662)
(0.136723 -0.00422771 -0.0024388)
(0.140739 -0.00597106 -0.00248259)
(0.142325 -0.00738286 -0.000986788)
(0.1414 -0.00785699 0.00185141)
(0.139483 -0.00669389 0.00492929)
(0.137306 -0.00414716 0.00692737)
(0.134397 -0.001364 0.00714032)
(0.131148 0.000710223 0.00586332)
(0.129003 0.00185225 0.00354297)
(0.128793 0.00232781 0.00039995)
(0.130123 0.00245533 -0.00293318)
(0.131938 0.00234776 -0.00527489)
(0.133554 0.00188024 -0.00587878)
(0.135052 0.00103337 -0.00520181)
(0.136944 0.000161494 -0.00440013)
(0.139508 -0.000332186 -0.00419585)
(0.1424 -0.000653346 -0.00473404)
(0.145111 -0.00126778 -0.00622701)
(0.147728 -0.00228064 -0.00862095)
(0.150269 -0.00224299 -0.00877928)
(0.154033 -0.00283525 -0.0113344)
(0.156313 -0.00374605 -0.0132098)
(0.155778 -0.00495704 -0.0139559)
(0.153353 -0.00572055 -0.0129169)
(0.150992 -0.00559538 -0.010152)
(0.149264 -0.00492071 -0.00672117)
(0.147572 -0.0041727 -0.00353021)
(0.145827 -0.00341558 -0.000670042)
(0.144793 -0.00263014 0.00184803)
(0.144641 -0.00214883 0.00362021)
(0.144589 -0.00235664 0.0042392)
(0.143778 -0.00305277 0.00388384)
(0.141973 -0.00344928 0.00313026)
(0.139509 -0.00309398 0.00234395)
(0.136773 -0.0023354 0.00144681)
(0.134226 -0.00152614 0.000257592)
(0.132501 -0.000688092 -0.00104492)
(0.132249 -0.00013814 -0.00219088)
(0.133662 -0.000612981 -0.00298616)
(0.136426 -0.00226931 -0.00328672)
(0.140265 -0.00434593 -0.00310078)
(0.1439 -0.00583548 -0.00236008)
(0.145397 -0.00669663 -0.000656785)
(0.144355 -0.00688239 0.00215149)
(0.142017 -0.00589556 0.00524642)
(0.139297 -0.00354318 0.00738928)
(0.135896 -0.000572038 0.00792528)
(0.13184 0.00179319 0.00724018)
(0.12849 0.0029042 0.00584601)
(0.127038 0.00301011 0.00373459)
(0.127526 0.00267482 0.00121723)
(0.129123 0.00218052 -0.000683496)
(0.131007 0.0015119 -0.00114708)
(0.132945 0.000668721 -0.000699214)
(0.135016 -8.618e-05 -0.000512995)
(0.137441 -0.00042246 -0.00100051)
(0.140299 -0.000496837 -0.00192677)
(0.143409 -0.000816579 -0.00347721)
(0.146631 -0.00151973 -0.00592123)
(0.148535 -0.000568147 -0.00555754)
(0.153218 -0.00106698 -0.00836578)
(0.157371 -0.00175852 -0.0107619)
(0.15919 -0.00270753 -0.0123035)
(0.158249 -0.00345525 -0.0123447)
(0.155946 -0.00360235 -0.010605)
(0.153531 -0.003304 -0.00774556)
(0.151067 -0.00287809 -0.00461834)
(0.148453 -0.00233788 -0.00159361)
(0.14629 -0.00166146 0.00119749)
(0.145026 -0.00121062 0.00338687)
(0.144236 -0.00129853 0.00448815)
(0.143196 -0.00178222 0.0044331)
(0.141665 -0.00210115 0.00353276)
(0.13997 -0.00192182 0.00224831)
(0.138365 -0.00146337 0.000976723)
(0.137017 -0.000997766 -0.000195297)
(0.136278 -0.000500361 -0.00132233)
(0.136571 -8.84803e-05 -0.00227763)
(0.137964 -0.000408376 -0.00278704)
(0.139964 -0.00185259 -0.00266082)
(0.142318 -0.0037949 -0.00204691)
(0.144585 -0.00510897 -0.00108922)
(0.145724 -0.00550367 0.000487272)
(0.145273 -0.00523751 0.00285365)
(0.143685 -0.00419818 0.00541585)
(0.141365 -0.00219662 0.00733616)
(0.138061 0.000464948 0.00821701)
(0.133774 0.00272523 0.00817663)
(0.129671 0.00369487 0.00745273)
(0.127106 0.00335243 0.00607132)
(0.12648 0.00227913 0.00431967)
(0.127377 0.00107019 0.0028784)
(0.129175 9.40827e-05 0.00237699)
(0.131409 -0.000544041 0.0025963)
(0.133669 -0.000792393 0.00260641)
(0.135837 -0.000585056 0.00188474)
(0.138234 -0.000120778 0.000699449)
(0.141102 0.000104453 -0.000768451)
(0.144478 -0.000107435 -0.00284689)
(0.147154 0.00156741 -0.00252697)
(0.15187 0.000965904 -0.00516883)
(0.156533 0.000151646 -0.00774139)
(0.159662 -0.000689909 -0.00993046)
(0.160427 -0.00114671 -0.0110976)
(0.159318 -0.00118174 -0.0105891)
(0.157092 -0.00113334 -0.00859525)
(0.154046 -0.00115552 -0.00589061)
(0.150506 -0.000975047 -0.00303759)
(0.147247 -0.000453309 -0.000187351)
(0.144849 9.50629e-06 0.0023624)
(0.143212 -3.7827e-05 0.00397328)
(0.141951 -0.000441642 0.0043212)
(0.140971 -0.000737874 0.00368521)
(0.140437 -0.000784019 0.0025894)
(0.140199 -0.000830188 0.00150604)
(0.139936 -0.00103309 0.000665277)
(0.139685 -0.00112883 0.000105852)
(0.139837 -0.000992319 -8.87037e-05)
(0.140588 -0.00117808 0.000191162)
(0.141538 -0.00227645 0.00100503)
(0.142389 -0.00378448 0.00210585)
(0.143265 -0.00461229 0.00311492)
(0.143978 -0.00436311 0.00412087)
(0.144036 -0.00351506 0.00545751)
(0.14308 -0.00238385 0.00681669)
(0.141039 -0.000830499 0.00768734)
(0.137954 0.00124327 0.00799291)
(0.134047 0.00328801 0.00802045)
(0.130149 0.00448121 0.00787695)
(0.12733 0.00440543 0.00734168)
(0.126207 0.00334057 0.00649305)
(0.126766 0.00201103 0.00585487)
(0.128567 0.00102063 0.00576461)
(0.130976 0.000556381 0.00594361)
(0.133395 0.000534995 0.00572897)
(0.135579 0.000912026 0.00480191)
(0.13771 0.00151028 0.00341197)
(0.140154 0.00191881 0.00179734)
(0.143227 0.00192391 -0.000145495)
(0.1471 0.00227094 -0.000520233)
(0.15096 0.00166401 -0.00284688)
(0.15491 0.000952642 -0.00526258)
(0.158126 0.000231228 -0.00750782)
(0.160085 -7.54499e-05 -0.00916038)
(0.160751 0.000270512 -0.00971046)
(0.160053 0.000846733 -0.00901317)
(0.157818 0.00101557 -0.0073938)
(0.154373 0.000767551 -0.00525025)
(0.150668 0.00056837 -0.00280355)
(0.147542 0.000545759 -0.000270529)
(0.145286 0.000370085 0.00184584)
(0.14395 1.60813e-05 0.00307422)
(0.143595 -0.000242495 0.00337612)
(0.144166 -0.000385505 0.00309133)
(0.14513 -0.000625989 0.00273705)
(0.145811 -0.000920712 0.00273192)
(0.145997 -0.000952256 0.00309393)
(0.145995 -0.000643706 0.00347849)
(0.146035 -0.000465353 0.00354956)
(0.145808 -0.000975939 0.00364774)
(0.145157 -0.00198378 0.00427444)
(0.144633 -0.00258812 0.00513599)
(0.144514 -0.00216207 0.00547467)
(0.14429 -0.000977828 0.00535528)
(0.143291 0.000360728 0.0053457)
(0.141328 0.00179525 0.00569832)
(0.138545 0.00357136 0.00608289)
(0.135121 0.00544155 0.00615118)
(0.131615 0.00655903 0.00598173)
(0.128905 0.00642923 0.00570781)
(0.127672 0.0053543 0.00538927)
(0.128116 0.00406973 0.00518463)
(0.129891 0.00310763 0.00524243)
(0.13239 0.00263381 0.00554366)
(0.134929 0.00257956 0.00581307)
(0.137182 0.00281266 0.00561117)
(0.139229 0.003096 0.00472988)
(0.141363 0.00310951 0.00331039)
(0.143897 0.00279004 0.00154434)
(0.145906 0.000923996 0.000795953)
(0.149322 0.000202075 -0.00114008)
(0.152767 -0.000250546 -0.00314516)
(0.15558 -0.000619656 -0.00518464)
(0.157358 -0.000725714 -0.00696638)
(0.158267 -0.000193268 -0.008029)
(0.158578 0.000874962 -0.00813341)
(0.158131 0.0018666 -0.00741286)
(0.156573 0.00226847 -0.00615226)
(0.154032 0.00204005 -0.00453153)
(0.15124 0.00131407 -0.00261855)
(0.148899 0.000101549 -0.000621623)
(0.147415 -0.00148045 0.00107417)
(0.146954 -0.00291744 0.00217317)
(0.147403 -0.00384043 0.00269404)
(0.148253 -0.00432535 0.00290167)
(0.148833 -0.00445506 0.0032)
(0.148871 -0.00396973 0.00364039)
(0.148494 -0.00274977 0.00375855)
(0.147822 -0.00125717 0.00312357)
(0.146698 -0.000141156 0.00202393)
(0.145254 0.00028807 0.00137705)
(0.144105 0.000284361 0.00147456)
(0.14356 0.000447806 0.00169793)
(0.143268 0.00108539 0.00167558)
(0.142903 0.00199341 0.00177088)
(0.142465 0.00306808 0.00228917)
(0.141875 0.00457147 0.00283197)
(0.140679 0.00654886 0.00284675)
(0.138804 0.008242 0.00241273)
(0.136907 0.0087824 0.00199698)
(0.135727 0.00809755 0.00179262)
(0.135491 0.00679811 0.00179516)
(0.135842 0.00549068 0.00209608)
(0.136409 0.00446279 0.00282488)
(0.137033 0.00379986 0.0038746)
(0.13782 0.0035142 0.00475422)
(0.138986 0.00336595 0.00487694)
(0.140692 0.00288405 0.00408022)
(0.142995 0.00193903 0.00260299)
(0.145735 -0.000926141 0.00449205)
(0.14787 -0.00128161 0.00244093)
(0.149717 -0.00100288 4.9274e-05)
(0.150971 -0.00039035 -0.00245625)
(0.151372 0.000335844 -0.00475589)
(0.150925 0.00115304 -0.0065177)
(0.149982 0.00200594 -0.00754905)
(0.149107 0.00266138 -0.00777195)
(0.148739 0.00288226 -0.00722707)
(0.148955 0.00254889 -0.00609403)
(0.1495 0.00168384 -0.00466022)
(0.150021 0.000323815 -0.00312831)
(0.150454 -0.00141788 -0.00150239)
(0.15095 -0.0032022 0.000238952)
(0.151562 -0.00457527 0.00192374)
(0.152032 -0.00529888 0.00326013)
(0.151886 -0.00535718 0.00415043)
(0.150954 -0.00478838 0.00467863)
(0.149482 -0.00369537 0.00477999)
(0.147883 -0.00235753 0.004181)
(0.146353 -0.00114447 0.00286442)
(0.145026 -0.000310444 0.00146178)
(0.144175 1.71228e-05 0.000675139)
(0.143929 -4.68337e-06 0.00060001)
(0.144097 3.67159e-05 0.000968766)
(0.144541 0.000510651 0.0015538)
(0.145236 0.00152299 0.00214814)
(0.145977 0.00305525 0.00232583)
(0.146316 0.00497662 0.00164762)
(0.146047 0.00676039 0.000173245)
(0.145444 0.00769882 -0.00155642)
(0.144873 0.00760966 -0.00292168)
(0.144378 0.00688791 -0.00351073)
(0.143757 0.00594803 -0.00306108)
(0.14288 0.00492406 -0.0014987)
(0.141905 0.00387526 0.000983678)
(0.141217 0.00293711 0.00374366)
(0.1412 0.00211696 0.00581393)
(0.142058 0.00117531 0.00655583)
(0.143672 3.35466e-05 0.00597451)
(0.153168 0.000552998 0.00643147)
(0.155004 0.000534266 0.00605323)