/*--------------------------------*- C++ -*----------------------------------*\
| =========                 |                                                 |
| \\      /  F ield         | OpenFOAM: The Open Source CFD Toolbox           |
|  \\    /   O peration     | Version:  2306                                  |
|   \\  /    A nd           | Website:  www.openfoam.com                      |
|    \\/     M anipulation  |                                                 |
\*---------------------------------------------------------------------------*/
FoamFile
{
    version     2.0;
    format      ascii;
    arch        "LSB;label=32;scalar=64";
    class       volScalarField;
    location    "8.5";
    object      nut;
}
// * * * * * * * * * * * * * * * * * * * * * * * * * * * * * * * * * * * * * //

dimensions      [0 2 -1 0 0 0 0];

internalField   nonuniform List<scalar> 
60000
(
5.99871e-05
6.34239e-05
6.81e-05
7.36923e-05
7.94774e-05
8.40003e-05
8.54611e-05
8.34958e-05
7.96959e-05
7.59472e-05
7.31008e-05
7.09773e-05
6.89124e-05
6.61545e-05
6.22763e-05
5.76524e-05
5.35228e-05
5.09442e-05
5.0037e-05
5.02604e-05
5.11892e-05
5.2775e-05
5.51324e-05
5.78909e-05
6.07328e-05
6.37293e-05
6.68996e-05
7.04423e-05
7.4777e-05
7.91301e-05
8.11552e-05
7.97604e-05
7.5953e-05
7.10513e-05
6.57611e-05
6.08993e-05
5.73613e-05
5.5748e-05
5.60378e-05
5.75516e-05
5.8881e-05
6.28198e-05
6.79115e-05
7.36503e-05
7.95152e-05
8.45304e-05
8.70089e-05
8.59156e-05
8.21866e-05
7.80296e-05
7.50251e-05
7.3191e-05
7.16193e-05
6.93301e-05
6.58962e-05
6.17464e-05
5.76863e-05
5.43545e-05
5.21933e-05
5.12949e-05
5.14774e-05
5.25108e-05
5.42122e-05
5.63783e-05
5.90745e-05
6.24858e-05
6.66392e-05
7.15091e-05
7.69925e-05
8.1747e-05
8.36515e-05
8.21712e-05
7.84595e-05
7.40367e-05
6.97297e-05
6.5588e-05
6.135e-05
5.76493e-05
5.58386e-05
5.6385e-05
5.53132e-05
5.86604e-05
6.33664e-05
6.89794e-05
7.50569e-05
8.13933e-05
8.63997e-05
8.78004e-05
8.50169e-05
8.02857e-05
7.64942e-05
7.45308e-05
7.35309e-05
7.2298e-05
7.01793e-05
6.71223e-05
6.31838e-05
5.85782e-05
5.42496e-05
5.1322e-05
5.01316e-05
5.02639e-05
5.12e-05
5.2781e-05
5.51909e-05
5.86456e-05
6.3039e-05
6.80372e-05
7.36823e-05
7.93021e-05
8.29012e-05
8.33155e-05
8.11509e-05
7.79851e-05
7.48553e-05
7.1532e-05
6.67842e-05
6.06768e-05
5.56911e-05
5.39729e-05
5.06193e-05
5.19212e-05
5.51398e-05
5.99416e-05
6.58323e-05
7.31117e-05
8.12867e-05
8.69114e-05
8.69407e-05
8.23814e-05
7.74418e-05
7.48311e-05
7.42398e-05
7.42307e-05
7.38258e-05
7.25304e-05
6.96551e-05
6.45036e-05
5.78084e-05
5.17927e-05
4.80987e-05
4.66214e-05
4.65064e-05
4.72824e-05
4.90247e-05
5.18927e-05
5.56645e-05
5.9514e-05
6.37286e-05
6.95875e-05
7.5956e-05
8.03012e-05
8.16252e-05
8.07841e-05
7.92361e-05
7.7334e-05
7.3511e-05
6.63088e-05
5.78255e-05
5.2186e-05
4.79668e-05
4.55593e-05
4.55917e-05
4.77885e-05
5.18125e-05
5.8029e-05
6.79541e-05
7.87766e-05
8.44744e-05
8.25413e-05
7.70279e-05
7.32903e-05
7.26864e-05
7.36752e-05
7.48018e-05
7.55253e-05
7.50308e-05
7.15214e-05
6.41531e-05
5.49683e-05
4.73265e-05
4.27881e-05
4.08245e-05
4.03472e-05
4.08865e-05
4.25636e-05
4.53071e-05
4.76773e-05
4.91416e-05
5.24601e-05
5.9631e-05
6.88187e-05
7.5799e-05
7.92979e-05
8.02745e-05
8.01953e-05
7.87186e-05
7.33117e-05
6.35946e-05
5.39178e-05
5.13395e-05
4.52636e-05
4.11723e-05
3.92111e-05
3.96148e-05
4.20624e-05
4.70856e-05
5.86694e-05
7.19452e-05
7.68374e-05
7.32924e-05
6.87385e-05
6.77842e-05
6.9481e-05
7.15264e-05
7.35661e-05
7.59412e-05
7.66302e-05
7.24486e-05
6.29097e-05
5.13485e-05
4.18767e-05
3.62992e-05
3.37292e-05
3.27586e-05
3.31305e-05
3.51816e-05
3.7864e-05
3.8404e-05
3.97158e-05
4.39374e-05
4.93563e-05
5.96202e-05
6.94718e-05
7.49777e-05
7.70774e-05
7.80456e-05
7.67916e-05
7.03698e-05
6.02909e-05
5.86583e-05
5.33361e-05
4.69023e-05
3.88156e-05
3.38571e-05
3.50935e-05
3.96775e-05
4.05839e-05
4.68606e-05
5.95375e-05
6.24197e-05
5.87299e-05
5.77013e-05
6.05691e-05
6.35175e-05
6.53279e-05
6.8864e-05
7.45386e-05
7.7584e-05
7.35088e-05
6.22691e-05
4.80667e-05
3.67255e-05
3.06154e-05
2.79572e-05
2.70367e-05
2.79897e-05
3.18842e-05
3.54457e-05
3.16562e-05
3.47464e-05
4.12701e-05
4.13697e-05
4.93091e-05
6.0459e-05
6.60369e-05
6.84346e-05
7.07244e-05
7.02629e-05
6.51208e-05
5.73493e-05
5.86366e-05
5.8165e-05
4.97142e-05
3.59205e-05
2.75711e-05
3.18463e-05
4.1072e-05
3.73129e-05
3.51699e-05
4.31296e-05
4.18143e-05
3.99485e-05
4.47292e-05
5.0499e-05
5.18703e-05
5.27543e-05
6.0081e-05
7.13148e-05
7.84773e-05
7.56202e-05
6.22672e-05
4.512e-05
3.32807e-05
2.80424e-05
2.62576e-05
2.61922e-05
2.94931e-05
3.8097e-05
4.22929e-05
2.88419e-05
3.03593e-05
3.85426e-05
3.42437e-05
3.97156e-05
4.56767e-05
4.40871e-05
4.54957e-05
5.18435e-05
5.628e-05
3.59579e-05
4.48447e-05
5.46881e-05
5.82767e-05
4.81731e-05
3.17088e-05
2.06653e-05
2.63559e-05
3.86237e-05
3.14419e-05
2.63916e-05
2.92933e-05
2.34747e-05
2.45811e-05
3.27188e-05
3.69657e-05
3.24281e-05
3.19075e-05
4.51365e-05
6.52577e-05
7.90091e-05
7.7326e-05
6.05923e-05
4.20497e-05
3.1919e-05
2.91439e-05
2.97438e-05
3.26591e-05
4.00938e-05
5.07034e-05
4.89061e-05
2.60772e-05
2.71969e-05
3.17164e-05
2.24159e-05
2.17473e-05
2.07607e-05
2.09455e-05
2.25931e-05
2.82226e-05
2.42001e-05
2.80408e-05
3.44164e-05
4.72625e-05
5.34179e-05
4.28299e-05
2.74393e-05
1.69908e-05
2.3633e-05
3.50459e-05
2.51852e-05
2.51555e-05
2.37926e-05
1.52772e-05
1.67633e-05
2.11076e-05
2.25028e-05
1.32328e-05
1.34917e-05
2.95693e-05
5.84708e-05
7.84043e-05
7.51209e-05
5.59168e-05
3.96009e-05
3.32286e-05
3.30993e-05
3.61079e-05
4.32869e-05
5.34626e-05
5.83795e-05
4.43528e-05
1.81612e-05
2.29613e-05
1.87302e-05
1.47727e-05
2.55959e-05
2.78183e-05
2.71813e-05
2.46484e-05
1.64183e-05
2.62093e-05
3.15564e-05
2.8718e-05
4.2411e-05
4.83213e-05
3.71208e-05
2.55342e-05
1.83702e-05
2.39048e-05
3.20206e-05
2.31832e-05
2.72162e-05
1.90676e-05
1.11493e-05
1.1499e-05
1.34769e-05
1.75193e-05
8.12416e-06
1.4684e-05
2.35545e-05
5.33779e-05
7.35597e-05
6.77631e-05
5.10049e-05
3.90138e-05
3.25491e-05
3.17669e-05
3.8107e-05
5.05146e-05
5.94942e-05
5.36631e-05
3.01375e-05
1.3691e-05
1.88589e-05
1.69049e-05
2.44679e-05
2.63252e-05
1.99624e-05
1.42794e-05
1.75046e-05
1.55518e-05
2.60333e-05
2.61042e-05
2.40745e-05
4.2376e-05
4.49972e-05
3.50359e-05
2.84038e-05
2.19224e-05
2.42685e-05
2.95301e-05
2.14797e-05
2.22177e-05
1.05127e-05
1.07003e-05
9.78196e-06
1.20996e-05
1.67416e-05
8.88015e-06
2.09666e-05
2.39632e-05
4.63095e-05
6.30887e-05
5.77187e-05
4.34649e-05
2.81135e-05
1.99983e-05
2.48337e-05
3.50719e-05
5.06258e-05
5.53231e-05
4.16668e-05
2.01819e-05
1.60769e-05
1.60095e-05
1.77496e-05
2.7381e-05
3.17995e-05
2.66401e-05
3.60258e-05
3.3487e-05
3.03414e-05
2.83803e-05
1.78919e-05
2.81635e-05
4.40045e-05
4.26388e-05
3.65895e-05
3.17485e-05
2.34182e-05
2.3382e-05
2.3847e-05
1.6835e-05
1.59248e-05
6.70145e-06
1.07344e-05
1.15353e-05
1.1906e-05
1.53189e-05
9.99297e-06
2.07003e-05
2.22607e-05
3.16848e-05
3.78702e-05
3.25679e-05
2.68074e-05
2.19202e-05
2.03043e-05
2.0822e-05
3.20479e-05
4.79046e-05
4.66335e-05
3.11194e-05
1.89978e-05
1.48383e-05
1.29995e-05
2.03637e-05
3.14408e-05
3.66701e-05
3.48775e-05
3.93266e-05
3.68348e-05
3.18146e-05
2.55932e-05
1.3981e-05
3.30527e-05
4.4525e-05
4.24832e-05
3.93146e-05
3.21768e-05
2.42083e-05
2.26545e-05
1.92203e-05
1.57165e-05
1.3426e-05
8.01976e-06
1.19544e-05
1.25923e-05
1.03904e-05
1.58204e-05
1.21372e-05
2.26583e-05
2.88228e-05
2.1072e-05
1.25384e-05
2.14261e-05
2.7832e-05
2.4698e-05
2.0471e-05
1.8773e-05
3.42397e-05
4.25867e-05
3.59568e-05
2.53412e-05
1.81461e-05
1.40028e-05
1.38713e-05
1.84091e-05
2.67212e-05
1.3353e-05
2.05805e-05
2.43193e-05
2.39191e-05
2.90356e-05
2.09996e-05
1.43344e-05
3.64181e-05
4.38231e-05
4.39955e-05
4.04695e-05
3.19994e-05
2.68206e-05
2.42146e-05
1.93894e-05
1.63136e-05
1.33036e-05
1.07975e-05
1.22664e-05
9.08633e-06
9.32235e-06
1.73215e-05
1.9539e-05
2.64241e-05
2.32762e-05
1.49695e-05
1.93751e-05
2.63071e-05
2.70789e-05
2.1088e-05
1.52007e-05
2.22163e-05
3.49787e-05
3.43756e-05
2.82926e-05
2.18634e-05
1.54785e-05
1.26318e-05
1.32934e-05
1.10821e-05
2.06975e-05
1.46107e-05
1.22647e-05
1.6142e-05
2.68534e-05
3.43536e-05
1.84731e-05
2.12298e-05
3.95495e-05
4.62927e-05
4.63742e-05
3.99774e-05
3.30109e-05
2.84725e-05
2.27317e-05
1.73346e-05
1.57939e-05
1.4434e-05
1.11692e-05
1.02984e-05
1.14302e-05
1.62015e-05
2.08615e-05
1.74209e-05
1.54306e-05
2.0367e-05
2.03726e-05
2.07172e-05
2.57469e-05
2.34973e-05
1.50814e-05
1.39204e-05
2.70062e-05
3.01934e-05
2.81741e-05
2.32746e-05
1.66874e-05
1.61504e-05
1.87377e-05
2.12128e-05
1.89038e-05
1.55594e-05
1.17698e-05
1.55048e-05
2.27428e-05
3.3343e-05
3.42971e-05
2.27162e-05
2.59674e-05
3.8894e-05
4.54586e-05
4.28042e-05
3.75819e-05
3.31933e-05
2.6074e-05
1.75849e-05
1.20302e-05
1.03709e-05
9.04393e-06
1.03122e-05
1.37478e-05
1.40388e-05
1.37533e-05
1.70098e-05
2.16178e-05
2.37606e-05
1.96873e-05
1.55105e-05
2.3613e-05
2.91982e-05
2.02841e-05
8.55959e-06
1.73746e-05
2.56005e-05
2.75224e-05
2.42108e-05
2.13454e-05
1.9781e-05
1.67592e-05
1.72783e-05
1.68172e-05
1.02955e-05
1.03856e-05
2.10894e-05
2.64886e-05
2.92905e-05
3.06486e-05
2.88859e-05
2.81148e-05
2.79178e-05
2.95686e-05
3.15651e-05
3.07813e-05
3.01001e-05
2.94035e-05
2.57225e-05
1.79349e-05
8.94255e-06
6.55436e-06
9.99785e-06
1.38574e-05
1.5747e-05
1.71598e-05
2.12081e-05
2.37353e-05
2.48831e-05
2.46748e-05
1.79653e-05
1.77294e-05
2.93157e-05
2.80623e-05
1.40848e-05
9.77436e-06
1.79291e-05
2.48971e-05
2.7774e-05
2.44705e-05
1.62822e-05
1.36781e-05
1.75059e-05
2.50772e-05
2.2691e-05
1.53678e-05
1.63429e-05
2.13015e-05
2.19035e-05
2.33877e-05
2.28181e-05
2.2856e-05
2.81528e-05
2.76339e-05
2.13308e-05
1.93482e-05
2.11169e-05
2.31669e-05
2.50503e-05
2.56776e-05
2.40595e-05
2.01571e-05
1.50126e-05
1.1745e-05
1.81125e-05
2.68518e-05
2.78087e-05
1.90766e-05
1.94815e-05
3.10526e-05
2.5944e-05
1.51515e-05
3.17136e-05
3.91931e-05
2.7187e-05
1.08023e-05
1.73304e-05
2.69026e-05
2.86147e-05
2.38047e-05
2.02831e-05
2.19201e-05
2.37816e-05
3.05113e-05
2.18115e-05
1.36446e-05
1.21812e-05
1.71782e-05
1.97705e-05
1.95907e-05
1.82038e-05
1.65541e-05
1.83895e-05
2.17857e-05
2.13798e-05
1.69818e-05
1.39111e-05
1.29542e-05
1.3731e-05
1.47947e-05
1.72861e-05
2.22225e-05
2.41063e-05
2.06713e-05
1.71925e-05
2.05123e-05
2.54147e-05
2.21742e-05
1.56315e-05
2.29374e-05
2.744e-05
2.01612e-05
1.62197e-05
2.33104e-05
2.12877e-05
1.02987e-05
1.85628e-05
3.02112e-05
3.30559e-05
3.57237e-05
4.18143e-05
4.38371e-05
3.88849e-05
3.61429e-05
3.19797e-05
2.72149e-05
2.45037e-05
2.34953e-05
2.41473e-05
2.6076e-05
2.52527e-05
2.11539e-05
1.71963e-05
1.29885e-05
8.92918e-06
1.41164e-05
1.94596e-05
1.88243e-05
1.57133e-05
1.53457e-05
1.77144e-05
1.88715e-05
1.96471e-05
2.04805e-05
1.76837e-05
1.20808e-05
7.42258e-06
6.22287e-06
9.00083e-06
1.75542e-05
2.53009e-05
2.7588e-05
2.20935e-05
1.06924e-05
8.22423e-06
6.6864e-06
1.81475e-05
3.16598e-05
3.77858e-05
4.24884e-05
4.5361e-05
4.31276e-05
3.9446e-05
2.61765e-05
2.9373e-05
3.14906e-05
3.20177e-05
3.1848e-05
3.0893e-05
2.8305e-05
2.47147e-05
1.95313e-05
1.41586e-05
1.37267e-05
1.53539e-05
1.82494e-05
2.22123e-05
2.27609e-05
1.95024e-05
1.49982e-05
1.02285e-05
7.50968e-06
9.32658e-06
1.10536e-05
1.27038e-05
1.22603e-05
1.47872e-05
1.85894e-05
1.79922e-05
2.02083e-05
2.73579e-05
3.34198e-05
3.32124e-05
2.48795e-05
1.38116e-05
1.11969e-05
1.86176e-05
3.11794e-05
3.92157e-05
4.04773e-05
3.59006e-05
2.89238e-05
2.51176e-05
1.23774e-05
1.27212e-05
1.86906e-05
2.3116e-05
2.28669e-05
1.92861e-05
1.48106e-05
1.22804e-05
1.24138e-05
1.30992e-05
1.29539e-05
1.23379e-05
1.20306e-05
1.29967e-05
1.36044e-05
1.34989e-05
1.58408e-05
1.93989e-05
2.06066e-05
1.91123e-05
1.57214e-05
1.27253e-05
1.39074e-05
1.4207e-05
1.48675e-05
1.79951e-05
1.7774e-05
2.09425e-05
2.82538e-05
3.01812e-05
2.57496e-05
1.88182e-05
1.43193e-05
1.71464e-05
2.59718e-05
3.26617e-05
3.09735e-05
2.31184e-05
1.69743e-05
1.47271e-05
9.63e-06
1.06748e-05
1.27716e-05
1.28325e-05
1.20411e-05
1.21088e-05
1.28832e-05
1.34666e-05
1.27466e-05
9.48487e-06
7.73364e-06
8.33337e-06
7.24832e-06
1.03994e-05
1.50591e-05
1.67503e-05
1.97786e-05
2.29646e-05
2.10455e-05
1.57976e-05
1.28492e-05
1.44242e-05
1.49905e-05
1.00099e-05
4.69773e-06
1.04389e-05
1.48968e-05
1.86232e-05
2.04514e-05
1.82633e-05
1.33214e-05
1.02082e-05
9.40115e-06
9.42583e-06
1.36502e-05
1.75862e-05
1.76965e-05
1.61141e-05
1.44668e-05
1.18529e-05
1.7147e-05
1.3957e-05
1.48268e-05
1.32188e-05
6.8879e-06
7.79396e-06
1.27807e-05
1.37377e-05
1.34588e-05
1.24089e-05
9.43763e-06
7.18589e-06
8.32693e-06
1.22464e-05
1.59402e-05
1.6553e-05
1.31521e-05
9.34605e-06
1.02264e-05
1.09812e-05
8.76708e-06
9.57027e-06
1.76872e-05
2.38297e-05
2.35625e-05
1.97333e-05
1.77383e-05
1.81835e-05
2.18946e-05
2.61733e-05
2.68797e-05
2.33402e-05
1.58651e-05
8.01128e-06
8.42693e-06
1.10612e-05
1.32986e-05
1.61657e-05
1.95638e-05
2.05887e-05
5.19725e-05
5.31535e-05
5.65243e-05
6.14032e-05
6.65165e-05
7.04796e-05
7.28387e-05
7.38498e-05
7.41113e-05
7.40884e-05
7.40882e-05
7.41655e-05
7.40368e-05
7.31237e-05
7.10651e-05
6.81707e-05
6.52727e-05
6.30448e-05
6.15999e-05
6.06875e-05
6.02266e-05
6.04906e-05
6.17063e-05
6.38093e-05
6.64523e-05
6.92975e-05
7.24511e-05
7.60739e-05
8.05038e-05
8.53438e-05
8.85535e-05
8.83542e-05
8.53382e-05
8.15511e-05
7.73955e-05
7.19866e-05
6.52139e-05
5.88044e-05
5.46362e-05
5.25594e-05
5.10669e-05
5.28078e-05
5.65743e-05
6.12204e-05
6.58526e-05
6.97427e-05
7.25449e-05
7.42566e-05
7.5183e-05
7.57148e-05
7.61377e-05
7.64916e-05
7.6566e-05
7.5889e-05
7.4166e-05
7.17389e-05
6.92259e-05
6.70047e-05
6.49851e-05
6.3086e-05
6.16852e-05
6.1329e-05
6.20907e-05
6.35077e-05
6.54081e-05
6.79308e-05
7.16091e-05
7.67471e-05
8.30506e-05
8.8935e-05
9.20299e-05
9.16062e-05
8.88298e-05
8.52703e-05
8.15462e-05
7.73686e-05
7.15589e-05
6.38366e-05
5.65471e-05
5.21546e-05
4.96969e-05
5.00824e-05
5.2947e-05
5.70746e-05
6.17617e-05
6.64359e-05
7.04025e-05
7.32121e-05
7.48751e-05
7.58305e-05
7.64809e-05
7.69919e-05
7.74329e-05
7.75425e-05
7.68488e-05
7.52832e-05
7.31702e-05
7.08005e-05
6.80769e-05
6.50339e-05
6.23591e-05
6.08328e-05
6.05655e-05
6.09933e-05
6.19609e-05
6.38787e-05
6.73783e-05
7.27889e-05
7.97249e-05
8.65831e-05
9.10294e-05
9.23189e-05
9.12473e-05
8.86913e-05
8.58077e-05
8.33987e-05
7.96703e-05
7.17912e-05
6.12408e-05
5.31249e-05
4.95849e-05
4.65454e-05
4.69424e-05
4.98033e-05
5.44261e-05
6.02604e-05
6.59279e-05
7.03851e-05
7.31319e-05
7.45221e-05
7.52059e-05
7.56552e-05
7.63719e-05
7.74288e-05
7.81345e-05
7.78097e-05
7.64806e-05
7.4363e-05
7.12577e-05
6.71204e-05
6.28242e-05
5.95229e-05
5.76148e-05
5.66603e-05
5.63159e-05
5.70756e-05
5.93608e-05
6.34887e-05
6.9402e-05
7.64092e-05
8.27939e-05
8.72184e-05
8.95299e-05
8.94141e-05
8.78702e-05
8.72475e-05
8.66886e-05
8.13334e-05
6.96259e-05
5.72931e-05
5.41874e-05
4.61188e-05
4.15088e-05
4.09005e-05
4.40276e-05
5.02275e-05
5.75726e-05
6.4144e-05
6.86374e-05
7.08125e-05
7.14765e-05
7.16248e-05
7.23155e-05
7.40765e-05
7.61119e-05
7.71747e-05
7.70872e-05
7.61173e-05
7.3727e-05
6.93248e-05
6.35755e-05
5.80852e-05
5.39604e-05
5.10654e-05
4.89953e-05
4.80533e-05
4.84627e-05
5.02138e-05
5.32137e-05
5.81144e-05
6.48072e-05
7.21688e-05
7.91488e-05
8.3747e-05
8.49665e-05
8.58789e-05
8.85854e-05
8.83271e-05
7.98321e-05
6.61133e-05
6.48603e-05
5.41367e-05
4.31221e-05
3.52469e-05
3.37032e-05
3.7076e-05
4.40885e-05
5.23886e-05
5.93485e-05
6.32299e-05
6.42484e-05
6.40367e-05
6.44466e-05
6.64765e-05
6.93162e-05
7.13035e-05
7.23651e-05
7.34056e-05
7.35123e-05
7.09204e-05
6.5242e-05
5.794e-05
5.12683e-05
4.59374e-05
4.17252e-05
3.9007e-05
3.81426e-05
3.87017e-05
3.93883e-05
4.05977e-05
4.38377e-05
4.84796e-05
5.67819e-05
6.7466e-05
7.41529e-05
7.69482e-05
8.16942e-05
8.72603e-05
8.60116e-05
7.64744e-05
7.46698e-05
6.87626e-05
5.73517e-05
4.01363e-05
2.947e-05
2.79561e-05
3.02333e-05
3.56387e-05
4.34629e-05
4.96903e-05
5.20694e-05
5.18182e-05
5.19412e-05
5.42018e-05
5.74972e-05
5.94829e-05
6.02815e-05
6.27778e-05
6.68e-05
6.90373e-05
6.70369e-05
6.03881e-05
5.16718e-05
4.37827e-05
3.75148e-05
3.34061e-05
3.1797e-05
3.34189e-05
3.66741e-05
3.55202e-05
3.21759e-05
3.20141e-05
3.27432e-05
4.11303e-05
5.38114e-05
5.99723e-05
6.45181e-05
7.35114e-05
8.06227e-05
7.97762e-05
7.12447e-05
7.59658e-05
7.55229e-05
5.93285e-05
3.54732e-05
2.55821e-05
2.71988e-05
2.82095e-05
2.82812e-05
3.20908e-05
3.57433e-05
3.51763e-05
3.40681e-05
3.69689e-05
4.16771e-05
4.34208e-05
4.15408e-05
4.23399e-05
4.9623e-05
5.87577e-05
6.47375e-05
6.39843e-05
5.60878e-05
4.60478e-05
3.79713e-05
3.27029e-05
3.0038e-05
3.14472e-05
3.85164e-05
4.31309e-05
3.59952e-05
2.61771e-05
2.335e-05
2.36354e-05
3.08919e-05
3.92293e-05
4.02332e-05
4.53255e-05
5.73839e-05
6.66623e-05
4.20584e-05
6.02738e-05
7.83379e-05
7.97005e-05
5.68169e-05
2.92723e-05
2.48383e-05
3.17082e-05
3.19481e-05
2.4113e-05
2.17109e-05
2.33764e-05
1.94277e-05
1.75997e-05
2.23041e-05
2.78201e-05
2.59677e-05
2.03564e-05
2.31508e-05
3.46486e-05
5.08611e-05
6.22312e-05
6.15346e-05
5.16758e-05
4.16618e-05
3.49862e-05
2.98229e-05
2.67029e-05
3.19978e-05
4.27247e-05
4.40441e-05
3.33224e-05
2.23354e-05
1.86495e-05
2.01316e-05
2.28388e-05
2.22755e-05
1.76812e-05
2.07759e-05
2.94272e-05
1.88411e-05
2.1355e-05
5.18695e-05
7.986e-05
7.87928e-05
5.16789e-05
2.37282e-05
2.55209e-05
3.61174e-05
3.53324e-05
2.1827e-05
1.66839e-05
1.67338e-05
9.54547e-06
1.15901e-05
1.46679e-05
1.87285e-05
1.53203e-05
1.64669e-05
2.07794e-05
2.31058e-05
4.37028e-05
5.86115e-05
5.60854e-05
4.56349e-05
3.72843e-05
2.9721e-05
2.12673e-05
2.3749e-05
3.49683e-05
4.39688e-05
3.84777e-05
2.94048e-05
1.93674e-05
1.62656e-05
1.49591e-05
1.66774e-05
1.86974e-05
1.71666e-05
1.98098e-05
2.28044e-05
3.02312e-05
1.92838e-05
5.10056e-05
7.864e-05
7.27507e-05
4.45762e-05
1.84229e-05
2.6786e-05
3.83811e-05
3.5668e-05
1.95086e-05
1.42207e-05
1.19386e-05
1.16053e-05
1.81228e-05
1.44177e-05
1.48569e-05
1.43854e-05
2.33958e-05
2.87547e-05
2.06139e-05
3.62479e-05
4.8698e-05
4.48275e-05
3.66133e-05
2.81539e-05
1.74627e-05
1.7537e-05
2.66699e-05
3.60096e-05
3.74093e-05
2.96173e-05
2.28486e-05
1.06866e-05
1.46112e-05
1.68644e-05
2.53231e-05
2.8457e-05
1.9601e-05
2.55771e-05
2.49752e-05
3.03344e-05
1.68333e-05
5.33716e-05
7.25262e-05
6.18941e-05
3.55566e-05
1.62651e-05
2.77627e-05
3.66458e-05
3.18466e-05
1.92947e-05
1.51531e-05
1.2196e-05
1.58318e-05
1.94176e-05
1.71543e-05
1.67091e-05
1.40169e-05
2.37454e-05
3.10841e-05
1.97431e-05
2.51516e-05
3.26715e-05
2.99827e-05
2.52521e-05
1.92017e-05
1.28262e-05
2.17911e-05
2.52903e-05
3.17292e-05
2.53095e-05
2.04426e-05
1.30121e-05
4.57802e-06
1.72484e-05
2.02715e-05
2.89655e-05
3.46696e-05
3.15703e-05
2.7833e-05
3.01323e-05
2.27703e-05
2.08595e-05
5.54222e-05
6.28901e-05
4.8131e-05
2.57734e-05
1.71985e-05
2.71138e-05
3.18378e-05
2.72044e-05
2.02934e-05
1.57745e-05
1.25283e-05
1.64817e-05
2.02841e-05
2.02604e-05
1.86789e-05
1.45797e-05
2.09077e-05
2.70324e-05
1.69333e-05
7.32877e-06
1.02078e-05
1.72687e-05
2.1787e-05
1.65269e-05
1.40218e-05
1.94778e-05
2.53722e-05
2.4009e-05
1.6551e-05
1.32417e-05
1.08543e-05
9.9539e-06
1.7677e-05
1.58068e-05
2.34366e-05
1.81936e-05
2.14822e-05
2.29859e-05
2.97408e-05
1.33597e-05
3.33124e-05
5.65524e-05
5.28612e-05
3.63278e-05
2.0024e-05
1.94461e-05
2.56223e-05
2.64307e-05
2.2594e-05
1.92244e-05
1.65408e-05
1.57545e-05
1.89626e-05
2.08521e-05
2.00318e-05
1.68897e-05
1.07715e-05
1.866e-05
2.51117e-05
1.93453e-05
1.40896e-05
1.55888e-05
1.71142e-05
1.85606e-05
1.29579e-05
1.32821e-05
1.9676e-05
2.49163e-05
1.7496e-05
1.30832e-05
1.51397e-05
1.5002e-05
1.06743e-05
1.15541e-05
9.64658e-06
1.04234e-05
1.56334e-05
1.41813e-05
2.46007e-05
2.48596e-05
1.47547e-05
4.78535e-05
5.59369e-05
4.34311e-05
2.83738e-05
2.06606e-05
2.30351e-05
2.54846e-05
2.42889e-05
2.30865e-05
2.24746e-05
2.05546e-05
2.0608e-05
2.17299e-05
2.04167e-05
1.86618e-05
1.77355e-05
1.69614e-05
1.62585e-05
1.73478e-05
2.25299e-05
2.17231e-05
1.21987e-05
1.15077e-05
1.37141e-05
1.18096e-05
1.39221e-05
2.15471e-05
2.10107e-05
1.59246e-05
1.48341e-05
1.74249e-05
1.40029e-05
9.9864e-06
8.02838e-06
1.21265e-05
1.09194e-05
1.84113e-05
2.09373e-05
3.12704e-05
1.79585e-05
3.12068e-05
5.9902e-05
5.91362e-05
4.6373e-05
3.60619e-05
3.08833e-05
2.96913e-05
2.80937e-05
2.67247e-05
2.76925e-05
2.75942e-05
2.52495e-05
2.21827e-05
1.95725e-05
1.95068e-05
1.94989e-05
1.81726e-05
1.63418e-05
1.83835e-05
2.2709e-05
1.88452e-05
9.19186e-06
1.26907e-05
1.71864e-05
1.40519e-05
1.26374e-05
1.78298e-05
2.00735e-05
1.71137e-05
1.47146e-05
1.39866e-05
1.39392e-05
1.49846e-05
1.84068e-05
2.18869e-05
1.76161e-05
1.79693e-05
2.20941e-05
2.58084e-05
3.18513e-05
1.71113e-05
3.39699e-05
6.29541e-05
7.1632e-05
6.61091e-05
5.34834e-05
4.11563e-05
3.3366e-05
2.88713e-05
2.73572e-05
2.79875e-05
2.73743e-05
2.30175e-05
1.95815e-05
2.14147e-05
2.17069e-05
1.76871e-05
1.40309e-05
1.51908e-05
1.64436e-05
1.22593e-05
9.18568e-06
1.49902e-05
2.21528e-05
2.02309e-05
1.50535e-05
1.73104e-05
2.0638e-05
2.00969e-05
1.73939e-05
1.6219e-05
1.5926e-05
1.63265e-05
2.01557e-05
1.35421e-05
1.75699e-05
2.43788e-05
2.92465e-05
3.04853e-05
2.74747e-05
2.56035e-05
2.02961e-05
2.47909e-05
4.8627e-05
6.84638e-05
7.00785e-05
5.59211e-05
3.87421e-05
2.70997e-05
2.25459e-05
2.25732e-05
2.07288e-05
1.40087e-05
1.73227e-05
2.47033e-05
2.35445e-05
1.83401e-05
1.85351e-05
1.97028e-05
1.51348e-05
7.60368e-06
7.79046e-06
1.40053e-05
2.36352e-05
2.85482e-05
2.38766e-05
1.93537e-05
1.85859e-05
2.01648e-05
2.3826e-05
2.46723e-05
2.08771e-05
1.65511e-05
1.39235e-05
1.51571e-05
1.91036e-05
2.37369e-05
2.58045e-05
2.70462e-05
2.59452e-05
2.08545e-05
1.76754e-05
2.47938e-05
2.60078e-05
2.42763e-05
4.20918e-05
5.45659e-05
5.02406e-05
3.81303e-05
2.59518e-05
1.49652e-05
7.18862e-06
9.33266e-06
1.27091e-05
1.45971e-05
1.98199e-05
2.72437e-05
3.11392e-05
2.84092e-05
1.94365e-05
1.3739e-05
1.71647e-05
1.67016e-05
1.52759e-05
1.99337e-05
2.05207e-05
1.74341e-05
1.79327e-05
2.03589e-05
2.78505e-05
3.59331e-05
3.60425e-05
2.83754e-05
1.91378e-05
2.58928e-05
1.79991e-05
1.51492e-05
1.39478e-05
1.63114e-05
2.10044e-05
2.27987e-05
2.03026e-05
1.84532e-05
2.34674e-05
2.69307e-05
2.34385e-05
2.27113e-05
2.87553e-05
2.87195e-05
2.26978e-05
1.88511e-05
1.76783e-05
1.52454e-05
1.71059e-05
1.9534e-05
2.16198e-05
2.9712e-05
3.50272e-05
3.07733e-05
1.82981e-05
9.05187e-06
1.65644e-05
2.23962e-05
2.25657e-05
1.74703e-05
1.25391e-05
1.14704e-05
1.57378e-05
2.29463e-05
3.08581e-05
3.82845e-05
4.11955e-05
3.93716e-05
3.44589e-05
3.68031e-05
3.01495e-05
2.1274e-05
1.63631e-05
1.77792e-05
2.04782e-05
2.17921e-05
2.03759e-05
1.7238e-05
1.58817e-05
1.84587e-05
1.94045e-05
1.69605e-05
1.68453e-05
1.6695e-05
1.33192e-05
1.119e-05
1.35038e-05
1.49435e-05
1.69637e-05
2.3495e-05
2.88813e-05
2.78782e-05
2.27054e-05
1.72722e-05
9.88625e-06
1.78187e-06
9.94365e-06
2.18061e-05
2.85488e-05
2.72554e-05
2.2414e-05
1.93356e-05
1.73744e-05
2.07014e-05
2.59047e-05
2.82471e-05
2.84298e-05
3.19613e-05
3.71231e-05
2.62327e-05
2.93455e-05
2.91421e-05
2.74987e-05
2.61964e-05
2.40715e-05
1.97809e-05
1.44366e-05
1.28413e-05
1.40097e-05
1.19549e-05
1.1393e-05
1.58714e-05
2.05696e-05
2.26387e-05
2.09462e-05
1.68827e-05
1.2102e-05
9.11084e-06
1.14692e-05
1.41591e-05
1.73835e-05
2.04071e-05
1.74747e-05
1.11956e-05
9.55666e-06
7.60852e-06
8.25607e-06
1.70978e-05
2.47708e-05
2.87985e-05
2.74416e-05
2.29237e-05
2.03009e-05
2.11622e-05
2.25091e-05
2.01478e-05
1.6328e-05
1.73361e-05
2.13721e-05
6.75774e-06
1.1081e-05
1.52663e-05
1.72214e-05
1.60785e-05
1.36819e-05
1.27936e-05
1.23678e-05
1.02259e-05
8.65683e-06
1.22208e-05
1.50198e-05
1.61098e-05
1.81546e-05
2.04158e-05
2.16406e-05
2.23134e-05
2.24846e-05
2.16418e-05
2.24298e-05
2.53182e-05
2.56095e-05
2.19008e-05
1.81657e-05
1.532e-05
1.05247e-05
6.68798e-06
9.70093e-06
1.1669e-05
1.02789e-05
1.45924e-05
2.15859e-05
2.22702e-05
2.02469e-05
2.0677e-05
1.93673e-05
1.50731e-05
1.18762e-05
8.4803e-06
4.67099e-06
1.05513e-05
1.16309e-05
1.4001e-05
1.3372e-05
1.13602e-05
1.13793e-05
1.14627e-05
1.0895e-05
1.10008e-05
1.05805e-05
1.09746e-05
1.11867e-05
9.12075e-06
9.36061e-06
1.24756e-05
1.2261e-05
1.1793e-05
1.59409e-05
1.76516e-05
1.42015e-05
1.03241e-05
1.25374e-05
1.6797e-05
1.72772e-05
1.40293e-05
1.18232e-05
1.11635e-05
1.22903e-05
1.94846e-05
2.61024e-05
2.75698e-05
2.51059e-05
2.07808e-05
1.57323e-05
1.33094e-05
1.34727e-05
1.4586e-05
1.57327e-05
1.55225e-05
1.32424e-05
1.67069e-05
8.59037e-06
5.756e-06
7.301e-06
6.96312e-06
1.25314e-05
1.71369e-05
1.79413e-05
1.7405e-05
1.6126e-05
1.67559e-05
1.95826e-05
2.18712e-05
2.36199e-05
2.47595e-05
2.36799e-05
1.95416e-05
1.45001e-05
1.38075e-05
1.56791e-05
1.39381e-05
9.88205e-06
1.25746e-05
1.64633e-05
1.74606e-05
1.88681e-05
1.9031e-05
1.74066e-05
2.3843e-05
3.23156e-05
3.16766e-05
2.49235e-05
2.1571e-05
1.94124e-05
1.75404e-05
1.86311e-05
2.14068e-05
2.40543e-05
2.42544e-05
2.19549e-05
4.32901e-05
4.35048e-05
4.44833e-05
4.63508e-05
4.94032e-05
5.34694e-05
5.76975e-05
6.13712e-05
6.42989e-05
6.6544e-05
6.82268e-05
6.94847e-05
7.03922e-05
7.06935e-05
7.02137e-05
6.94243e-05
6.90532e-05
6.90846e-05
6.90368e-05
6.87276e-05
6.82677e-05
6.78475e-05
6.77508e-05
6.79759e-05
6.81262e-05
6.85199e-05
6.96429e-05
7.16719e-05
7.50151e-05
7.95521e-05
8.33342e-05
8.49059e-05
8.47398e-05
8.35429e-05
8.08733e-05
7.53128e-05
6.63763e-05
5.65709e-05
4.91384e-05
4.48333e-05
4.35386e-05
4.27874e-05
4.33127e-05
4.51784e-05
4.83444e-05
5.24328e-05
5.67938e-05
6.09243e-05
6.46128e-05
6.7791e-05
7.03698e-05
7.23125e-05
7.35123e-05
7.38214e-05
7.34655e-05
7.32023e-05
7.34294e-05
7.35661e-05
7.30571e-05
7.20173e-05
7.08222e-05
6.98853e-05
6.93463e-05
6.88909e-05
6.82684e-05
6.81278e-05
6.92084e-05
7.20145e-05
7.66887e-05
8.21584e-05
8.63062e-05
8.82604e-05
8.85947e-05
8.75503e-05
8.5161e-05
8.09786e-05
7.37397e-05
6.34654e-05
5.32658e-05
4.64913e-05
4.33873e-05
4.08452e-05
4.04968e-05
4.19195e-05
4.49883e-05
4.92558e-05
5.41265e-05
5.9026e-05
6.36121e-05
6.77476e-05
7.12548e-05
7.39473e-05
7.56975e-05
7.65154e-05
7.67511e-05
7.71276e-05
7.78719e-05
7.81593e-05
7.73479e-05
7.56401e-05
7.34962e-05
7.14331e-05
6.97099e-05
6.81396e-05
6.65956e-05
6.56602e-05
6.62075e-05
6.89224e-05
7.39743e-05
8.01221e-05
8.52314e-05
8.85487e-05
9.02142e-05
9.00185e-05
8.86324e-05
8.69666e-05
8.3173e-05
7.40837e-05
6.10308e-05
4.97329e-05
4.46216e-05
3.88423e-05
3.67613e-05
3.735e-05
4.02564e-05
4.477e-05
5.0188e-05
5.58363e-05
6.12292e-05
6.61792e-05
7.05464e-05
7.40194e-05
7.65032e-05
7.81179e-05
7.92054e-05
8.03935e-05
8.18432e-05
8.25953e-05
8.18914e-05
7.98798e-05
7.68589e-05
7.32258e-05
6.95032e-05
6.60052e-05
6.29692e-05
6.07969e-05
6.02647e-05
6.20517e-05
6.65547e-05
7.28552e-05
7.88782e-05
8.39859e-05
8.78922e-05
8.93165e-05
8.89111e-05
8.95746e-05
9.03652e-05
8.55092e-05
7.23966e-05
5.64046e-05
5.03395e-05
3.90605e-05
3.35759e-05
3.22243e-05
3.43567e-05
3.88386e-05
4.45605e-05
5.0685e-05
5.65998e-05
6.2e-05
6.68701e-05
7.0978e-05
7.42647e-05
7.67953e-05
7.87711e-05
8.07749e-05
8.30004e-05
8.45806e-05
8.47079e-05
8.33757e-05
8.03929e-05
7.55741e-05
6.94747e-05
6.30858e-05
5.74671e-05
5.33286e-05
5.11399e-05
5.13367e-05
5.44977e-05
6.01052e-05
6.60442e-05
7.20198e-05
7.87787e-05
8.31895e-05
8.37197e-05
8.53729e-05
9.05978e-05
9.2966e-05
8.50528e-05
6.80101e-05
6.24669e-05
4.45719e-05
3.35868e-05
2.82895e-05
2.82243e-05
3.19831e-05
3.74295e-05
4.32708e-05
4.90209e-05
5.41961e-05
5.88112e-05
6.30016e-05
6.69225e-05
7.04027e-05
7.31916e-05
7.56438e-05
7.80764e-05
8.01042e-05
8.14689e-05
8.23239e-05
8.15434e-05
7.74154e-05
7.00093e-05
6.06463e-05
5.13983e-05
4.42943e-05
4.01666e-05
3.90981e-05
4.14061e-05
4.61063e-05
5.08038e-05
5.42075e-05
6.11644e-05
6.98695e-05
7.21419e-05
7.23923e-05
7.96559e-05
9.0457e-05
9.31219e-05
8.21436e-05
7.82397e-05
5.72631e-05
3.98424e-05
2.88428e-05
2.40389e-05
2.59812e-05
3.11828e-05
3.60336e-05
3.99401e-05
4.31504e-05
4.56262e-05
4.81901e-05
5.18824e-05
5.63242e-05
6.02261e-05
6.28705e-05
6.41629e-05
6.463e-05
6.60499e-05
6.9922e-05
7.4232e-05
7.45428e-05
6.9068e-05
5.90822e-05
4.72654e-05
3.75014e-05
3.19281e-05
3.007e-05
3.26836e-05
3.73264e-05
4.00948e-05
4.12296e-05
4.2129e-05
5.04675e-05
5.59517e-05
5.23258e-05
5.55999e-05
7.21823e-05
8.83625e-05
9.12033e-05
8.85225e-05
7.46179e-05
5.35303e-05
3.69763e-05
2.60012e-05
2.16018e-05
2.61133e-05
3.23149e-05
3.48721e-05
3.45511e-05
3.30871e-05
3.11861e-05
3.10022e-05
3.36076e-05
3.80617e-05
4.15158e-05
3.99197e-05
3.33948e-05
2.93473e-05
3.46047e-05
4.8308e-05
5.95065e-05
6.13879e-05
5.55641e-05
4.55603e-05
3.60402e-05
3.04689e-05
2.89935e-05
3.26703e-05
3.82176e-05
3.91236e-05
3.6105e-05
3.31552e-05
3.42922e-05
4.01548e-05
3.52704e-05
2.58199e-05
3.58501e-05
6.25919e-05
8.4196e-05
7.95949e-05
8.61739e-05
7.1371e-05
5.12884e-05
3.71959e-05
2.60596e-05
1.96962e-05
2.69778e-05
3.41232e-05
3.36503e-05
2.86841e-05
2.36755e-05
2.01776e-05
1.99555e-05
2.01618e-05
1.94434e-05
1.58629e-05
1.44673e-05
2.20672e-05
2.61029e-05
2.04084e-05
2.82783e-05
4.2011e-05
4.59452e-05
4.23931e-05
3.6298e-05
3.28037e-05
3.35899e-05
3.57145e-05
3.7893e-05
3.6253e-05
3.76918e-05
3.18638e-05
2.58017e-05
2.66529e-05
2.95512e-05
1.61945e-05
1.30118e-05
2.04399e-05
5.16173e-05
4.15835e-05
7.56027e-05
8.23612e-05
6.67006e-05
5.05804e-05
4.07421e-05
2.75129e-05
1.72778e-05
2.92343e-05
3.66464e-05
3.29804e-05
2.49093e-05
1.88498e-05
1.66176e-05
1.86648e-05
1.88366e-05
1.84446e-05
1.93199e-05
1.99845e-05
2.63822e-05
3.22733e-05
2.25358e-05
2.00796e-05
3.20477e-05
3.62909e-05
3.39973e-05
3.16813e-05
3.37811e-05
3.57705e-05
3.31368e-05
2.8875e-05
2.29303e-05
3.15962e-05
1.94115e-05
2.14544e-05
1.89387e-05
2.50776e-05
7.32001e-06
2.06896e-05
1.57263e-05
1.9705e-05
3.72665e-05
7.107e-05
7.50002e-05
6.05762e-05
5.09453e-05
4.41405e-05
2.66428e-05
1.69452e-05
3.23597e-05
3.7951e-05
3.28865e-05
2.46195e-05
1.72583e-05
1.48979e-05
2.00226e-05
2.24851e-05
1.62026e-05
7.64576e-06
7.18106e-06
1.67153e-05
2.45265e-05
1.48181e-05
1.97656e-05
3.08699e-05
3.26373e-05
3.1078e-05
3.00934e-05
2.77547e-05
2.6481e-05
2.2427e-05
1.88061e-05
1.03443e-05
2.00096e-05
1.18551e-05
2.07414e-05
1.3489e-05
2.33017e-05
1.02947e-05
2.90143e-05
3.31712e-05
2.062e-05
3.85331e-05
6.60404e-05
6.62477e-05
5.41776e-05