/*--------------------------------*- C++ -*----------------------------------*\
| =========                 |                                                 |
| \\      /  F ield         | OpenFOAM: The Open Source CFD Toolbox           |
|  \\    /   O peration     | Version:  2306                                  |
|   \\  /    A nd           | Website:  www.openfoam.com                      |
|    \\/     M anipulation  |                                                 |
\*---------------------------------------------------------------------------*/
FoamFile
{
    version     2.0;
    format      ascii;
    arch        "LSB;label=32;scalar=64";
    class       surfaceScalarField;
    location    "8.5";
    object      phi;
}
// * * * * * * * * * * * * * * * * * * * * * * * * * * * * * * * * * * * * * //

dimensions      [0 3 -1 0 0 0 0];

oriented        oriented;

internalField   nonuniform List<scalar> 
175300
(
4.33071e-06
4.24366e-07
-7.82044e-07
4.57289e-06
4.5707e-07
-5.41738e-07
4.91156e-06
3.57383e-07
-2.51475e-07
5.29589e-06
2.87471e-07
1.23865e-07
5.63455e-06
3.83938e-07
5.20779e-07
5.77997e-06
6.10157e-07
9.86403e-07
5.67568e-06
8.39961e-07
1.45913e-06
5.42019e-06
8.9624e-07
1.83396e-06
5.17166e-06
7.38887e-07
1.98855e-06
4.99349e-06
5.31846e-07
1.87577e-06
4.86356e-06
3.65681e-07
1.60857e-06
4.73378e-06
2.47453e-07
1.35344e-06
4.56927e-06
1.31001e-07
1.23131e-06
4.34713e-06
5.65736e-09
1.24384e-06
4.04472e-06
-7.16663e-08
1.31123e-06
3.70908e-06
-1.30801e-07
1.35369e-06
3.46679e-06
-2.37515e-07
1.32563e-06
3.38377e-06
-3.48019e-07
1.19399e-06
3.42377e-06
-4.12415e-07
9.58809e-07
3.51061e-06
-4.44077e-07
6.77661e-07
3.61794e-06
-4.85937e-07
4.34788e-07
3.77435e-06
-4.28385e-07
1.99434e-07
3.98918e-06
-2.69087e-07
-5.95483e-08
4.20891e-06
5.65847e-09
-2.81341e-07
4.41429e-06
2.52056e-07
-3.84193e-07
4.60071e-06
3.15808e-07
-3.25273e-07
4.7587e-06
1.27466e-07
-2.15024e-07
4.90593e-06
-3.4637e-07
-1.90954e-07
5.09088e-06
-8.89649e-07
-4.27335e-07
5.29174e-06
-1.09683e-06
-9.17509e-07
5.34535e-06
-7.77745e-07
-1.39628e-06
5.19587e-06
-2.5689e-07
-1.70368e-06
4.88889e-06
2.04813e-07
-1.9433e-06
4.49266e-06
4.68071e-07
-2.13746e-06
4.08903e-06
4.39829e-07
-2.12064e-06
3.8043e-06
1.55499e-07
-1.93342e-06
3.71139e-06
-8.47239e-08
-1.76722e-06
3.80273e-06
-1.22658e-07
-1.61875e-06
3.97903e-06
3.65807e-08
-1.38491e-06
2.7658e-07
-1.07414e-06
1.42776e-05
1.29414e-06
-2.22153e-06
1.52445e-05
1.22176e-06
-1.45251e-06
1.64466e-05
7.9218e-07
-5.25181e-07
1.773e-05
6.111e-07
5.77697e-07
1.88286e-05
9.67594e-07
1.87019e-06
1.93509e-05
1.72522e-06
3.32833e-06
1.91045e-05
2.47061e-06
4.73208e-06
1.83224e-05
2.68901e-06
5.75183e-06
1.74779e-05
2.26689e-06
6.05788e-06
1.685e-05
1.62256e-06
5.62046e-06
1.6428e-05
1.06738e-06
4.79151e-06
1.60462e-05
6.73483e-07
4.03442e-06
1.55367e-05
3.2122e-07
3.64312e-06
1.47908e-05
-1.53269e-08
3.60867e-06
1.38033e-05
-2.5924e-07
3.75392e-06
1.27702e-05
-5.39849e-07
3.88775e-06
1.20002e-05
-9.99417e-07
3.85082e-06
1.16386e-05
-1.46677e-06
3.52381e-06
1.16117e-05
-1.71864e-06
2.89482e-06
1.17603e-05
-1.75753e-06
2.11692e-06
1.20278e-05
-1.70363e-06
1.37223e-06
1.24584e-05
-1.37129e-06
6.31367e-07
1.30433e-05
-6.89991e-07
-1.23892e-07
1.36938e-05
2.01465e-07
-7.05993e-07
1.43888e-05
7.98296e-07
-8.98065e-07
1.51372e-05
6.45846e-07
-6.96479e-07
1.59239e-05
-4.02618e-07
-4.01374e-07
1.67573e-05
-2.25649e-06
-4.17385e-07
1.75977e-05
-4.02854e-06
-1.12922e-06
1.82017e-05
-4.38196e-06
-2.45927e-06
1.81915e-05
-2.95892e-06
-3.78507e-06
1.75497e-05
-9.60901e-07
-4.75128e-06
1.65234e-05
6.40359e-07
-5.4613e-06
1.53553e-05
1.3689e-06
-5.82924e-06
1.42145e-05
1.0902e-06
-5.65901e-06
1.32851e-05
1.85423e-07
-5.24951e-06
1.27461e-05
-4.41041e-07
-4.95896e-06
1.2702e-05
-4.28449e-07
-4.61778e-06
1.30321e-05
1.461e-07
-3.95576e-06
9.05142e-07
-3.06688e-06
2.61049e-05
2.17733e-06
-4.14685e-06
2.79801e-05
1.70228e-06
-2.8888e-06
3.02733e-05
6.72481e-07
-1.38702e-06
3.27248e-05
1.36773e-07
5.61433e-07
3.49277e-05
8.39167e-07
2.835e-06
3.62372e-05
2.36216e-06
5.44268e-06
3.61748e-05
3.927e-06
7.94777e-06
3.49229e-05
4.60847e-06
9.78458e-06
3.32797e-05
4.11523e-06
1.04229e-05
3.19462e-05
3.03515e-06
9.79356e-06
3.10858e-05
1.94831e-06
8.44854e-06
3.04266e-05
1.13409e-06
7.14515e-06
2.96035e-05
4.60874e-07
6.35137e-06
2.83691e-05
-1.1757e-07
6.07726e-06
2.6698e-05
-5.49082e-07
6.13418e-06
2.48708e-05
-1.11809e-06
6.32065e-06
2.33258e-05
-2.06426e-06
6.38073e-06
2.23394e-05
-3.06589e-06
6.02924e-06
2.19219e-05
-3.66994e-06
5.16744e-06
2.19154e-05
-3.79615e-06
4.00221e-06
2.22295e-05
-3.61798e-06
2.80527e-06
2.28784e-05
-2.84979e-06
1.56636e-06
2.38178e-05
-1.27441e-06
2.3448e-07
2.49448e-05
4.87783e-07
-7.25029e-07
2.62641e-05
1.40097e-06
-1.02053e-06
2.78003e-05
5.64835e-07
-5.9159e-07
2.95094e-05
-2.18064e-06
7.07838e-08
3.13593e-05
-6.37112e-06
1.98274e-07
3.3188e-05
-1.01948e-05
-7.21532e-07
3.44584e-05
-1.0671e-05
-2.85272e-06
3.45217e-05
-7.30053e-06
-5.22333e-06
3.34176e-05
-2.75082e-06
-7.13777e-06
3.1669e-05
7.95391e-07
-8.5075e-06
2.97443e-05
2.31064e-06
-9.10639e-06
2.78353e-05
1.6963e-06
-8.79598e-06
2.60382e-05
-3.39152e-08
-8.20851e-06
2.45769e-05
-1.1122e-06
-7.93098e-06
2.38424e-05
-9.67253e-07
-7.65555e-06
2.39623e-05
1.50841e-07
-6.8247e-06
1.54778e-06
-5.49804e-06
3.94846e-05
2.60103e-06
-7.12635e-06
4.22935e-05
1.47764e-06
-5.62494e-06
4.58367e-05
-8.08222e-07
-3.76622e-06
4.97592e-05
-2.41605e-06
-9.40076e-07
5.35655e-05
-1.46615e-06
2.32764e-06
5.63737e-05
1.09381e-06
6.25555e-06
5.72231e-05
3.95223e-06
1.02102e-05
5.58942e-05
5.68977e-06
1.33294e-05
5.33463e-05
5.70424e-06
1.48008e-05
5.09386e-05
4.52903e-06
1.43816e-05
4.9356e-05
2.91424e-06
1.27281e-05
4.83525e-05
1.5429e-06
1.09122e-05
4.73186e-05
4.49347e-07
9.616e-06
4.57795e-05
-3.85772e-07
8.86738e-06
4.35901e-05
-9.42576e-07
8.52408e-06
4.098e-05
-1.68925e-06
8.54895e-06
3.83835e-05
-3.00532e-06
8.73805e-06
3.62164e-05
-4.50993e-06
8.60023e-06
3.47764e-05
-5.64472e-06
7.79892e-06
3.41193e-05
-6.20795e-06
6.50074e-06
3.41799e-05
-6.22952e-06
5.05032e-06
3.48928e-05
-5.09199e-06
3.43214e-06
3.61218e-05
-2.38849e-06
1.59699e-06
3.77367e-05
6.37179e-07
6.24294e-08
3.97682e-05
1.8553e-06
-3.50849e-07
4.22369e-05
-1.01477e-07
4.06947e-07
4.49967e-05
-5.40549e-06
1.81145e-06
4.79896e-05
-1.32456e-05
2.8535e-06
5.11259e-05
-2.02959e-05
2.10744e-06
5.36341e-05
-2.13853e-05
-7.40506e-07
5.43712e-05
-1.53562e-05
-4.56205e-06
5.32304e-05
-6.94248e-06
-8.03218e-06
5.09999e-05
-2.18959e-07
-1.06405e-05
4.84625e-05
2.86642e-06
-1.1874e-05
4.58714e-05
2.17447e-06
-1.15308e-05
4.31216e-05
-4.55773e-07
-1.06652e-05
4.02582e-05
-2.03453e-06
-1.03812e-05
3.79843e-05
-1.73515e-06
-1.04472e-05
3.70763e-05
-1.29152e-07
-9.95687e-06
1.81941e-06
-8.66231e-06
5.40471e-05
2.35021e-06
-1.12983e-05
5.72998e-05
1.61802e-07
-1.02221e-05
6.1861e-05
-4.27476e-06
-8.58826e-06
6.73349e-05
-8.1775e-06
-5.66411e-06
7.32306e-05
-8.49953e-06
-9.63057e-07
7.85301e-05
-4.4783e-06
4.15023e-06
8.16072e-05
5.39433e-07
1.00531e-05
8.13037e-05
4.41434e-06
1.52641e-05
7.82324e-05
6.04772e-06
1.84462e-05
7.44515e-05
5.62551e-06
1.89853e-05
7.16983e-05
3.81542e-06
1.74629e-05
7.01491e-05
1.83883e-06
1.53365e-05
6.89962e-05
1.85731e-07
1.36571e-05
6.74314e-05
-9.62588e-07
1.23991e-05
6.5075e-05
-1.54906e-06
1.13262e-05
6.19676e-05
-2.20938e-06
1.0712e-05
5.83129e-05
-3.50865e-06
1.07657e-05
5.44539e-05
-5.12512e-06
1.09558e-05
5.10611e-05
-6.6892e-06
1.0545e-05
4.87791e-05
-8.14658e-06
9.47026e-06
4.78755e-05
-9.18486e-06
8.1243e-06
4.82555e-05
-8.2472e-06
6.44231e-06
4.95798e-05
-4.34781e-06
4.19942e-06
5.15766e-05
4.13355e-07
2.07078e-06
5.42554e-05
2.2349e-06
1.41853e-06
5.7569e-05
-1.0964e-06
2.68231e-06
6.10838e-05
-9.83454e-06
5.48801e-06
6.46677e-05
-2.24775e-05
8.23931e-06
6.89194e-05
-3.45029e-05
8.68001e-06
7.35017e-05
-3.80775e-05
5.64037e-06
7.63899e-05
-2.9675e-05
1.34416e-07
7.65161e-05
-1.58263e-05
-6.01512e-06
7.46255e-05
-3.99888e-06
-1.10426e-05
7.19198e-05
2.23201e-06
-1.38716e-05
6.89206e-05
2.35681e-06
-1.38996e-05
6.5424e-05
-9.4294e-07
-1.26201e-05
6.10731e-05
-2.99682e-06
-1.2066e-05
5.65331e-05
-2.50091e-06
-1.24632e-05
5.33594e-05
-5.39525e-07
-1.27535e-05
1.66376e-06
-1.22481e-05
7.07138e-05
1.9264e-06
-1.55232e-05
7.29021e-05
-1.80545e-06
-1.58867e-05
7.70949e-05
-9.46256e-06
-1.55984e-05
8.2977e-05
-1.74474e-05
-1.36583e-05
9.04337e-05
-2.09339e-05
-9.55584e-06
9.89407e-05
-1.78692e-05
-2.93996e-06
0.000106354
-1.00585e-05
4.84767e-06
0.000109508
-2.09052e-06
1.33545e-05
0.000107516
3.23917e-06
1.97636e-05
0.000102687
5.23046e-06
2.26171e-05
9.83401e-05
4.18262e-06
2.20516e-05
9.58779e-05
1.87034e-06
1.99603e-05
9.45861e-05
-4.51919e-07
1.82545e-05
9.32422e-05
-2.06343e-06
1.69599e-05
9.11465e-05
-2.64753e-06
1.52449e-05
8.81339e-05
-2.91622e-06
1.34371e-05
8.40121e-05
-3.67679e-06
1.26349e-05
7.85864e-05
-4.71568e-06
1.28538e-05
7.25091e-05
-6.03677e-06
1.29982e-05
6.71925e-05
-8.30506e-06
1.24676e-05
6.38731e-05
-1.12833e-05
1.15966e-05
6.2924e-05
-1.17986e-05
1.0305e-05
6.38104e-05
-7.17764e-06
7.99903e-06
6.58565e-05
-2.49397e-07
5.39469e-06
6.88959e-05
2.73096e-06
4.54644e-06
7.28048e-05
-2.00609e-06
6.47787e-06
7.66638e-05
-1.4588e-05
1.07715e-05
7.95974e-05
-3.23026e-05
1.54447e-05
8.29635e-05
-5.0229e-05
1.79088e-05
8.89712e-05
-5.89705e-05
1.63078e-05
9.60541e-05
-5.18321e-05
1.02944e-05
0.000100537
-3.31281e-05
1.47015e-06
0.000101274
-1.3393e-05
-8.03464e-06
9.96386e-05
-1.24678e-06
-1.42822e-05
9.68436e-05
1.61681e-06
-1.58024e-05
9.30704e-05
-1.47761e-06
-1.42756e-05
8.77289e-05
-3.73471e-06
-1.30742e-05
8.10157e-05
-2.86937e-06
-1.33912e-05
7.47904e-05
-5.43842e-07
-1.4351e-05
1.65155e-06
-1.50555e-05
9.3123e-05
2.18413e-06
-1.78249e-05
9.28027e-05
-2.99661e-06
-1.99488e-05
9.42238e-05
-1.40735e-05
-2.18916e-05
9.74623e-05
-2.71849e-05
-2.24942e-05
0.000102988
-3.56289e-05
-2.06921e-05
0.000111739
-3.60759e-05
-1.59765e-05
0.000123747
-2.9653e-05
-7.6172e-06
0.000134414
-1.89734e-05
3.85509e-06
0.000137939
-6.89576e-06
1.55637e-05
0.000134326
8.35414e-07
2.32562e-05
0.000128679
2.68983e-06
2.54017e-05
0.000124992
1.06527e-06
2.3887e-05
0.0001235
-1.72943e-06
2.23469e-05
0.00012252
-3.93474e-06
2.18599e-05
0.000120947
-4.606e-06
2.0573e-05
0.000118645
-4.27077e-06
1.76787e-05
0.000115214
-4.05777e-06
1.51009e-05
0.000109509
-3.87966e-06
1.44343e-05
0.000101254
-3.99055e-06
1.48817e-05
9.19964e-05
-6.00232e-06
1.50646e-05
8.4259e-05
-1.08351e-05
1.48825e-05
7.99593e-05
-1.41329e-05
1.43121e-05
7.91352e-05
-1.00997e-05
1.23734e-05
8.05958e-05
-1.0964e-06
9.5144e-06
8.36602e-05
3.66942e-06
8.46198e-06
8.81566e-05
-2.06762e-06
1.07958e-05
9.30048e-05
-1.8281e-05
1.56962e-05
9.60283e-05
-3.99275e-05
2.06949e-05
9.67954e-05
-6.15317e-05
2.41805e-05
9.95216e-05
-7.63716e-05
2.58234e-05
0.000107894
-7.56859e-05
2.33417e-05
0.000118887
-5.7463e-05
1.4533e-05
0.000126633
-3.18091e-05
1.03478e-06
0.000129287
-1.05316e-05
-1.11997e-05
0.000128166
-1.52805e-06
-1.64646e-05
0.000124743
-2.36113e-06
-1.57288e-05
0.000119209
-4.05552e-06
-1.37724e-05
0.000111401
-2.58758e-06
-1.34138e-05
0.000102795
2.494e-07
-1.4421e-05
2.3479e-06
-1.59457e-05
0.000123656
3.48273e-06
-1.72453e-05
0.00012198
-2.15369e-06
-2.0399e-05
0.000119909
-1.47702e-05
-2.41176e-05
0.000117523
-3.18656e-05
-2.81084e-05
0.000117212
-4.58837e-05
-3.0549e-05
0.00012097
-5.13406e-05
-2.94097e-05
0.00013123
-4.95693e-05
-2.36967e-05
0.000147425
-4.20711e-05
-1.27948e-05
0.000161088
-2.80476e-05
2.85179e-06
0.000164282
-1.19252e-05
1.77207e-05
0.000159793
-3.47817e-06
2.57118e-05
0.000155339
-2.26742e-06
2.6198e-05
0.000154025
-4.57934e-06
2.44425e-05
0.00015389
-7.03946e-06
2.48621e-05
0.000152862
-7.67416e-06
2.57047e-05
0.0001513
-6.60317e-06
2.34554e-05
0.000149611
-5.29224e-06
1.90654e-05
0.000145908
-3.78693e-06
1.62863e-05
0.000137976
-2.1951e-06
1.62076e-05
0.000125982
-2.55681e-06
1.70415e-05
0.000112795
-7.49821e-06
1.76707e-05
0.00010249
-1.33538e-05
1.79101e-05
9.7538e-05
-1.1437e-05
1.66713e-05
9.72246e-05
-1.5317e-06
1.37919e-05
9.99645e-05
5.31874e-06
1.23058e-05
0.000105041
-3.57193e-07
1.43969e-05
0.000111596
-1.91564e-05
1.87961e-05
0.000117323
-4.35181e-05
2.22038e-05
0.0001187
-6.55116e-05
2.42809e-05
0.000116424
-8.1641e-05
2.80503e-05
0.000118335
-8.82502e-05
3.22916e-05
0.000129482
-7.91576e-05
2.94486e-05
0.000144644
-5.52603e-05
1.5892e-05
0.000155757
-2.73302e-05
-2.19977e-06
0.000159444
-9.07835e-06
-1.40256e-05
0.000157428
-4.12039e-06
-1.64103e-05
0.000152308
-3.70166e-06
-1.44188e-05
0.000144833
-1.66109e-06
-1.28572e-05
0.000135731
1.62409e-06
-1.30493e-05
3.81248e-06
-1.46518e-05
0.00015794
4.73231e-06
-1.32093e-05
0.000158566
2.35892e-07
-1.65654e-05
0.000156379
-1.078e-05
-2.09476e-05
0.000148856
-2.7938e-05
-2.76203e-05
0.000140498
-4.60849e-05
-3.56617e-05
0.000136605
-5.74231e-05
-4.06918e-05
0.000140137
-6.10123e-05
-3.90755e-05
0.000153596
-6.03356e-05
-3.03228e-05
0.000173361
-5.17909e-05
-1.49279e-05
0.000186676
-3.3903e-05
5.38241e-06
0.000187029
-1.62127e-05
2.1381e-05
0.000182331
-9.21766e-06
2.63047e-05
0.000181711
-1.0528e-05
2.39896e-05
0.000184331
-1.3051e-05
2.35485e-05
0.000184821
-1.23538e-05
2.66676e-05
0.000182979
-9.1524e-06
2.74617e-05
0.000182459
-6.72632e-06
2.33003e-05
0.000182881
-5.19921e-06
1.8327e-05
0.000179539
-2.97904e-06
1.67908e-05
0.000169139
-1.32753e-06
1.80581e-05
0.000152613
-3.91897e-06
1.97386e-05
0.000134988
-9.32263e-06
2.07923e-05
0.000122648
-9.16874e-06
2.04617e-05
0.000118003
-2.98432e-07
1.81314e-05
0.000119383
7.48884e-06
1.63253e-05
0.000124807
2.31151e-06
1.74329e-05
0.000132717
-1.75913e-05
2.00496e-05
0.000141248
-4.32236e-05
2.0887e-05
0.000146569
-6.422e-05
2.039e-05
0.000144681
-7.6899e-05
2.39563e-05
0.000139328
-8.44341e-05
3.35679e-05
0.000142106
-8.60669e-05
3.98413e-05
0.000157337
-7.43242e-05
3.16539e-05
0.000176164
-4.90776e-05
1.20398e-05
0.000186377
-2.12495e-05
-6.82776e-06
0.00018416
-4.73373e-06
-1.493e-05
0.000176298
6.42352e-07
-1.48009e-05
0.000169648
5.65798e-07
-1.18889e-05
0.000164342
1.40489e-06
-1.00668e-05
3.90928e-06
-1.06929e-05
0.000182043
2.56684e-06
-3.97639e-06
0.000190446
-3.11865e-07
-6.33892e-06
0.000195381
-6.80819e-06
-1.10121e-05
0.000189148
-1.79288e-05
-1.97998e-05
0.000174657
-3.50237e-05
-3.29828e-05
0.000162408
-5.19531e-05
-4.63961e-05
0.000158485
-6.15859e-05
-5.26478e-05
0.000164473
-6.64801e-05
-4.79018e-05
0.000181394
-6.73984e-05
-3.36586e-05
0.000202338
-5.73855e-05
-1.18661e-05
0.000212747
-3.68812e-05
1.1452e-05
0.000209362
-1.97197e-05
2.39307e-05
0.000205207
-1.72424e-05
2.31283e-05
0.000209325
-2.24963e-05
1.95572e-05
0.000214852
-2.16852e-05
2.17216e-05
0.000213266
-1.19777e-05
2.52895e-05
0.000208956
-3.84797e-06
2.35662e-05
0.000210156
-3.82318e-06
1.80558e-05
0.00021504
-6.92182e-06
1.50279e-05
0.000214373
-7.35999e-06
1.67995e-05
0.000201937
-6.27265e-06
2.01748e-05
0.00018019
-5.67096e-06
2.23525e-05
0.000158723
-2.53492e-06
2.29692e-05
0.000146147
5.01618e-06
2.20764e-05
0.000143879
1.03343e-05
2.10421e-05
0.000149182
2.84026e-06
2.10403e-05
0.000158579
-1.87773e-05
2.04268e-05
0.000169276
-4.41726e-05
1.67139e-05
0.000177759
-6.16235e-05
1.18089e-05
0.0001792
-6.82518e-05
1.42306e-05
0.000171982
-7.04062e-05
2.76994e-05
0.000165374
-7.61961e-05
4.24988e-05
0.000172488
-7.9983e-05
4.21879e-05
0.00019152
-6.75863e-05
2.42323e-05
0.000205311
-3.67656e-05
2.60503e-06
0.00020217
-4.86245e-06
-1.18055e-05
0.000188549
1.0793e-05
-1.50715e-05
0.000178265
8.78432e-06
-1.13391e-05
0.000175428
2.99041e-06
-6.18003e-06
2.02843e-06
-3.60196e-06
0.000193361
2.68343e-06
7.26455e-06
0.000206242
-2.55616e-06
9.99588e-06
0.000222507
-8.21849e-06
7.36894e-06
0.000227822
-1.08816e-05
-3.52585e-06
0.000215657
-1.78894e-05
-2.19437e-05
0.000196871
-3.51455e-05
-4.28539e-05
0.00018542
-5.21971e-05
-5.95695e-05
0.000185156
-6.26865e-05
-6.3717e-05
0.000194655
-6.94464e-05
-5.37179e-05
0.000213441
-7.16322e-05
-3.25893e-05
0.0002341
-6.11677e-05
-6.05661e-06
0.000242291
-3.99743e-05
1.59929e-05
0.000236456
-2.54587e-05
2.21739e-05
0.000231802
-2.73169e-05
1.75511e-05
0.000237271
-3.15932e-05
1.50247e-05
0.000242912
-2.10049e-05
1.80385e-05
0.000239663
-2.75294e-06
1.99647e-05
0.000234284
4.0339e-06
1.69308e-05
0.000237177
-4.97257e-06
1.28414e-05
0.000246731
-1.8202e-05
1.3633e-05
0.000249091
-2.17203e-05
1.84437e-05
0.000234057
-1.14531e-05
2.18922e-05
0.000207926
4.064e-06
2.2984e-05
0.000185925
1.57191e-05
2.40119e-05
0.000176819
1.64307e-05
2.59724e-05
0.000179489
2.29582e-06
2.65303e-05
0.000188979
-2.39443e-05
2.23796e-05
0.000201609
-5.05349e-05
1.2217e-05
0.000213293
-6.35224e-05
-1.22695e-07
0.000217958
-6.10803e-05
-2.67369e-06
0.00021139
-5.44295e-05
1.42084e-05
0.000198506
-5.61452e-05
3.77497e-05
0.000194368
-7.00681e-05
4.73823e-05
0.000206086
-7.49641e-05
3.37544e-05
0.000219556
-5.0124e-05
1.04379e-05
0.000218685
-7.4016e-06
-7.68271e-06
0.000205221
1.99073e-05
-1.50809e-05
0.000192553
1.99308e-05
-1.30108e-05
0.00018746
9.10297e-06
-5.16645e-06
4.32502e-06
2.06199e-06
0.000209573
8.86238e-06
6.87865e-06
0.000217297
-1.8842e-06
1.68264e-05
0.000237177
-1.26441e-05
2.25858e-05
0.000256252
-1.1113e-05
1.57681e-05
0.000256653
-4.29583e-06
-4.89679e-06
0.000239277
-1.23492e-05
-3.17005e-05
0.000220635
-3.3046e-05
-5.64456e-05
0.000213661
-5.092e-05
-7.19941e-05
0.000218332
-6.22955e-05
-7.1662e-05
0.000230789
-7.22265e-05
-5.53682e-05
0.000250403
-7.68498e-05
-2.82822e-05
0.00026918
-6.64561e-05
7.39731e-07
0.000273594
-4.40089e-05
1.69109e-05
0.000264482
-3.02195e-05
1.62388e-05
0.000258823
-3.12263e-05
1.03643e-05
0.000264383
-2.81982e-05
1.06007e-05
0.000270981
-1.1591e-05
1.55091e-05
0.000269538
4.35835e-06
1.74375e-05
0.000264768
3.02316e-06
1.41447e-05
0.00026811
-1.82675e-05
1.19441e-05
0.000279666
-3.97489e-05
1.56003e-05
0.000282029
-3.26438e-05
1.97304e-05
0.000264449
-1.21877e-06
2.05544e-05
0.000239299
2.41e-05
2.29778e-05
0.000222729
2.56491e-05
2.96513e-05
0.000218024
7.64519e-06
3.27559e-05
0.000221471
-2.22123e-05
2.50302e-05
0.000232026
-5.34018e-05
8.09883e-06
0.000247568
-7.09488e-05
-8.97798e-06
0.000258184
-6.40022e-05
-1.71792e-05
0.000254701
-4.44416e-05
-4.7985e-06
0.000238949
-3.55922e-05
2.62557e-05
0.000224879
-4.90085e-05
4.77865e-05
0.000225044
-6.69198e-05
4.22932e-05
0.000233852
-5.45541e-05
1.97316e-05
0.000236838
-1.16736e-05
-1.25858e-06
0.000230774
2.24216e-05
-1.38612e-05
0.000222124
2.76316e-05
-1.73553e-05
0.000215469
1.77161e-05
-1.18399e-05
1.19288e-05
-2.08788e-06
0.000240631
1.89203e-05
-5.94712e-06
0.0002404
4.09376e-06
4.21664e-06
0.000255002
-1.53071e-05
1.7592e-05
0.000279484
-1.68576e-05
2.21267e-05
0.000293705
-4.75637e-07
8.56367e-06
0.000286103
6.49984e-06
-1.92664e-05
0.000265661
-1.00045e-05
-4.69641e-05
0.000250565
-3.22592e-05
-7.02466e-05
0.000249975
-4.89342e-05
-8.17486e-05
0.000259566
-6.38271e-05
-7.55255e-05
0.00027421
-7.96789e-05
-5.21184e-05
0.000291736
-8.49137e-05
-1.99956e-05
0.000303275
-6.70908e-05
5.61487e-06
0.000300231
-3.95054e-05
1.21897e-05
0.000290052
-2.64785e-05
6.99917e-06
0.000287536
-2.53209e-05
5.08259e-06
0.000295499
-1.90902e-05
1.15255e-05
0.000303996
-5.61372e-06
1.87218e-05
0.000304513
2.5149e-06
1.87645e-05
0.000300078
-9.93912e-06
1.38762e-05
0.000302061
-3.91178e-05
1.21472e-05
0.000310904
-4.95408e-05
1.45946e-05
0.000311406
-2.2138e-05
1.66614e-05
0.000297362
1.39226e-05
2.17094e-05
0.000279039
2.68564e-05
3.25746e-05
0.000265504
1.79796e-05
3.77255e-05
0.000257827
-4.71745e-06
2.5649e-05
0.000259233
-3.728e-05
2.23561e-06
0.000274145
-6.91699e-05
-1.65128e-05
0.00029315
-7.38981e-05
-2.59924e-05
0.00029782
-4.88765e-05
-1.79398e-05
0.000283748
-2.54981e-05
1.2475e-05
0.000263588
-2.69603e-05
4.3796e-05
0.000252506
-4.64512e-05
4.99122e-05
0.000253392
-4.55826e-05
3.10023e-05
0.000257227
-1.23439e-05
7.63388e-06
0.000259268
2.07842e-05
-1.09921e-05
0.000259045
2.84049e-05
-2.09133e-05
0.000255564
2.29629e-05
-2.04073e-05
2.12547e-05
-1.33758e-05
0.000289863
2.63135e-05
-2.14453e-05
0.000283362
1.2365e-05
-1.59009e-05
0.000287649
-1.11455e-05
-2.62083e-06
0.000307487
-2.09847e-05
1.01525e-05
0.000330268
-5.22538e-06
7.75607e-06
0.000335359
1.31174e-05
-1.18826e-05
0.000318881
8.66522e-06
-3.75984e-05
0.000297431
-9.86948e-06
-6.37069e-05
0.000289168
-2.91159e-05
-8.36511e-05
0.000296334
-4.89952e-05
-8.83726e-05
0.000309474
-7.27283e-05
-7.33217e-05
0.000322734
-9.08712e-05
-4.27259e-05
0.000333001
-8.31569e-05
-1.15871e-05
0.000333868
-5.13309e-05
4.69844e-06
0.000325923
-2.41105e-05
3.66466e-06
0.000319517
-1.66707e-05
4.90387e-07
0.000322588
-1.70366e-05
6.55636e-06
0.000333162
-1.2835e-05
1.8783e-05
0.000343022
-5.74652e-06
2.56867e-05
0.000344247
-7.88877e-06
2.13117e-05
0.000337783
-2.68417e-05
1.21855e-05
0.000333725
-4.48646e-05
9.21941e-06
0.000334078
-3.69307e-05
1.46541e-05
0.000329433
-9.36025e-06
2.57307e-05
0.000317521
1.35793e-05
3.73163e-05
0.000305926
2.11571e-05
3.78007e-05
0.000298113
1.22264e-05
2.02299e-05
0.00029473
-1.39542e-05
-5.1392e-06
0.00030374
-5.30027e-05
-2.43622e-05
0.000324881
-7.60795e-05
-3.065e-05
0.000338363
-6.05362e-05
-2.29751e-05
0.000329851
-2.83359e-05
2.57832e-06
0.000307797
-1.52232e-05
3.73514e-05
0.000289278
-2.40319e-05
5.45034e-05
0.000282366
-2.5557e-05
4.33491e-05
0.000284139
-2.89292e-06
1.87212e-05
0.000290217
2.11823e-05
-4.97072e-06
0.000297677
2.56752e-05
-2.09829e-05
0.000301446
2.11226e-05
-2.62972e-05
2.39153e-05
-2.40996e-05
0.000344199
2.11973e-05
-3.25544e-05
0.00033819
1.50163e-05
-2.90196e-05
0.000332227
-2.65915e-06
-1.70453e-05
0.000339688
-1.534e-05
-4.20044e-06
0.000362204
-8.09778e-06
-1.00012e-06
0.000379822
1.03019e-05
-1.1606e-05
0.000374751
1.80454e-05
-3.07319e-05
0.000353495
1.06063e-05
-5.5175e-05
0.000338489
-4.12455e-06
-7.99578e-05
0.000341084
-2.60533e-05
-9.42708e-05
0.000353959
-5.69819e-05
-8.95256e-05
0.000365788
-8.59687e-05
-6.54355e-05
0.000372518
-8.95294e-05
-3.22728e-05
0.000372529
-6.03749e-05
-7.98175e-06
0.000365875
-2.44684e-05
-1.30625e-06
0.000358546
-7.48337e-06
-2.98766e-06
0.000357686
-7.75254e-06
2.09271e-06
0.000365761
-1.15001e-05
1.71017e-05
0.00037882
-1.19048e-05
3.05404e-05
0.000386503
-1.20337e-05
3.01704e-05
0.00037973
-1.8643e-05
1.815e-05
0.000362517
-2.9097e-05
9.77376e-06
0.000347187
-3.09978e-05
1.39407e-05
0.000338936
-1.93063e-05
2.36839e-05
0.000336928
-2.54135e-06
2.86656e-05
0.000339911
1.15092e-05
2.22489e-05
0.000342492
1.66647e-05
4.22532e-06
0.000341238
3.35857e-06
-1.61665e-05
0.000344848
-3.20132e-05
-3.11692e-05
0.000361818
-6.83753e-05
-3.34656e-05
0.000379133
-6.97121e-05
-2.33641e-05
0.000375822
-3.86585e-05
-1.99237e-07
0.000353521
-1.4109e-05
3.21557e-05
0.00033117
-9.80609e-06
5.38405e-05
0.000320929
-6.35325e-06
4.958e-05
0.000321366
1.12791e-05
2.82938e-05
0.000325953
2.91912e-05
4.97467e-06
0.000331829
2.99431e-05
-1.36486e-05
0.000338317
1.9761e-05
-2.47835e-05
1.73783e-05
-3.02033e-05
0.000378864
4.54305e-06
-2.84396e-05
0.000381317
4.66793e-06
-2.40157e-05
0.000373768
-1.98465e-08
-1.27791e-05
0.000370232
-4.33781e-06
-3.86643e-06
0.000384829
-7.48811e-07
-2.97441e-06
0.000409641
1.066e-05
-1.06761e-05
0.000420862
2.23733e-05
-2.55233e-05
0.000410063
2.61196e-05
-4.67051e-05
0.000395675
2.05653e-05
-7.19909e-05
0.000395667
1.8288e-06
-9.27456e-05
0.000407535
-3.2703e-05
-9.87642e-05
0.00041865
-7.11717e-05
-8.49672e-05
0.000422485
-8.61308e-05
-5.59734e-05
0.000419594
-6.42414e-05
-2.64255e-05
0.00041209
-2.60506e-05
-9.8178e-06
0.0004045
-1.22151e-06
-4.95804e-06
0.000401844
3.1402e-06
-1.95972e-07
0.000405965
-2.662e-06
1.19716e-05
0.000414907
-9.08597e-06
2.71124e-05
0.000421909
-1.41016e-05
3.40194e-05
0.000418052
-1.73679e-05
2.64277e-05
0.000400998
-1.68814e-05
1.27211e-05
0.000380075
-1.35566e-05
6.04565e-06
0.000368222
-1.13096e-05
7.72909e-06
0.000371226
-1.15312e-05
9.94634e-06
0.000382817
-6.74786e-06
6.86419e-06
0.00038993
5.26858e-06
-3.15577e-06
0.000388038
9.89654e-06
-1.59244e-05
0.000387602
-1.22333e-05
-2.47777e-05
0.000399467
-5.33844e-05
-2.55925e-05
0.000417223
-7.25036e-05
-1.70671e-05
0.00042037
-5.14747e-05
2.29689e-06
0.000402916
-2.17148e-05
3.07714e-05
0.000380449
-5.33433e-06
5.25316e-05
0.0003665
8.07948e-06
5.05629e-05
0.000361086
2.77702e-05
3.24415e-05
0.000357886
4.25497e-05
1.6029e-05
0.000355503
3.77892e-05
4.31163e-06
0.000358072
1.93672e-05
-8.70264e-06
5.96021e-06
-2.18292e-05
0.000407997
-9.45337e-06
-1.31965e-05
0.000417022
-8.62147e-06
-1.4734e-05
0.00041378
-3.67134e-06
-5.32627e-06
0.000406492
5.34574e-06
5.82281e-06
0.000410503
1.60742e-05
7.81102e-06
0.000431405
2.41738e-05
-2.32289e-06
0.000454794
2.91919e-05
-1.91333e-05
0.000464217
3.40919e-05
-3.634e-05
0.000462501
3.6983e-05
-5.6778e-05
0.000465594
2.8082e-05
-8.00556e-05
0.000476695
-2.48837e-06
-9.75015e-05
0.000485175
-4.55505e-05
-9.73844e-05
0.000484399
-7.03154e-05
-7.74688e-05
0.000476341
-5.69203e-05
-4.83261e-05
0.000464877
-2.2428e-05
-2.42289e-05
0.000455053
2.64986e-06
-9.93955e-06
0.000451301
8.77293e-06
-8.09038e-07
0.000452693
5.41889e-06
9.28184e-06
0.00045506
-5.69561e-07
2.2754e-05
0.000454541
-8.21112e-06
3.25872e-05
0.00044876
-1.32465e-05
2.89932e-05
0.000437573
-9.07103e-06
1.36567e-05
0.000425938
-7.28313e-07
-9.79317e-07
0.00042127
-1.98018e-06
-5.36097e-06
0.000426611
-1.62492e-05
-7.51811e-07
0.000435276
-2.47874e-05
4.99578e-06
0.000436544
-1.1755e-05
3.4889e-06
0.000429882
8.03001e-06
-3.33228e-06
0.000426624
3.41745e-06
-9.46793e-06
0.000435304
-3.19519e-05
-1.1398e-05
0.000452693
-6.47098e-05
-6.14583e-06
0.000464112
-6.15102e-05
8.46697e-06
0.000457756
-3.26225e-05
3.06538e-05
0.000438728
-4.3752e-06
4.9448e-05
0.000418303
1.93365e-05
5.07271e-05
0.000401468
4.15734e-05
3.68731e-05
0.000388413
5.53147e-05
2.24812e-05
0.000381068
4.79706e-05
1.46645e-05
0.000382175
2.34652e-05
8.49581e-06
-1.89107e-07
-2.29305e-06
0.000446363
-1.77665e-06
8.86527e-06
0.000454164
-4.45931e-06
2.63557e-06
0.000452697
1.88085e-06
4.66325e-06
0.00044655
1.64359e-05
1.21526e-05
0.000446558
3.41476e-05
1.72125e-05
0.000459454
4.49206e-05
1.35867e-05
0.000480648
4.34507e-05
1.67991e-06
0.000501513
3.68621e-05
-1.57313e-05
0.000519694
3.393e-05
-3.39594e-05
0.00053842
3.19734e-05
-5.55711e-05
0.00055554
1.59502e-05
-7.91637e-05
0.000562752
-1.73581e-05
-9.43452e-05
0.000556566
-4.39338e-05
-8.91249e-05
0.000542372
-4.02468e-05
-6.49515e-05
0.000526186
-1.52016e-05
-3.68678e-05
0.000512129
5.64549e-06
-1.71669e-05
0.000503144
1.24722e-05
-5.03756e-06
0.000498516
1.21721e-05
6.08351e-06
0.00049517
8.68676e-06
1.90731e-05
0.000489574
2.03838e-06
2.93217e-05
0.000481437
-2.4483e-06
2.66179e-05
0.000475939
1.08596e-06
9.64778e-06
0.000479362
7.26317e-06
-9.22271e-06
0.000490504
1.26401e-06
-1.35647e-05
0.000499368
-2.1395e-05
-2.03002e-06
0.000496552
-3.82903e-05
1.22696e-05
0.000483545
-2.73063e-05
1.75147e-05
0.000471912
5.07949e-07
1.80471e-05
0.000471339
1.22433e-05
1.82957e-05
0.000482328
-8.1308e-06
1.27828e-05
0.000499406
-4.31938e-05
5.0106e-06
0.000513407
-5.76234e-05
9.4311e-06
0.000513557
-3.76887e-05
2.86975e-05
0.000497548
-2.18872e-06
4.63901e-05
0.000471917
2.92449e-05
4.57722e-05
0.000445025
5.15262e-05
3.15781e-05
0.000425212
6.16919e-05
2.29832e-05
0.000417665
5.50916e-05
2.5593e-05
0.000421733
3.46489e-05
2.79008e-05
1.20473e-05
2.0511e-05
0.000493125
2.10377e-05
2.29078e-05
0.000506871
1.56124e-05
9.21053e-06
0.000512076
1.70053e-05
6.09754e-06
0.000508534
2.55848e-05
1.59378e-05
0.000504773
4.0814e-05
2.94358e-05
0.000509091
5.57903e-05
3.34925e-05
0.000521239
5.88538e-05
2.22835e-05
0.000537746
4.56445e-05
4.14163e-06
0.000559578
2.50956e-05
-9.79336e-06
0.000587994
1.03192e-05
-2.22649e-05
0.000615997
2.44988e-06
-4.44069e-05
0.000629238
-7.24023e-06
-7.24983e-05
0.000624
-1.88508e-05
-8.73647e-05
0.000611521
-1.97027e-05
-7.9702e-05
0.0006005
-7.02779e-06
-5.76268e-05
0.000590209
5.14376e-06
-3.32961e-05
0.000577401
1.23531e-05
-1.36068e-05
0.000562408
1.72535e-05
-3.37176e-07
0.000547887
1.79631e-05
9.28068e-06
0.000535901
1.23048e-05
1.92289e-05
0.000528914
3.77665e-06
2.676e-05
0.000531797
-1.6293e-06
2.3683e-05
0.000548441
-6.69326e-06
1.06356e-05
0.00057275
-1.90427e-05
-6.63236e-07
0.000586498
-3.86734e-05
3.22711e-06
0.000577072
-5.16478e-05
2.32541e-05
0.00055241
-3.97978e-05
4.49983e-05
0.000533044
-5.29931e-06
5.62893e-05
0.000530124
2.5264e-05
5.20237e-05
0.000539306
2.54287e-05
3.10419e-05
0.000552999
-4.92361e-06
7.24382e-06
0.000565071
-3.69449e-05
2.05154e-07
0.000565208
-3.58315e-05
1.3612e-05
0.000546929
-2.67603e-06
3.32276e-05
0.000515669
3.55531e-05
3.95622e-05
0.000484173
6.13487e-05
3.04234e-05
0.000464351
7.24392e-05
2.35203e-05
0.000459569
6.92266e-05
2.85546e-05
0.000465451
5.38739e-05
3.68218e-05
3.47261e-05
3.5647e-05
0.000554939
3.80983e-05
1.07063e-05
0.000565742
2.86475e-05
1.32348e-05
0.000569876
2.63231e-05
1.75112e-05
0.000566335
2.95029e-05
2.42881e-05
0.000561453
3.71558e-05
3.30916e-05
0.000563144
4.51718e-05
4.07632e-05
0.000573793
4.4795e-05
4.10461e-05
0.000589407
3.1631e-05
2.91129e-05
0.000606908
1.03248e-05
8.6803e-06
0.000628041
-7.26212e-06
-1.29449e-05
0.000655283
-1.63534e-05
-3.34293e-05
0.000681382
-1.85331e-05
-5.33193e-05
0.000693265
-1.53966e-05
-6.9413e-05
0.000688188
-5.36129e-06
-7.59888e-05
0.000676226
8.48736e-06
-7.09682e-05
0.000665476
1.72113e-05
-5.69256e-05
0.000656814
1.92978e-05
-3.79012e-05
0.000646824
1.87274e-05
-2.06132e-05
0.000632779
1.68631e-05
-1.02824e-05
0.0006159
1.31531e-05
-1.93776e-06
0.000603311
7.95861e-06
9.72534e-06
0.00060308
-1.90415e-06
2.29853e-05
0.000616901
-2.04549e-05
2.90373e-05
0.000636253
-4.38204e-05
2.48289e-05
0.000646817
-6.03976e-05
2.00559e-05
0.000639976
-6.04263e-05
2.90492e-05
0.000620673
-3.98016e-05
5.09359e-05
0.000601225
-1.36575e-06
6.52827e-05
0.000589634
3.46978e-05
5.5039e-05
0.000586326
4.29286e-05
2.33374e-05
0.000592046
1.54661e-05
-7.91644e-06
0.000603789
-2.58659e-05
-1.75896e-05
0.000609826
-4.19411e-05
-2.86254e-06
0.000598229
-1.71183e-05
2.07904e-05
0.000570812
2.81318e-05
3.58494e-05
0.000543516
6.60869e-05
3.54407e-05
0.000529113
8.88295e-05
2.64537e-05
0.000527992
9.34331e-05
1.72763e-05