/*--------------------------------*- C++ -*----------------------------------*\
| =========                 |                                                 |
| \\      /  F ield         | OpenFOAM: The Open Source CFD Toolbox           |
|  \\    /   O peration     | Version:  2306                                  |
|   \\  /    A nd           | Website:  www.openfoam.com                      |
|    \\/     M anipulation  |                                                 |
\*---------------------------------------------------------------------------*/
FoamFile
{
    version     2.0;
    format      ascii;
    arch        "LSB;label=32;scalar=64";
    class       volScalarField;
    location    "8.5";
    object      pPrime2Mean;
}
// * * * * * * * * * * * * * * * * * * * * * * * * * * * * * * * * * * * * * //

dimensions      [0 4 -4 0 0 0 0];

internalField   nonuniform List<scalar> 
60000
(
4.01827e-09
7.79514e-09
1.55221e-08
2.33445e-08
2.85357e-08
3.05164e-08
2.97434e-08
2.68111e-08
2.31068e-08
2.2e-08
2.63226e-08
3.42298e-08
4.0567e-08
4.1375e-08
3.57367e-08
2.55012e-08
1.4989e-08
8.21913e-09
5.43192e-09
4.61587e-09
5.95674e-09
1.23723e-08
2.41801e-08
3.70736e-08
4.57091e-08
4.66074e-08
4.00645e-08
3.05843e-08
2.43941e-08
2.54655e-08
3.07131e-08
3.34066e-08
3.13419e-08
2.59179e-08
1.8919e-08
1.29268e-08
1.03951e-08
1.04946e-08
9.24853e-09
5.63479e-09
3.83328e-09
7.47992e-09
1.52303e-08
2.31872e-08
2.84956e-08
3.05014e-08
2.96782e-08
2.66742e-08
2.2906e-08
2.17629e-08
2.61329e-08
3.41594e-08
4.06128e-08
4.15084e-08
3.59274e-08
2.57089e-08
1.51588e-08
8.32065e-09
5.4706e-09
4.60066e-09
5.8932e-09
1.22775e-08
2.40788e-08
3.69618e-08
4.55875e-08
4.65067e-08
4.00292e-08
3.06071e-08
2.4433e-08
2.55196e-08
3.08603e-08
3.36936e-08
3.17414e-08
2.63517e-08
1.92879e-08
1.31566e-08
1.04996e-08
1.05534e-08
9.311e-09
5.62169e-09
3.57886e-09
7.15872e-09
1.50462e-08
2.32497e-08
2.87644e-08
3.08495e-08
2.99757e-08
2.6824e-08
2.28526e-08
2.15032e-08
2.5824e-08
3.40062e-08
4.06862e-08
4.17825e-08
3.63278e-08
2.61088e-08
1.5432e-08
8.42888e-09
5.46123e-09
4.52273e-09
5.78229e-09
1.21911e-08
2.40617e-08
3.69974e-08
4.56414e-08
4.65365e-08
3.99854e-08
3.04759e-08
2.42648e-08
2.54382e-08
3.09922e-08
3.40643e-08
3.22921e-08
2.69522e-08
1.97616e-08
1.33836e-08
1.05294e-08
1.05466e-08
9.33526e-09
5.55207e-09
3.25221e-09
6.83488e-09
1.49955e-08
2.3581e-08
2.94079e-08
3.16531e-08
3.07511e-08
2.73881e-08
2.3068e-08
2.1311e-08
2.54225e-08
3.3755e-08
4.07706e-08
4.21938e-08
3.69499e-08
2.67248e-08
1.58306e-08
8.55365e-09
5.39592e-09
4.3642e-09
5.63047e-09
1.21609e-08
2.42044e-08
3.72622e-08
4.59301e-08
4.67128e-08
3.99295e-08
3.01759e-08
2.38897e-08
2.52608e-08
3.11606e-08
3.4545e-08
3.30079e-08
2.77351e-08
2.03573e-08
1.36111e-08
1.04846e-08
1.04769e-08
9.32706e-09
5.42647e-09
2.86929e-09
6.44778e-09
1.49473e-08
2.40227e-08
3.02775e-08
3.27989e-08
3.19802e-08
2.84578e-08
2.3745e-08
2.14098e-08
2.50442e-08
3.33499e-08
4.06967e-08
4.25471e-08
3.76464e-08
2.75037e-08
1.63765e-08
8.73566e-09
5.30341e-09
4.13431e-09
5.41875e-09
1.21381e-08
2.44049e-08
3.76187e-08
4.63955e-08
4.71599e-08
4.01398e-08
3.00927e-08
2.37002e-08
2.52719e-08
3.15115e-08
3.51727e-08
3.38642e-08
2.86974e-08
2.11346e-08
1.39643e-08
1.04971e-08
1.04455e-08
9.35103e-09
5.29755e-09
2.44764e-09
5.97627e-09
1.48262e-08
2.44673e-08
3.12593e-08
3.41449e-08
3.35085e-08
2.99618e-08
2.49559e-08
2.20523e-08
2.50075e-08
3.29571e-08
4.04221e-08
4.26428e-08
3.81744e-08
2.82761e-08
1.70282e-08
9.01584e-09
5.20941e-09
3.79645e-09
5.06516e-09
1.20152e-08
2.44717e-08
3.76438e-08
4.64401e-08
4.74167e-08
4.05884e-08
3.06584e-08
2.436e-08
2.60847e-08
3.25261e-08
3.62359e-08
3.49738e-08
2.98726e-08
2.21315e-08
1.45422e-08
1.07447e-08
1.06641e-08
9.59151e-09
5.25916e-09
2.15246e-09
5.16179e-09
1.42347e-08
2.46025e-08
3.23539e-08
3.60334e-08
3.5741e-08
3.19607e-08
2.65495e-08
2.32519e-08
2.56159e-08
3.30005e-08
4.02327e-08
4.25473e-08
3.8405e-08
2.885e-08
1.76589e-08
9.3742e-09
5.1553e-09
3.35427e-09
4.46001e-09
1.16917e-08
2.45717e-08
3.77623e-08
4.6217e-08
4.69952e-08
4.03448e-08
3.09922e-08
2.54877e-08
2.80132e-08
3.49759e-08
3.86309e-08
3.69957e-08
3.14642e-08
2.32992e-08
1.52898e-08
1.12633e-08
1.12673e-08
1.04664e-08
5.83563e-09
2.26453e-09
4.08041e-09
1.29916e-08
2.40633e-08
3.29842e-08
3.78999e-08
3.85011e-08
3.49654e-08
2.8949e-08
2.46853e-08
2.66572e-08
3.38559e-08
4.0788e-08
4.27821e-08
3.85884e-08
2.92122e-08
1.81498e-08
9.73335e-09
5.1507e-09
2.87803e-09
3.70586e-09
1.14002e-08
2.51765e-08
3.8666e-08
4.6436e-08
4.59447e-08
3.82944e-08
2.89978e-08
2.48417e-08
2.91987e-08
3.76051e-08
4.2144e-08
4.069e-08
3.45027e-08
2.50732e-08
1.59216e-08
1.15196e-08
1.18541e-08
1.18458e-08
7.20992e-09
2.94585e-09
2.98517e-09
1.13309e-08
2.31039e-08
3.33661e-08
3.97144e-08
4.1449e-08
3.85756e-08
3.23674e-08
2.68774e-08
2.73848e-08
3.44643e-08
4.19264e-08
4.40091e-08
3.95339e-08
2.99191e-08
1.8669e-08
1.00048e-08
5.10433e-09
2.45108e-09
3.15562e-09
1.16995e-08
2.70548e-08
4.12336e-08
4.7902e-08
4.48905e-08
3.44868e-08
2.39415e-08
2.12257e-08
2.86666e-08
3.96486e-08
4.53324e-08
4.42653e-08
3.78095e-08
2.72177e-08
1.67365e-08
1.18825e-08
1.24414e-08
1.33162e-08
9.17534e-09
4.33323e-09
2.08129e-09
9.24478e-09
2.1597e-08
3.34128e-08
4.14828e-08
4.45327e-08
4.25761e-08
3.65933e-08
2.99475e-08
2.82477e-08
3.37389e-08
4.12716e-08
4.42798e-08
4.05925e-08
3.14514e-08
2.01234e-08
1.0774e-08
5.09695e-09
2.03328e-09
2.99155e-09
1.31286e-08
3.1128e-08
4.6898e-08
5.27475e-08
4.64883e-08
3.17663e-08
1.81462e-08
1.58003e-08
2.65038e-08
4.06669e-08
4.80884e-08
4.78987e-08
4.15503e-08
2.9956e-08
1.77094e-08
1.23495e-08
1.31992e-08
1.49595e-08
1.15986e-08
6.28673e-09
1.66927e-09
6.72652e-09
1.8814e-08
3.20846e-08
4.24062e-08
4.72724e-08
4.66278e-08
4.13469e-08
3.4014e-08
2.96669e-08
3.24218e-08
3.86211e-08
4.19332e-08
3.95032e-08
3.19993e-08
2.19914e-08
1.26285e-08
5.80689e-09
1.75937e-09
3.09254e-09
1.55898e-08
3.7599e-08
5.6619e-08
6.28445e-08
5.37744e-08
3.41762e-08
1.56743e-08
1.10779e-08
2.28513e-08
3.94044e-08
4.86803e-08
5.03419e-08
4.57694e-08
3.44481e-08
2.06274e-08
1.36798e-08
1.39979e-08
1.61692e-08
1.38247e-08
7.64769e-09
1.78513e-09
4.30107e-09
1.4777e-08
2.82926e-08
4.07257e-08
4.81597e-08
4.94128e-08
4.54757e-08
3.85823e-08
3.26303e-08
3.20868e-08
3.54523e-08
3.75105e-08
3.52973e-08
2.95285e-08
2.19358e-08
1.41939e-08
7.34472e-09
2.45606e-09
3.54875e-09
1.76517e-08
4.34437e-08
6.64654e-08
7.44548e-08
6.43464e-08
4.12143e-08
1.77937e-08
8.38122e-09
1.7354e-08
3.42657e-08
4.55821e-08
4.9903e-08
4.86419e-08
3.95921e-08
2.57607e-08
1.68261e-08
1.53897e-08
1.66665e-08
1.47477e-08
8.20983e-09
2.0305e-09
2.52935e-09
1.04265e-08
2.24711e-08
3.56371e-08
4.56749e-08
4.9427e-08
4.70985e-08
4.13944e-08
3.58591e-08
3.3343e-08
3.37796e-08
3.36512e-08
3.01637e-08
2.47479e-08
1.91848e-08
1.39067e-08
8.86319e-09
4.80416e-09
5.72198e-09
1.85869e-08
4.41758e-08
6.91901e-08
7.91269e-08
7.00071e-08
4.71431e-08
2.17906e-08
7.74773e-09
1.0935e-08
2.52949e-08
3.83665e-08
4.56842e-08
4.81549e-08
4.28997e-08
3.14086e-08
2.14903e-08
1.79501e-08
1.73192e-08
1.48183e-08
8.3037e-09
2.3609e-09
1.57189e-09
6.58135e-09
1.59843e-08
2.82179e-08
3.98516e-08
4.59563e-08
4.52215e-08
4.09283e-08
3.70582e-08
3.4787e-08
3.37725e-08
3.24744e-08
2.80204e-08
2.20608e-08
1.6872e-08
1.27865e-08
9.56475e-09
7.36464e-09
8.78156e-09
1.9219e-08
4.10974e-08
6.53517e-08
7.69846e-08
7.0588e-08
5.04425e-08
2.61996e-08
9.07712e-09
6.45594e-09
1.61467e-08
2.93746e-08
3.93755e-08
4.43894e-08
4.27098e-08
3.48749e-08
2.5846e-08
2.03932e-08
1.78882e-08
1.45409e-08
8.94066e-09
3.77806e-09
1.84654e-09
3.93896e-09
1.02562e-08
2.0624e-08
3.23299e-08
3.98228e-08
4.05093e-08
3.74444e-08
3.52238e-08
3.4652e-08
3.40564e-08
3.30478e-08
2.94902e-08
2.36469e-08
1.79504e-08
1.33025e-08
9.66883e-09
7.8835e-09
9.60017e-09
1.78944e-08
3.53463e-08
5.71733e-08
7.06185e-08
6.78439e-08
5.15331e-08
2.96209e-08
1.16048e-08
5.14785e-09
1.04409e-08
2.18547e-08
3.27509e-08
3.9771e-08
4.07166e-08
3.61487e-08
2.87974e-08
2.23504e-08
1.84211e-08
1.45579e-08
1.0047e-08
6.0765e-09
3.79346e-09
3.47102e-09
6.63052e-09
1.4322e-08
2.45164e-08
3.20496e-08
3.35799e-08
3.16867e-08
3.0943e-08
3.23445e-08
3.34205e-08
3.32928e-08
3.11206e-08
2.6306e-08
2.05493e-08
1.51033e-08
1.02006e-08
7.74865e-09
9.90074e-09
1.71259e-08
3.01796e-08
4.74293e-08
6.02338e-08
6.05807e-08
4.91337e-08
3.13173e-08
1.4392e-08
5.92883e-09
7.69127e-09
1.63214e-08
2.66277e-08
3.47385e-08
3.85622e-08
3.72277e-08
3.15226e-08
2.46165e-08
1.94656e-08
1.50189e-08
1.12106e-08
8.24749e-09
6.39194e-09
5.19107e-09
6.2557e-09
1.08852e-08
1.79331e-08
2.37236e-08
2.55032e-08
2.46559e-08
2.51336e-08
2.83806e-08
3.19941e-08
3.35948e-08
3.22139e-08
2.78593e-08
2.22006e-08
1.66743e-08
1.14192e-08
8.81707e-09
1.17068e-08
1.87123e-08
2.79171e-08
3.92912e-08
4.86042e-08
5.02431e-08
4.29652e-08
3.02851e-08
1.65417e-08
7.80797e-09
6.92493e-09
1.30403e-08
2.23917e-08
3.06887e-08
3.57426e-08
3.6614e-08
3.28454e-08
2.66155e-08
2.10188e-08
1.59692e-08
1.05161e-08
9.40689e-09
9.26262e-09
8.67413e-09
8.56909e-09
1.0185e-08
1.33269e-08
1.5989e-08
1.68876e-08
1.71252e-08
1.91341e-08
2.40888e-08
3.04598e-08
3.42835e-08
3.36255e-08
2.92999e-08
2.33892e-08
1.74787e-08
1.20697e-08
9.5704e-09
1.27969e-08
1.98145e-08
2.74284e-08
3.53359e-08
4.17263e-08
4.27808e-08
3.77737e-08
2.76858e-08
1.65764e-08
9.06999e-09
8.20944e-09
1.35035e-08
2.22096e-08
3.07234e-08
3.61176e-08
3.65109e-08
3.18524e-08
2.46732e-08
1.83665e-08
1.37721e-08
9.06059e-09
9.80166e-09
1.13478e-08
1.21567e-08
1.27904e-08
1.33573e-08
1.33228e-08
1.25517e-08
1.10685e-08
1.04855e-08
1.27404e-08
1.83825e-08
2.63909e-08
3.3315e-08
3.56144e-08
3.29656e-08
2.78435e-08
2.22163e-08
1.65343e-08
1.25347e-08
1.31757e-08
1.76977e-08
2.31721e-08
2.95416e-08
3.59493e-08
3.81036e-08
3.39569e-08
2.56206e-08
1.60476e-08
9.42343e-09
8.78395e-09
1.38683e-08
2.24548e-08
3.11463e-08
3.64916e-08
3.66079e-08
3.12451e-08
2.27137e-08
1.52046e-08
1.07541e-08
8.36563e-09
9.63221e-09
1.19366e-08
1.38195e-08
1.51572e-08
1.59094e-08
1.54482e-08
1.38552e-08
1.17253e-08
1.01082e-08
1.03132e-08
1.29625e-08
1.81248e-08
2.43705e-08
2.89886e-08
3.02305e-08
2.89671e-08
2.72725e-08
2.47938e-08
2.08929e-08
1.79374e-08
1.77283e-08
1.9329e-08
2.37959e-08
3.05927e-08
3.47691e-08
3.25077e-08
2.54036e-08
1.68397e-08
1.03833e-08
8.58394e-09
1.2486e-08
2.06752e-08
2.95832e-08
3.53758e-08
3.57988e-08
3.06564e-08
2.22219e-08
1.43561e-08
9.63414e-09
7.07901e-09
7.36793e-09
1.03367e-08
1.41452e-08
1.78214e-08
2.01114e-08
1.96233e-08
1.69372e-08
1.38319e-08
1.14452e-08
1.05972e-08
1.16389e-08
1.43578e-08
1.83568e-08
2.29028e-08
2.63086e-08
2.76535e-08
2.81067e-08
2.79223e-08
2.5589e-08
2.17358e-08
1.93253e-08
1.9377e-08
2.2919e-08
2.97333e-08
3.50552e-08
3.35367e-08
2.55859e-08
1.5639e-08
8.10573e-09
6.24459e-09
1.17061e-08
2.24225e-08
3.36354e-08
4.0923e-08
4.20399e-08
3.75625e-08
2.90977e-08
1.90236e-08
1.10794e-08
1.18472e-08
9.34219e-09
9.27647e-09
1.06541e-08
1.30836e-08
1.56677e-08
1.6955e-08
1.63395e-08
1.44799e-08
1.26726e-08
1.18765e-08
1.2359e-08
1.40405e-08
1.64298e-08
1.92241e-08
2.22678e-08
2.47331e-08
2.68381e-08
2.84118e-08
2.78394e-08
2.49756e-08
2.21596e-08
2.10817e-08
2.27714e-08
2.77576e-08
3.30943e-08
3.35539e-08
2.73579e-08
1.72345e-08
8.01514e-09
4.6437e-09
9.86624e-09
2.21277e-08
3.63775e-08
4.61845e-08
4.8891e-08
4.5303e-08
3.74326e-08
2.72537e-08
1.79589e-08
1.56276e-08
1.23663e-08
1.10683e-08
1.08395e-08
1.09489e-08
1.17773e-08
1.2959e-08
1.36984e-08
1.38539e-08
1.38221e-08
1.4058e-08
1.49418e-08
1.64341e-08
1.81684e-08
1.99805e-08
2.17324e-08
2.32834e-08
2.4605e-08
2.56109e-08
2.5552e-08
2.38625e-08
2.16621e-08
2.0575e-08
2.13886e-08
2.429e-08
2.77467e-08
2.8243e-08
2.37514e-08
1.6165e-08
9.15776e-09
5.89565e-09
8.53387e-09
1.68939e-08
2.7688e-08
3.62169e-08
3.95951e-08
3.84353e-08
3.44511e-08
2.82481e-08
2.12383e-08
1.7954e-08
1.2268e-08
8.86329e-09
7.84044e-09
8.79093e-09
1.1375e-08
1.48359e-08
1.79445e-08
1.96116e-08
1.98333e-08
1.9421e-08
1.85925e-08
1.74131e-08
1.67429e-08
1.7633e-08
1.98138e-08
2.25983e-08
2.53105e-08
2.7106e-08
2.73344e-08
2.52956e-08
2.18876e-08
1.89675e-08
1.74381e-08
1.80794e-08
2.10241e-08
2.34738e-08
2.24073e-08
1.79757e-08
1.27779e-08
9.59381e-09
1.01063e-08
1.47742e-08
2.21959e-08
2.92487e-08
3.33729e-08
3.42899e-08
3.29416e-08
2.97173e-08
2.43846e-08
2.00619e-08
1.37487e-08
9.0018e-09
6.89377e-09
7.56086e-09
1.05346e-08
1.48374e-08
1.90583e-08
2.1639e-08
2.2536e-08
2.24651e-08
2.18912e-08
2.13601e-08
2.08785e-08
2.06997e-08
2.14629e-08
2.3701e-08
2.67916e-08
2.94247e-08
2.99464e-08
2.69535e-08
2.15196e-08
1.6207e-08
1.23413e-08
1.12692e-08
1.40382e-08
1.89019e-08
2.2147e-08
2.18697e-08
1.91141e-08
1.64574e-08
1.52336e-08
1.63397e-08
2.04248e-08
2.56121e-08
2.97193e-08
3.21651e-08
3.23521e-08
3.02532e-08
2.60386e-08
3.66611e-09
3.22052e-15
4.06747e-09
1.40798e-08
2.52846e-08
3.38694e-08
3.77661e-08
3.6221e-08
3.10062e-08
2.72624e-08
2.92554e-08
3.50873e-08
3.91449e-08
3.80751e-08
3.21373e-08
2.36347e-08
1.58024e-08
1.10073e-08
8.8445e-09
7.35776e-09
7.10699e-09
1.22965e-08
2.56362e-08
4.38633e-08
5.98247e-08
6.68337e-08
6.20503e-08
4.78681e-08
3.09468e-08
2.11468e-08
2.0839e-08
2.39263e-08
2.56755e-08
2.37817e-08
1.87764e-08
1.39054e-08
1.26508e-08
1.48965e-08
1.58093e-08
1.1145e-08
3.83822e-09
3.53616e-12
3.86971e-09
1.37443e-08
2.49099e-08
3.3513e-08
3.7467e-08
3.59779e-08
3.07963e-08
2.70729e-08
2.91208e-08
3.50524e-08
3.92054e-08
3.81914e-08
3.22753e-08
2.37732e-08
1.5921e-08
1.10926e-08
8.89541e-09
7.36994e-09
7.03202e-09
1.20469e-08
2.51634e-08
4.32218e-08
5.91809e-08
6.64052e-08
6.19902e-08
4.81526e-08
3.13503e-08
2.14352e-08
2.10114e-08
2.40983e-08
2.59491e-08
2.41753e-08
1.92136e-08
1.42863e-08
1.29117e-08
1.50804e-08
1.60129e-08
1.13762e-08
4.07689e-09
2.15026e-11
3.75975e-09
1.36425e-08
2.49082e-08
3.36304e-08
3.76608e-08
3.61572e-08
3.08464e-08
2.6962e-08
2.89763e-08
3.5017e-08
3.93079e-08
3.83777e-08
3.24917e-08
2.39796e-08
1.60877e-08
1.12061e-08
8.96087e-09
7.37866e-09
6.93507e-09
1.17985e-08
2.47835e-08
4.27947e-08
5.88314e-08
6.62762e-08
6.21539e-08
4.85494e-08
3.1725e-08
2.15941e-08
2.10137e-08
2.41036e-08
2.61471e-08
2.46011e-08
1.97314e-08
1.47222e-08
1.31889e-08
1.5308e-08
1.63487e-08
1.1761e-08
4.39351e-09
8.11964e-11
3.83452e-09
1.39306e-08
2.54499e-08
3.43752e-08
3.85214e-08
3.69479e-08
3.13194e-08
2.70203e-08
2.88157e-08
3.49286e-08
3.94021e-08
3.8597e-08
3.27569e-08
2.42261e-08
1.62752e-08
1.13248e-08
9.02618e-09
7.37977e-09
6.84029e-09
1.16493e-08
2.46926e-08
4.28404e-08
5.90091e-08
6.65625e-08
6.25053e-08
4.89012e-08
3.19152e-08
2.15472e-08
2.08434e-08
2.3924e-08
2.61881e-08
2.4951e-08
2.02392e-08
1.51772e-08
1.35052e-08
1.56417e-08
1.68948e-08
1.23429e-08
4.89172e-09
2.44652e-10
4.13317e-09
1.46312e-08
2.6534e-08
3.5741e-08
4.00994e-08
3.85013e-08
3.24522e-08
2.7468e-08
2.8741e-08
3.47435e-08
3.93619e-08
3.87091e-08
3.29437e-08
2.4423e-08
1.64397e-08
1.1435e-08
9.07633e-09
7.35553e-09
6.73735e-09
1.15902e-08
2.48594e-08
4.32981e-08
5.96563e-08
6.72579e-08
6.31723e-08
4.94631e-08
3.22152e-08
2.15522e-08
2.07132e-08
2.3691e-08
2.60226e-08
2.50332e-08
2.05245e-08
1.55409e-08
1.38966e-08
1.62124e-08
1.77948e-08
1.32642e-08
5.77928e-09
6.07028e-10
4.63591e-09
1.56315e-08
2.79536e-08
3.75355e-08
4.2245e-08
4.08094e-08
3.44025e-08
2.86375e-08
2.91169e-08
3.46633e-08
3.92014e-08
3.86177e-08
3.29189e-08
2.44485e-08
1.65081e-08
1.15216e-08
9.12987e-09
7.29795e-09
6.54078e-09
1.13973e-08
2.48586e-08
4.35372e-08
6.01228e-08
6.80481e-08
6.44435e-08
5.10647e-08
3.36481e-08
2.24342e-08
2.12214e-08
2.38679e-08
2.58885e-08
2.47903e-08
2.0373e-08
1.56358e-08
1.43697e-08
1.71943e-08
1.93039e-08
1.47882e-08
7.49786e-09
1.335e-09
5.26421e-09
1.68149e-08
2.95486e-08
3.93932e-08
4.45607e-08
4.35373e-08
3.69525e-08
3.05065e-08
3.02324e-08
3.51354e-08
3.92897e-08
3.85124e-08
3.27187e-08
2.42554e-08
1.64076e-08
1.15332e-08
9.17982e-09
7.19099e-09
6.07033e-09
1.06561e-08
2.41873e-08
4.31308e-08
5.99964e-08
6.84123e-08
6.57683e-08
5.35553e-08
3.66369e-08
2.49951e-08
2.32968e-08
2.54413e-08
2.6663e-08
2.47457e-08
1.98737e-08
1.53379e-08
1.48627e-08
1.87468e-08
2.17678e-08
1.74026e-08
1.02617e-08
2.5434e-09
5.69618e-09
1.76047e-08
3.09576e-08
4.1076e-08
4.67137e-08
4.64251e-08
3.99879e-08
3.25925e-08
3.12742e-08
3.56741e-08
3.96957e-08
3.88171e-08
3.27909e-08
2.41031e-08
1.61811e-08
1.13887e-08
9.15031e-09
7.02506e-09
5.2944e-09
9.2281e-09
2.27489e-08
4.2241e-08
5.96886e-08
6.85835e-08
6.65818e-08
5.53079e-08
3.94579e-08
2.82931e-08
2.66539e-08
2.86533e-08
2.9138e-08
2.59786e-08
1.99498e-08
1.50622e-08
1.53315e-08
2.05838e-08
2.49485e-08
2.10421e-08
1.36734e-08
4.27192e-09
5.98437e-09
1.77521e-08
3.17813e-08
4.23615e-08
4.84091e-08
4.90738e-08
4.34164e-08
3.53531e-08
3.22786e-08
3.53548e-08
3.9087e-08
3.86275e-08
3.30521e-08
2.44721e-08
1.63283e-08
1.12688e-08
8.96075e-09
6.79068e-09
4.53333e-09
7.60976e-09
2.08098e-08
4.04473e-08
5.7916e-08
6.65646e-08
6.4163e-08
5.30939e-08
3.89579e-08
3.03437e-08
3.01892e-08
3.23994e-08
3.2292e-08
2.81712e-08
2.11165e-08
1.56468e-08
1.62281e-08
2.22726e-08
2.78269e-08
2.48887e-08
1.72646e-08
6.53757e-09
6.40062e-09
1.74793e-08
3.22695e-08
4.36326e-08
4.98299e-08
5.11736e-08
4.66835e-08
3.86564e-08
3.40298e-08
3.50472e-08
3.7673e-08
3.72873e-08
3.25499e-08
2.48741e-08
1.70505e-08
1.16171e-08
8.8336e-09
6.52326e-09
4.14473e-09
6.74396e-09
1.9601e-08
3.90202e-08
5.55881e-08
6.28247e-08
5.87659e-08
4.66152e-08
3.41742e-08
2.98104e-08
3.31892e-08
3.6887e-08
3.6643e-08
3.16688e-08
2.33613e-08
1.69499e-08
1.75308e-08
2.39874e-08
3.02057e-08
2.83665e-08
2.0543e-08
9.07719e-09
6.73236e-09
1.6175e-08
3.15892e-08
4.47964e-08
5.1584e-08
5.28041e-08
4.93454e-08
4.18902e-08
3.63907e-08
3.51613e-08
3.59321e-08
3.49152e-08
3.07303e-08
2.43518e-08
1.76179e-08
1.23141e-08
9.05467e-09
6.42622e-09
4.19144e-09
7.10557e-09
2.02963e-08
3.96709e-08
5.49151e-08
5.97697e-08
5.31773e-08
3.91904e-08
2.74063e-08
2.69363e-08
3.44832e-08
4.09432e-08
4.20097e-08
3.75772e-08
2.85561e-08
2.02912e-08
1.93034e-08
2.49972e-08
3.11398e-08
3.05568e-08
2.23889e-08
1.09585e-08
6.36021e-09
1.29561e-08
2.78953e-08
4.34542e-08
5.2464e-08
5.39478e-08
5.05906e-08
4.40559e-08
3.84997e-08
3.59488e-08
3.46933e-08
3.25187e-08
2.82362e-08
2.28401e-08
1.74471e-08
1.28878e-08
9.58941e-09
6.82631e-09
5.02215e-09
8.86256e-09
2.30443e-08
4.3073e-08
5.74212e-08
6.00195e-08
5.12792e-08
3.54329e-08
2.21891e-08
2.24519e-08
3.23549e-08
4.15169e-08
4.5063e-08
4.28561e-08
3.51178e-08
2.61792e-08
2.3267e-08
2.70661e-08
3.15265e-08
3.10451e-08
2.23838e-08
1.16567e-08
5.35885e-09
8.64013e-09
2.15063e-08
3.82178e-08
4.97258e-08
5.25402e-08
4.98049e-08
4.4218e-08
3.98371e-08
3.76941e-08
3.52766e-08
3.15738e-08
2.62883e-08
2.09782e-08
1.66895e-08
1.32259e-08
1.03876e-08
7.90832e-09
6.86831e-09
1.13999e-08
2.57559e-08
4.58916e-08
5.9991e-08
6.13005e-08
5.16864e-08
3.52997e-08
2.04624e-08
1.83084e-08
2.68191e-08
3.7131e-08
4.3397e-08
4.45261e-08
4.01546e-08
3.25171e-08
2.83989e-08
2.99903e-08
3.18172e-08
3.012e-08
2.08296e-08
1.12085e-08
4.0657e-09
4.34608e-09
1.40042e-08
2.9971e-08
4.33905e-08
4.82174e-08
4.66915e-08
4.2425e-08
3.9969e-08
3.97217e-08
3.7531e-08
3.26781e-08
2.63587e-08
2.05296e-08
1.65375e-08
1.37278e-08
1.13612e-08
9.39545e-09
8.90914e-09
1.28398e-08
2.4992e-08
4.31351e-08
5.70646e-08
5.8968e-08
5.03336e-08
3.50193e-08
2.05939e-08
1.58788e-08
2.0831e-08
2.95277e-08
3.6946e-08
4.11782e-08
4.11036e-08
3.67283e-08
3.24894e-08
3.18647e-08
3.12891e-08
2.7961e-08
1.91368e-08
1.05959e-08
3.3361e-09
1.23567e-09
7.27626e-09
2.08129e-08
3.49083e-08
4.18985e-08
4.22657e-08
3.97432e-08
3.88943e-08
4.04368e-08
3.95417e-08
3.50431e-08
2.9118e-08
2.32374e-08
1.82518e-08
1.40235e-08
1.05434e-08
8.69922e-09
9.16854e-09
1.29876e-08
2.27426e-08
3.84251e-08
5.23899e-08
5.62594e-08
4.90519e-08
3.47179e-08
2.08144e-08
1.44636e-08
1.64788e-08
2.3007e-08
3.02733e-08
3.61017e-08
3.88816e-08
3.7482e-08
3.39819e-08
3.18157e-08
2.97445e-08
2.5721e-08
1.6747e-08
9.97559e-09
3.72637e-09
1.8591e-10
2.4874e-09
1.19418e-08
2.45017e-08
3.30083e-08
3.56182e-08
3.534e-08
3.60848e-08
3.92549e-08
4.05892e-08
3.7445e-08
3.19386e-08
2.59573e-08
1.99775e-08
1.41237e-08
9.21918e-09
7.39071e-09
9.40001e-09
1.44164e-08
2.29052e-08
3.57354e-08
4.87523e-08
5.40866e-08
4.81127e-08
3.46433e-08
2.09666e-08
1.35931e-08
1.38129e-08
1.89412e-08
2.60186e-08
3.2874e-08
3.7797e-08
3.84271e-08
3.49613e-08
3.05795e-08
2.71135e-08
2.26212e-08
1.52543e-08
9.96894e-09
5.11108e-09
1.79938e-09
2.01182e-09
6.58209e-09
1.39232e-08
2.03958e-08
2.39808e-08
2.62502e-08
2.97835e-08
3.56932e-08
4.07253e-08
4.03837e-08
3.5242e-08
2.84113e-08
2.13629e-08
1.49927e-08
9.63931e-09
7.39799e-09
9.97224e-09
1.60796e-08
2.40279e-08
3.38513e-08
4.4115e-08
4.89432e-08
4.40891e-08
3.25929e-08
2.04878e-08
1.32614e-08
1.23728e-08
1.66534e-08
2.35757e-08
3.07351e-08
3.64123e-08
3.83567e-08
3.53067e-08
2.99662e-08
2.52662e-08
2.04691e-08
1.39969e-08
1.11207e-08
8.33058e-09
6.15776e-09
5.81687e-09
7.31953e-09
9.59017e-09
1.1352e-08
1.27613e-08
1.54976e-08
2.12736e-08
3.0212e-08
3.90488e-08
4.25936e-08
3.92283e-08
3.16275e-08
2.30029e-08
1.56746e-08
1.02712e-08
8.10337e-09
1.06271e-08
1.68342e-08
2.4545e-08
3.30595e-08
4.14225e-08
4.52102e-08
4.08682e-08
3.05703e-08
1.95391e-08
1.24773e-08
1.1338e-08
1.54208e-08
2.23853e-08
2.95522e-08
3.51115e-08
3.68027e-08
3.3353e-08
2.71939e-08
2.16697e-08
1.73929e-08
1.29121e-08
1.25345e-08
1.20639e-08
1.16737e-08
1.22033e-08
1.27936e-08
1.16861e-08
9.2561e-09
7.17665e-09
7.48784e-09
1.17535e-08
2.01061e-08
3.04753e-08
3.8655e-08
4.03343e-08
3.52898e-08
2.71059e-08
1.9519e-08
1.37441e-08
1.02762e-08
1.09612e-08
1.57721e-08
2.25798e-08
3.04598e-08
3.84312e-08
4.22133e-08
3.83595e-08
2.91222e-08
1.91195e-08
1.23361e-08
1.08405e-08
1.43339e-08
2.11223e-08
2.85155e-08
3.37562e-08
3.47876e-08
3.09216e-08
2.41226e-08
1.79799e-08
1.44081e-08
1.16378e-08
1.28713e-08
1.42522e-08
1.4898e-08
1.49748e-08
1.45563e-08
1.31374e-08
1.06581e-08
8.09927e-09
6.69662e-09
7.76642e-09
1.20936e-08
1.91627e-08
2.66987e-08
3.17574e-08
3.23582e-08
2.92749e-08
2.52382e-08
2.1142e-08
1.67768e-08
1.36878e-08
1.40574e-08
1.7961e-08
2.46209e-08
3.29595e-08
3.85488e-08
3.68256e-08
2.89963e-08
1.99539e-08
1.37665e-08
1.17615e-08
1.45876e-08
2.07866e-08
2.74085e-08
3.16181e-08
3.1878e-08
2.7964e-08
2.13938e-08
1.52156e-08
1.20146e-08
9.68352e-09
1.08624e-08
1.31763e-08
1.55872e-08
1.77317e-08
1.86472e-08
1.6988e-08
1.34599e-08
9.87735e-09
7.39495e-09
6.77181e-09
8.61955e-09
1.26192e-08
1.80314e-08
2.34945e-08
2.74774e-08
2.92881e-08
2.94423e-08
2.79972e-08
2.41611e-08
1.92609e-08
1.70639e-08
1.90534e-08
2.4026e-08
3.06378e-08
3.5333e-08
3.36536e-08
2.60458e-08
1.72573e-08
1.1072e-08
1.01042e-08
1.4653e-08
2.26771e-08
3.03405e-08
3.44686e-08
3.45317e-08
3.08105e-08
2.40771e-08
1.65735e-08
1.12648e-08
1.30673e-08
1.2374e-08
1.26861e-08
1.36232e-08
1.49578e-08
1.57847e-08
1.52355e-08
1.3275e-08
1.09344e-08
9.25073e-09
8.74263e-09
9.50021e-09
1.12962e-08
1.36518e-08
1.65582e-08
1.99728e-08
2.35684e-08
2.67126e-08
2.888e-08
2.89408e-08
2.68449e-08
2.50735e-08
2.53917e-08
2.72296e-08
2.99523e-08
3.21101e-08
3.05605e-08
2.43845e-08
1.61137e-08
9.49169e-09
7.77944e-09
1.23737e-08
2.13155e-08
3.06184e-08
3.64647e-08
3.72005e-08
3.40553e-08
2.83926e-08
2.16165e-08
1.59218e-08
1.55719e-08
1.36327e-08
1.31643e-08
1.30605e-08
1.31259e-08
1.33387e-08
1.31931e-08
1.24526e-08
1.13756e-08
1.08319e-08
1.15317e-08
1.33404e-08
1.54963e-08
1.71453e-08
1.79296e-08
1.83457e-08
1.90515e-08
2.02666e-08
2.17488e-08
2.26348e-08
2.23347e-08
2.172e-08
2.23054e-08
2.43767e-08
2.72412e-08
2.94613e-08
2.89163e-08
2.43108e-08
1.72089e-08
1.10303e-08
8.59441e-09
1.12549e-08
1.81626e-08
2.63719e-08
3.22867e-08
3.41045e-08
3.26441e-08
2.93831e-08
2.4867e-08
1.96292e-08
1.75642e-08
1.34676e-08
1.10329e-08
9.91809e-09
9.99669e-09
1.10599e-08
1.28174e-08
1.46625e-08
1.59006e-08
1.64019e-08
1.65515e-08
1.65632e-08
1.66556e-08
1.70086e-08
1.80405e-08
1.96254e-08
2.13854e-08
2.29323e-08
2.37944e-08
2.36003e-08
2.21583e-08
2.00363e-08
1.87313e-08
1.89405e-08
2.02332e-08
2.22113e-08
2.34887e-08
2.19404e-08
1.76102e-08
1.30811e-08
1.08955e-08
1.20861e-08
1.65865e-08
2.30174e-08
2.86483e-08
3.14673e-08
3.16152e-08
3.01777e-08
2.73119e-08
2.27635e-08
1.96317e-08
1.38155e-08
9.20269e-09
6.85185e-09
7.12995e-09
9.583e-09
1.34065e-08
1.74616e-08
2.02852e-08
2.15043e-08
2.171e-08
2.14945e-08
2.12607e-08
2.10906e-08
2.10971e-08
2.16295e-08
2.32331e-08
2.54016e-08
2.70757e-08
2.71268e-08
2.46044e-08
2.00989e-08
1.58834e-08
1.34339e-08
1.31371e-08
1.53762e-08
1.90042e-08
2.10858e-08
2.04721e-08
1.84012e-08
1.66238e-08
1.60242e-08
1.7168e-08
2.0292e-08
2.40621e-08
2.72135e-08
2.91814e-08
2.98277e-08
2.85858e-08
2.50933e-08
4.79574e-09
2.52494e-09
2.10732e-09
4.92472e-09
1.11533e-08
1.94562e-08
2.66299e-08
2.94539e-08
2.70848e-08
2.29738e-08
2.20562e-08
2.52646e-08
2.91016e-08
3.0079e-08
2.7426e-08
2.22756e-08
1.68299e-08
1.32305e-08
1.13717e-08
1.00893e-08
1.01438e-08
1.44695e-08
2.49183e-08
3.8975e-08
5.14948e-08
5.82717e-08
5.76707e-08
5.04422e-08
3.88775e-08
2.88576e-08
2.57774e-08
2.7637e-08
2.87659e-08
2.6702e-08
2.22262e-08
1.7098e-08
1.33263e-08
1.13944e-08
9.74877e-09
7.44236e-09
4.85645e-09
2.50865e-09
2.02289e-09
4.78705e-09
1.09729e-08
1.92569e-08
2.64598e-08
2.93598e-08
2.70728e-08
2.30101e-08
2.21052e-08
2.53179e-08
2.91576e-08
3.01327e-08
2.74693e-08
2.23189e-08
1.68638e-08
1.32484e-08
1.13773e-08
1.00737e-08
1.00865e-08
1.43415e-08
2.46999e-08
3.8651e-08
5.10812e-08
5.78243e-08
5.7243e-08
5.00603e-08
3.85534e-08
2.85358e-08
2.54772e-08
2.75229e-08
2.89702e-08
2.71786e-08
2.28302e-08
1.76872e-08
1.37999e-08
1.17319e-08
9.98387e-09
7.58834e-09
4.85181e-09
2.45699e-09
1.92902e-09
4.68404e-09
1.0881e-08
1.92186e-08
2.65202e-08
2.95194e-08
2.72556e-08
2.31215e-08
2.21346e-08
2.5325e-08
2.91903e-08
3.02008e-08
2.75694e-08
2.24362e-08
1.69644e-08
1.33111e-08
1.1409e-08
1.00623e-08
1.00056e-08
1.4176e-08
2.44824e-08
3.84273e-08
5.0868e-08
5.76537e-08
5.71154e-08
4.99242e-08
3.8319e-08
2.80757e-08
2.48811e-08
2.71348e-08
2.9074e-08
2.77585e-08
2.36855e-08
1.85567e-08
1.44785e-08
1.21538e-08
1.02026e-08
7.66638e-09
4.76209e-09
2.36172e-09
1.84121e-09
4.6393e-09
1.0909e-08
1.93855e-08
2.68685e-08
2.99813e-08
2.76387e-08
2.32655e-08
2.20724e-08
2.52191e-08
2.91583e-08
3.02645e-08
2.77254e-08
2.2667e-08
1.71924e-08
1.34771e-08
1.15062e-08
1.0078e-08
9.9366e-09
1.40579e-08
2.44194e-08
3.8504e-08
5.10631e-08
5.79381e-08
5.74232e-08
5.0142e-08
3.82858e-08
2.75795e-08
2.4028e-08
2.64032e-08
2.89355e-08
2.82927e-08
2.46859e-08
1.96819e-08
1.54123e-08
1.27364e-08
1.04495e-08
7.6727e-09
4.60609e-09
2.25614e-09
1.79621e-09
4.66402e-09
1.10356e-08
1.97048e-08
2.74527e-08
3.07044e-08
2.81868e-08
2.33922e-08
2.18343e-08
2.48764e-08
2.8915e-08
3.01702e-08
2.7825e-08
2.29483e-08
1.75496e-08
1.37989e-08
1.17204e-08
1.01423e-08
9.88558e-09
1.40222e-08
2.45992e-08
3.90008e-08
5.18214e-08
5.88215e-08
5.82674e-08
5.08447e-08
3.86971e-08
2.7385e-08
2.32095e-08
2.54216e-08
2.84513e-08
2.85718e-08
2.56319e-08
2.09784e-08
1.66603e-08
1.36187e-08
1.08462e-08
7.66557e-09
4.43013e-09
2.18269e-09
1.85383e-09
4.78395e-09
1.12285e-08
2.0115e-08
2.82094e-08
3.16634e-08
2.89207e-08
2.35476e-08
2.14314e-08
2.42027e-08
2.82565e-08
2.96736e-08
2.75552e-08
2.30302e-08
1.79351e-08
1.42786e-08
1.20909e-08
1.02782e-08
9.77912e-09
1.38207e-08
2.46428e-08
3.96056e-08
5.30424e-08
6.04574e-08
6.00093e-08
5.24676e-08
4.01238e-08
2.81553e-08
2.30565e-08
2.46286e-08
2.77481e-08
2.84872e-08
2.63238e-08
2.23234e-08
1.82584e-08
1.49749e-08
1.15912e-08
7.77134e-09
4.34065e-09
2.17706e-09
2.0807e-09
5.06504e-09
1.14419e-08
2.042e-08
2.89385e-08
3.27891e-08
2.99246e-08
2.39325e-08
2.11131e-08
2.33518e-08
2.71172e-08
2.84609e-08
2.65796e-08
2.26369e-08
1.81851e-08
1.48599e-08
1.26264e-08
1.05125e-08
9.54944e-09
1.30808e-08
2.37288e-08
3.91401e-08
5.36519e-08
6.24061e-08
6.29131e-08
5.56781e-08
4.33198e-08
3.0813e-08
2.45676e-08
2.49866e-08
2.74942e-08
2.8322e-08
2.6782e-08
2.36993e-08
2.03269e-08
1.70555e-08
1.29904e-08
8.24263e-09
4.58638e-09
2.25792e-09
2.46456e-09
5.55368e-09
1.17211e-08
2.04355e-08
2.91731e-08
3.35909e-08
3.09562e-08
2.46529e-08
2.11605e-08
2.26885e-08
2.59173e-08
2.69706e-08
2.51609e-08
2.19176e-08
1.84079e-08
1.5629e-08
1.3346e-08
1.0827e-08
9.16011e-09
1.16811e-08
2.16221e-08
3.72384e-08
5.2972e-08
6.37327e-08
6.60874e-08
5.99046e-08
4.78053e-08
3.48777e-08
2.75882e-08
2.6899e-08
2.85913e-08
2.90502e-08
2.77397e-08
2.55985e-08
2.32067e-08
2.01815e-08
1.54497e-08
9.47923e-09
5.52756e-09
2.46265e-09
2.77459e-09
6.15105e-09
1.21658e-08
2.03905e-08
2.88564e-08
3.36615e-08
3.14967e-08
2.51856e-08
2.12422e-08
2.19158e-08
2.43353e-08
2.50423e-08
2.35368e-08
2.12885e-08
1.92202e-08
1.7251e-08
1.4776e-08
1.1519e-08
8.79103e-09
9.8318e-09
1.86088e-08
3.42101e-08
5.10149e-08
6.34634e-08
6.741e-08
6.22536e-08
5.0945e-08
3.84578e-08
3.03115e-08
2.85044e-08
2.98415e-08
3.0528e-08
2.98012e-08
2.89278e-08
2.78415e-08
2.49472e-08
1.93185e-08
1.18869e-08
7.48852e-09
2.98569e-09
2.67315e-09
6.21179e-09
1.25345e-08
2.04635e-08
2.82729e-08
3.30273e-08
3.12317e-08
2.50715e-08
2.08743e-08
2.07282e-08
2.20926e-08
2.23337e-08
2.13266e-08
2.06997e-08
2.06493e-08
1.99109e-08
1.7316e-08
1.31972e-08
9.24416e-09
8.47344e-09
1.54149e-08
3.03203e-08
4.75954e-08
6.10813e-08
6.58355e-08
6.1082e-08
5.04792e-08
3.95668e-08
3.17414e-08
2.87149e-08
2.96668e-08
3.11977e-08
3.17571e-08
3.29596e-08
3.4115e-08
3.1726e-08
2.48925e-08
1.5661e-08
1.04561e-08
4.10899e-09
2.27187e-09
5.08498e-09
1.20034e-08
2.0676e-08
2.82573e-08
3.24366e-08
3.04363e-08
2.41359e-08
1.96513e-08
1.9033e-08
2.00216e-08
2.02362e-08
1.9757e-08
2.02747e-08
2.17839e-08
2.2098e-08
1.97528e-08
1.5362e-08
1.08108e-08
8.63294e-09
1.3303e-08
2.64553e-08
4.31938e-08
5.69969e-08
6.20002e-08
5.69315e-08
4.67376e-08
3.77891e-08
3.16751e-08
2.80487e-08
2.79196e-08
3.03207e-08
3.24459e-08
3.57658e-08
3.97036e-08
3.85072e-08
3.09361e-08
2.03362e-08
1.36257e-08
5.69111e-09
2.11848e-09
3.46153e-09
9.80101e-09
1.97039e-08
2.85517e-08
3.28649e-08