/*--------------------------------*- C++ -*----------------------------------*\
| =========                 |                                                 |
| \\      /  F ield         | OpenFOAM: The Open Source CFD Toolbox           |
|  \\    /   O peration     | Version:  2306                                  |
|   \\  /    A nd           | Website:  www.openfoam.com                      |
|    \\/     M anipulation  |                                                 |
\*---------------------------------------------------------------------------*/
FoamFile
{
    version     2.0;
    format      ascii;
    arch        "LSB;label=32;scalar=64";
    class       volVectorField;
    location    "8.5";
    object      U_0;
}
// * * * * * * * * * * * * * * * * * * * * * * * * * * * * * * * * * * * * * //

dimensions      [0 1 -1 0 0 0 0];

internalField   nonuniform List<vector> 
60000
(
(0.00662849 2.48052e-05 -0.000295385)
(0.00697679 3.21396e-05 -7.05512e-05)
(0.00746561 2.89812e-05 0.000119132)
(0.00806527 2.43037e-05 0.000468901)
(0.00866152 2.50091e-05 0.00103261)
(0.00904523 2.91673e-05 0.00170189)
(0.00903091 3.34988e-05 0.00230206)
(0.00867291 3.30797e-05 0.00264695)
(0.00823438 2.66698e-05 0.00264892)
(0.00790671 2.05356e-05 0.00236321)
(0.00769394 1.55366e-05 0.00193892)
(0.00751745 1.02486e-05 0.00154457)
(0.0073013 2.74449e-06 0.00130051)
(0.00698862 -4.17847e-06 0.00120447)
(0.00653918 -7.73531e-06 0.00119616)
(0.00599737 -4.97434e-06 0.00121803)
(0.00553441 -1.6799e-06 0.0012093)
(0.00530412 1.48152e-07 0.00112406)
(0.00530445 -1.28352e-06 0.000904262)
(0.00542195 -6.56085e-06 0.000582992)
(0.00557778 -1.42373e-05 0.000285854)
(0.00579009 -1.42681e-05 7.03188e-05)
(0.00608892 -1.02254e-05 -0.000111475)
(0.00642822 1.18248e-06 -0.00025143)
(0.00675563 1.76437e-05 -0.000273855)
(0.00705439 2.66255e-05 -0.000244735)
(0.00731704 2.5334e-05 -0.000340278)
(0.0075686 7.88289e-06 -0.000719937)
(0.00787825 -1.85205e-05 -0.00139288)
(0.0082239 -3.67022e-05 -0.00205995)
(0.00840696 -3.33402e-05 -0.00239248)
(0.00827172 -1.99561e-05 -0.00240944)
(0.00785475 -5.42002e-06 -0.00238807)
(0.00727236 1.01077e-05 -0.00239851)
(0.00663662 1.59385e-05 -0.00230113)
(0.00609701 1.01891e-05 -0.00212256)
(0.00581075 4.52878e-06 -0.00192147)
(0.00583807 3.35167e-06 -0.00162421)
(0.00607682 6.94755e-06 -0.00117776)
(0.00635384 1.68899e-05 -0.000680608)
(0.0197217 0.000129245 -0.00080155)
(0.0209849 0.000130419 -0.000210264)
(0.0226123 9.42904e-05 0.000390099)
(0.0244465 8.33344e-05 0.00144178)
(0.0262089 0.000120008 0.00299262)
(0.0273959 0.000191737 0.00472662)
(0.0274973 0.000254787 0.00619463)
(0.0265524 0.000261614 0.00697338)
(0.0252368 0.000210353 0.00688106)
(0.0241842 0.000147668 0.00608488)
(0.0235236 9.87565e-05 0.00499093)
(0.023042 6.40651e-05 0.00400845)
(0.0224534 3.07068e-05 0.00337826)
(0.0215293 -4.16119e-07 0.00309613)
(0.0201935 -2.27853e-05 0.003064)
(0.0186543 -4.62051e-05 0.00313667)
(0.0173451 -8.42531e-05 0.00311111)
(0.0165891 -0.000120829 0.00283071)
(0.0163891 -0.0001412 0.00223525)
(0.0165239 -0.000147978 0.00147464)
(0.0168383 -0.000148587 0.000799877)
(0.0173542 -0.00011984 0.000275693)
(0.0180963 -6.33295e-05 -0.000172375)
(0.0189694 1.82273e-05 -0.000482669)
(0.0199162 8.19127e-05 -0.000545092)
(0.0209368 8.23364e-05 -0.000548144)
(0.0220373 3.55476e-06 -0.000900033)
(0.0232463 -0.000152353 -0.00194662)
(0.0245647 -0.000305101 -0.00361898)
(0.0256793 -0.000337514 -0.00523367)
(0.0260262 -0.000217216 -0.00610261)
(0.02538 -5.17676e-05 -0.00628024)
(0.0240319 7.86169e-05 -0.00625729)
(0.0224118 0.000139133 -0.00613482)
(0.0207771 0.000109246 -0.00582377)
(0.0193005 2.47409e-05 -0.00547525)
(0.0182328 -3.50489e-05 -0.00504564)
(0.0178474 -3.37749e-05 -0.00424655)
(0.0181342 1.94661e-05 -0.00303477)
(0.018798 9.17901e-05 -0.00175589)
(0.0326198 0.000271455 -0.00174154)
(0.0348281 0.000232849 -0.000870379)
(0.0376509 0.000133812 3.45187e-05)
(0.0407998 0.00010829 0.00164191)
(0.0438982 0.00019918 0.00402681)
(0.046256 0.000366273 0.00668851)
(0.0469889 0.000516965 0.00895211)
(0.0458251 0.000552136 0.0102412)
(0.0436213 0.000459671 0.0102768)
(0.0416052 0.000324903 0.00923945)
(0.0403137 0.00020906 0.00771046)
(0.0395054 0.000126343 0.00628289)
(0.0386493 5.2965e-05 0.00526418)
(0.0372921 -1.42168e-05 0.00467393)
(0.0352788 -6.66278e-05 0.00448748)
(0.0328815 -0.00013749 0.00458425)
(0.0306457 -0.000246393 0.00462724)
(0.0290333 -0.000347868 0.00427964)
(0.0282056 -0.000398854 0.00345774)
(0.0280109 -0.000401558 0.0024174)
(0.0282641 -0.000375231 0.00149802)
(0.0289323 -0.000285414 0.000760896)
(0.0299905 -0.000120027 0.000115499)
(0.0313136 7.04411e-05 -0.000322776)
(0.0328833 0.000171856 -0.000394642)
(0.0347351 9.46886e-05 -0.000335513)
(0.0368653 -0.000180348 -0.000708759)
(0.0392525 -0.00060161 -0.00205153)
(0.0418185 -0.000965862 -0.0043873)
(0.0439616 -0.000988342 -0.0068759)
(0.044701 -0.000633967 -0.0085049)
(0.0437239 -0.00018137 -0.00914296)
(0.0416133 0.000158693 -0.00924778)
(0.039159 0.000285202 -0.00898082)
(0.036733 0.000191182 -0.00846963)
(0.0343592 -6.22454e-06 -0.00807978)
(0.0321667 -0.000120232 -0.00768317)
(0.0306814 -9.0803e-05 -0.00670905)
(0.0303811 4.61877e-05 -0.00501429)
(0.0311152 0.000204184 -0.00314607)
(0.0447301 0.000383001 -0.00355816)
(0.0476657 0.000263863 -0.00259843)
(0.0515657 3.94414e-05 -0.00165159)
(0.0560426 -6.19973e-05 0.00021591)
(0.060672 0.000102308 0.00323555)
(0.0647198 0.000401897 0.00680366)
(0.0669057 0.000680915 0.0100104)
(0.066296 0.000802501 0.0121207)
(0.0634693 0.000721239 0.0127177)
(0.0602494 0.000532279 0.0118607)
(0.058008 0.000335209 0.0102094)
(0.0567624 0.000184593 0.00853914)
(0.0557607 6.0368e-05 0.00719773)
(0.0542621 -3.97975e-05 0.00617922)
(0.0519469 -0.000119317 0.00560372)
(0.0490024 -0.000237884 0.00558033)
(0.0458689 -0.000428639 0.00576486)
(0.0430096 -0.000620036 0.00555469)
(0.0408901 -0.000734355 0.0046897)
(0.0397441 -0.000758638 0.00350176)
(0.0395164 -0.000714566 0.00246207)
(0.0400744 -0.000544862 0.0016383)
(0.0412699 -0.00022019 0.000889999)
(0.0429251 0.000118452 0.000384598)
(0.0450588 0.000246611 0.000395687)
(0.0477364 1.81957e-05 0.000740755)
(0.050876 -0.000582939 0.000776413)
(0.0543272 -0.00143674 -0.000261068)
(0.0581082 -0.00213399 -0.00276963)
(0.0616528 -0.00213761 -0.00611334)
(0.0634714 -0.00142539 -0.00893972)
(0.0628383 -0.000529133 -0.0106027)
(0.0604708 0.000150672 -0.0112728)
(0.0575439 0.000414174 -0.0110743)
(0.0546244 0.000257229 -0.0103624)
(0.0515764 -7.94081e-05 -0.00990783)
(0.0481649 -0.000256517 -0.00973152)
(0.0448914 -0.000196629 -0.00901781)
(0.0429968 3.10463e-05 -0.00732826)
(0.0430456 0.000286555 -0.00521142)
(0.0557579 0.00038646 -0.00638274)
(0.0586425 0.000140496 -0.0057491)
(0.063035 -0.000323864 -0.00522088)
(0.0684949 -0.000649532 -0.0036075)
(0.074647 -0.000497434 -0.00038693)
(0.0808741 6.29871e-05 0.00401808)
(0.0855896 0.000573042 0.0084991)
(0.0868698 0.000872185 0.0119759)
(0.0843446 0.000900772 0.0137699)
(0.0800108 0.000727584 0.0136666)
(0.076442 0.000460781 0.0122826)
(0.0744913 0.000225199 0.010664)
(0.0733769 3.79487e-05 0.00927147)
(0.0720235 -9.35552e-05 0.00791682)
(0.0698529 -0.000179958 0.00673407)
(0.0668653 -0.000311392 0.00626402)
(0.0632194 -0.000544984 0.00648147)
(0.0590668 -0.00080889 0.00656992)
(0.0550151 -0.00102134 0.00586386)
(0.051974 -0.00114787 0.00463718)
(0.0504538 -0.00116503 0.00357951)
(0.050383 -0.000942511 0.00283122)
(0.0514205 -0.000423516 0.00214433)
(0.0532048 0.000127738 0.00169596)
(0.0557073 0.000294273 0.00192947)
(0.058985 -0.000151263 0.00279681)
(0.0627723 -0.00123741 0.003664)
(0.0665404 -0.00276377 0.00365897)
(0.0706542 -0.00406051 0.00191743)
(0.075714 -0.00415545 -0.00176395)
(0.0799435 -0.00289232 -0.00618168)
(0.0811897 -0.00129455 -0.00979938)
(0.0797087 -9.26113e-05 -0.0119664)
(0.0770057 0.00045978 -0.0124546)
(0.0740155 0.000304779 -0.0116946)
(0.0706872 -0.000164859 -0.0110464)
(0.0664469 -0.000412705 -0.0110449)
(0.0613107 -0.00032825 -0.0108224)
(0.0568919 -4.04896e-05 -0.00963045)
(0.0549568 0.000281376 -0.00782252)
(0.0668969 0.000282596 -0.00942147)
(0.0682306 -0.000175965 -0.00973565)
(0.0715974 -0.00104003 -0.0102802)
(0.0766099 -0.00183287 -0.00967138)
(0.0830811 -0.00199698 -0.00726379)
(0.0910727 -0.00133714 -0.00295692)
(0.0994841 -0.000289997 0.00279491)
(0.104811 0.000533013 0.00847747)
(0.104617 0.000869187 0.0124972)
(0.100174 0.000843093 0.0140426)
(0.0951849 0.000561744 0.0134599)
(0.0921661 0.000236845 0.0121889)
(0.0908317 -3.82558e-05 0.0111663)
(0.089778 -0.000208404 0.00996825)
(0.0880943 -0.000279246 0.00828536)
(0.0856101 -0.000367042 0.00699005)
(0.0822277 -0.000560015 0.00683904)
(0.0774937 -0.000805909 0.00717338)
(0.0715576 -0.00107741 0.00679978)
(0.0657635 -0.00138411 0.00563458)
(0.0616558 -0.00162976 0.00457815)
(0.0598905 -0.00148035 0.00401437)
(0.0601575 -0.000770259 0.00358474)
(0.0617033 7.76002e-05 0.00337122)
(0.0642075 0.000351365 0.00395582)
(0.0676928 -0.000375698 0.0054108)
(0.0717422 -0.00211359 0.00711011)
(0.0750689 -0.00452399 0.00831302)
(0.0774915 -0.00675907 0.00830722)
(0.0818891 -0.0073861 0.00606699)
(0.089166 -0.00579476 0.00116165)
(0.0951636 -0.0030843 -0.00506302)
(0.0970704 -0.000840354 -0.0102083)
(0.0960964 0.000284471 -0.0126626)
(0.0937918 0.000298196 -0.0125158)
(0.0906446 -0.000236653 -0.0117134)
(0.0862526 -0.000538309 -0.0116989)
(0.0800544 -0.000418768 -0.0118599)
(0.0732481 -8.19475e-05 -0.0112463)
(0.0684067 0.000230749 -0.0100997)
(0.0807702 0.000217374 -0.0110843)
(0.0798918 -0.00057421 -0.0124605)
(0.0806128 -0.00204937 -0.0145785)
(0.0827003 -0.00352781 -0.0156791)
(0.0865561 -0.0042448 -0.0149991)
(0.0926729 -0.00391839 -0.0125359)
(0.102446 -0.00272045 -0.00763286)
(0.11389 -0.00117215 -0.000262376)
(0.12015 0.00014431 0.00720876)
(0.118513 0.00069072 0.0119193)
(0.113047 0.000582367 0.0131287)
(0.10881 0.00019279 0.012487)
(0.107141 -0.000196922 0.0120519)
(0.106465 -0.000442043 0.0117315)
(0.105359 -0.000479128 0.0103147)
(0.103648 -0.000469387 0.00822493)
(0.101336 -0.000538211 0.00715847)
(0.0974204 -0.000641098 0.00733899)
(0.0909205 -0.000822196 0.00730789)
(0.0826662 -0.0012385 0.00632972)
(0.074912 -0.00184127 0.00525206)
(0.0697697 -0.00200185 0.00482567)
(0.068002 -0.0012135 0.00471541)
(0.0686703 -1.4146e-05 0.00480727)
(0.0708095 0.000443903 0.00571281)
(0.074263 -0.000578274 0.00758558)
(0.0787351 -0.00298357 0.00967112)
(0.0826182 -0.00615101 0.0112112)
(0.083708 -0.00926095 0.012336)
(0.0837957 -0.0108859 0.0129224)
(0.088951 -0.00982307 0.010822)
(0.099152 -0.00654841 0.00446467)
(0.107947 -0.00286842 -0.00406881)
(0.111893 -0.000484789 -0.010289)
(0.111936 0.000121385 -0.0122694)
(0.10952 -0.000287847 -0.0119673)
(0.105499 -0.000569974 -0.0119054)
(0.0994379 -0.000412788 -0.0122238)
(0.0916461 -5.65259e-05 -0.0119201)
(0.0846423 0.000255135 -0.0111561)
(0.0973272 0.000368691 -0.010642)
(0.0958704 -0.000666006 -0.0121762)
(0.0947691 -0.00272242 -0.0155131)
(0.0925102 -0.00505832 -0.0188103)
(0.0912073 -0.00654082 -0.020341)
(0.0925032 -0.00677307 -0.0199067)
(0.0980332 -0.00604398 -0.0172528)
(0.109921 -0.00448571 -0.0113882)
(0.123908 -0.00225961 -0.00240248)
(0.130034 -0.000463868 0.00619835)
(0.127125 0.000139514 0.0106417)
(0.122367 1.31194e-05 0.0111973)
(0.12057 -0.000406877 0.0110913)
(0.120738 -0.000813368 0.0118512)
(0.120322 -0.000898172 0.0118485)
(0.11906 -0.00072694 0.00995016)
(0.117983 -0.000567294 0.00787237)
(0.116281 -0.00047375 0.00730034)
(0.111583 -0.000425869 0.00731734)
(0.103024 -0.00072256 0.00657633)
(0.0922955 -0.0015572 0.00553961)
(0.0825105 -0.00219191 0.0051949)
(0.0767555 -0.0015778 0.00533148)
(0.0754077 -0.000100113 0.00562784)
(0.0768517 0.000655431 0.00668748)
(0.0801957 -0.000420522 0.00880744)
(0.0851124 -0.00322574 0.0110503)
(0.0906376 -0.00676999 0.0121729)
(0.093769 -0.0101551 0.0126539)
(0.091773 -0.0126472 0.0145927)
(0.0897929 -0.0129681 0.0168649)
(0.0961135 -0.0104334 0.014552)
(0.108734 -0.00623731 0.00616965)
(0.120039 -0.0023652 -0.00371036)
(0.125333 -0.000580085 -0.0095997)
(0.12477 -0.000550858 -0.0113173)
(0.121267 -0.000656456 -0.0116464)
(0.116188 -0.000250783 -0.011961)
(0.109175 0.000234581 -0.0117126)
(0.101914 0.00052515 -0.0108894)
(0.111786 0.000734427 -0.0079983)
(0.112251 -0.000186012 -0.00872464)
(0.112591 -0.00230702 -0.0122091)
(0.108364 -0.00520737 -0.017412)
(0.101361 -0.00764307 -0.0217463)
(0.0968347 -0.00870202 -0.023671)
(0.0968727 -0.00879006 -0.0227157)
(0.103366 -0.00810229 -0.0187174)
(0.117533 -0.00604443 -0.0113104)
(0.131437 -0.00308979 -0.00144425)
(0.13455 -0.00124126 0.00629071)
(0.130186 -0.000855884 0.00875236)
(0.127933 -0.00104917 0.00844304)
(0.130055 -0.0012996 0.00933213)
(0.131715 -0.00141186 0.011053)
(0.130423 -0.00128497 0.0108472)
(0.129201 -0.000960136 0.00879348)
(0.129954 -0.000511843 0.00733378)
(0.129531 -0.000103063 0.00696803)
(0.124302 -0.000151796 0.00632256)
(0.113744 -0.000879326 0.00534922)
(0.100264 -0.00181493 0.00512295)
(0.0889583 -0.00157905 0.00557057)
(0.0836306 -7.34766e-05 0.0061267)
(0.0834185 0.000977308 0.00724834)
(0.0864403 3.99591e-05 0.00920881)
(0.0916075 -0.00292127 0.0110502)
(0.0980158 -0.00665141 0.0115345)
(0.103661 -0.00980269 0.0110146)
(0.10441 -0.0120872 0.0125011)
(0.0993695 -0.0135221 0.0172272)
(0.0971336 -0.012947 0.0200405)
(0.105522 -0.00977272 0.0154382)
(0.12047 -0.00538868 0.00525873)
(0.132082 -0.00199228 -0.00415481)
(0.133157 -0.000709381 -0.00914453)
(0.127049 -0.000509229 -0.0104553)
(0.121512 -0.000268737 -0.0102881)
(0.117888 0.000252889 -0.0097131)
(0.114221 0.000722043 -0.00878626)
(0.114939 0.000592281 -0.00218821)
(0.120037 0.000101509 -0.00184318)
(0.125828 -0.00129014 -0.00495369)
(0.125198 -0.00373946 -0.0116388)
(0.116167 -0.0066874 -0.0188629)
(0.106076 -0.00874258 -0.0239961)
(0.101433 -0.00964291 -0.0255269)
(0.102599 -0.0101559 -0.0229805)
(0.110764 -0.00958058 -0.0171003)
(0.125672 -0.00689242 -0.00826062)
(0.137131 -0.0034597 0.00110816)
(0.136719 -0.00196657 0.0060343)
(0.131459 -0.00237943 0.00579811)
(0.132095 -0.00276988 0.0053547)
(0.137597 -0.0021799 0.00748945)
(0.138768 -0.00132915 0.00936552)
(0.13487 -0.00107802 0.00872942)
(0.133491 -0.00111526 0.00716692)
(0.137094 -0.000734848 0.00641491)
(0.139645 -0.000173905 0.00581473)
(0.134999 -0.000276661 0.00484722)
(0.122186 -0.000957671 0.00455886)
(0.106288 -0.000923506 0.00540124)
(0.0951807 0.000303559 0.00661822)
(0.0915673 0.00130272 0.00794028)
(0.0936666 0.000316729 0.00919004)
(0.0991895 -0.00278633 0.00961652)
(0.106248 -0.00649865 0.00875373)
(0.113004 -0.00925939 0.0072154)
(0.116169 -0.0106665 0.00816023)
(0.112898 -0.0116886 0.0139036)
(0.105928 -0.0128269 0.0204092)
(0.105985 -0.0121889 0.0201531)
(0.117697 -0.00885291 0.0117489)
(0.131326 -0.0040371 0.000848952)
(0.133587 -0.000416501 -0.00679494)
(0.124548 0.000790355 -0.00906843)
(0.115418 0.000423108 -0.00759681)
(0.112218 0.000133608 -0.00532104)
(0.112706 0.000383251 -0.00360323)
(0.110475 0.000210864 0.00414219)
(0.115886 -0.000240258 0.00659382)
(0.126438 -0.000934893 0.00500997)
(0.134378 -0.0020127 -0.00258289)
(0.130392 -0.00420331 -0.0125736)
(0.118238 -0.00700167 -0.0208576)
(0.108718 -0.00886341 -0.0257497)
(0.106634 -0.0100088 -0.0259221)
(0.110015 -0.0109181 -0.0216511)
(0.119052 -0.0103646 -0.0142494)
(0.132841 -0.00728694 -0.00499276)
(0.142061 -0.00371642 0.0022923)
(0.140028 -0.00289241 0.00418693)
(0.134141 -0.00421373 0.00303486)
(0.135556 -0.00427854 0.00377435)
(0.141419 -0.00192648 0.00626549)
(0.14156 0.000151044 0.00731789)
(0.136807 -0.000167038 0.00653757)
(0.135641 -0.00173636 0.00566418)
(0.141305 -0.00231834 0.00533191)
(0.146867 -0.00151091 0.00467652)
(0.142343 -0.000472194 0.00400507)
(0.12728 0.000473248 0.0046719)
(0.111438 0.00147192 0.00680748)
(0.103002 0.00172135 0.00911062)
(0.102639 -3.35119e-05 0.00993674)
(0.107326 -0.00367499 0.00846722)
(0.114474 -0.00722427 0.00550864)
(0.122354 -0.00906967 0.00223047)
(0.127259 -0.00922171 0.00174956)
(0.125719 -0.00903449 0.00762018)
(0.117905 -0.0101278 0.0169872)
(0.111195 -0.0119752 0.0210926)
(0.115605 -0.0111236 0.0154108)
(0.126609 -0.00622763 0.0045536)
(0.130275 -0.000313283 -0.00452259)
(0.123026 0.00255697 -0.00810247)
(0.113631 0.00200175 -0.00659007)
(0.108924 0.000579759 -0.00272729)
(0.108618 0.000200772 0.000959828)
(0.110099 0.000580365 0.00460755)
(0.111279 -0.000485832 0.00963906)
(0.119759 -0.00131261 0.0117327)
(0.133207 -0.00113599 0.00627834)
(0.138571 -0.00140967 -0.00484086)
(0.130857 -0.00378637 -0.015252)
(0.118842 -0.00673168 -0.0225506)
(0.112351 -0.00875114 -0.0259975)
(0.113437 -0.0101954 -0.0247845)
(0.118575 -0.0114419 -0.0195513)
(0.127598 -0.0109876 -0.011421)
(0.139603 -0.00789848 -0.00289149)
(0.146031 -0.00455655 0.0019894)
(0.141886 -0.00402255 0.00237051)
(0.135647 -0.0050234 0.00201865)
(0.137137 -0.00382256 0.003609)
(0.14254 -0.000487067 0.00556946)
(0.14362 0.00136553 0.00602005)
(0.140082 -0.00036014 0.00514932)
(0.138788 -0.00399255 0.00449436)
(0.144955 -0.00545591 0.00450244)
(0.151114 -0.00269972 0.00400844)
(0.145224 0.00138355 0.00378121)
(0.130728 0.00357748 0.00610239)
(0.119077 0.00300006 0.0101486)
(0.114745 -9.42453e-05 0.0116103)
(0.115382 -0.0047195 0.00817459)
(0.119358 -0.00892789 0.00281995)
(0.127528 -0.0104111 -0.00169105)
(0.135682 -0.00886471 -0.00388697)
(0.136739 -0.00673934 0.000154491)
(0.129652 -0.0065501 0.0107515)
(0.119611 -0.00924789 0.0191966)
(0.11653 -0.0111119 0.0175606)
(0.121959 -0.00772022 0.00826128)
(0.125935 -0.000766302 -0.00129179)
(0.123569 0.0036757 -0.00684891)
(0.118577 0.00363156 -0.00776904)
(0.114429 0.00178476 -0.00495254)
(0.111773 0.000963892 -0.000379757)
(0.116 0.00175726 -0.000973622)
(0.113438 -0.000294938 0.00445087)
(0.117054 -0.00232137 0.00940991)
(0.129051 -0.00169408 0.00871557)
(0.140573 0.000312628 0.000464444)
(0.140524 -0.000253375 -0.0095891)
(0.13081 -0.00344677 -0.0174889)
(0.120808 -0.00653 -0.0229103)
(0.118154 -0.00859249 -0.0250275)
(0.122026 -0.0106259 -0.0230963)
(0.128188 -0.0124374 -0.0171973)
(0.136452 -0.011828 -0.00851516)
(0.14451 -0.00816616 -0.00103496)
(0.145656 -0.00480665 0.00177222)
(0.13994 -0.00418173 0.00148888)
(0.136055 -0.00415056 0.00199906)
(0.138983 -0.00234071 0.00425681)
(0.144404 0.000190528 0.00630487)
(0.146463 0.000708173 0.00622246)
(0.143901 -0.00262061 0.00455415)
(0.142335 -0.00726425 0.00359517)
(0.14694 -0.00690354 0.00349273)
(0.150682 -0.00112464 0.00315892)
(0.145783 0.00389778 0.00497241)
(0.136241 0.00450615 0.010007)
(0.128581 0.00179194 0.0126059)
(0.124013 -0.00270054 0.00787128)
(0.122131 -0.0079809 0.000110147)
(0.126788 -0.0115312 -0.00460522)
(0.137652 -0.0103917 -0.00643669)
(0.14385 -0.00631475 -0.00486344)
(0.139396 -0.00387662 0.00376896)
(0.128867 -0.00543931 0.014928)
(0.12083 -0.00861306 0.0181847)
(0.120308 -0.00745657 0.0117032)
(0.122587 -0.00142103 0.00241166)
(0.123636 0.00365419 -0.00463085)
(0.123973 0.00450942 -0.00820434)
(0.123102 0.00320704 -0.0081243)
(0.120145 0.00242797 -0.00525283)
(0.126942 0.0036374 -0.00739484)
(0.123107 0.000928103 -0.00339446)
(0.121978 -0.00267873 0.0019311)
(0.128284 -0.0030187 0.00475244)
(0.140439 0.000113672 0.00152013)
(0.147175 0.00198774 -0.00543056)
(0.142293 -3.22297e-05 -0.0126731)
(0.131411 -0.00337555 -0.0189483)
(0.124702 -0.00617464 -0.0230674)
(0.126308 -0.00883861 -0.0240106)
(0.132161 -0.0119831 -0.0211881)
(0.137988 -0.013679 -0.0139608)
(0.143289 -0.0111801 -0.005025)
(0.14558 -0.00629496 0.000334825)
(0.142601 -0.0034794 0.00106151)
(0.13828 -0.00325782 0.00100352)
(0.137986 -0.00299668 0.00327881)
(0.142057 -0.00150964 0.00698516)
(0.147372 -8.41494e-05 0.00869055)
(0.149898 -0.00120658 0.00652168)
(0.147377 -0.00529268 0.00300623)
(0.14407 -0.00772938 0.00191917)
(0.144472 -0.0046243 0.00326742)
(0.144277 0.000669937 0.00634983)
(0.139571 0.00352004 0.0105952)
(0.133707 0.00320698 0.0116827)
(0.130074 0.000422949 0.00599806)
(0.127381 -0.00454871 -0.00240062)
(0.128014 -0.0100829 -0.0065092)
(0.13673 -0.0116764 -0.0062429)
(0.14656 -0.00783908 -0.00510931)
(0.146178 -0.00341458 -0.000368723)
(0.13689 -0.00272401 0.0096797)
(0.126938 -0.00500986 0.0167353)
(0.122275 -0.00502408 0.0142951)
(0.122286 -0.000802658 0.00633138)
(0.124256 0.0032704 -0.00125059)
(0.127635 0.00397901 -0.00651117)
(0.130478 0.00348415 -0.00921273)
(0.130162 0.00385288 -0.00932166)
(0.1354 0.00391979 -0.0102094)
(0.134054 0.00212173 -0.00740905)
(0.130442 -0.00151929 -0.00253815)
(0.130047 -0.00328156 0.00117697)
(0.137951 -0.00109722 0.00117281)
(0.148336 0.00208948 -0.00253478)
(0.15013 0.00226928 -0.00851544)
(0.142048 4.20563e-05 -0.015188)
(0.133398 -0.00279516 -0.0204639)
(0.132022 -0.00618012 -0.0229404)
(0.137063 -0.0103828 -0.0225846)
(0.142683 -0.013844 -0.0182269)
(0.145878 -0.0130643 -0.00996385)
(0.146765 -0.00785932 -0.00263156)
(0.144672 -0.00300383 1.9841e-05)
(0.141076 -0.00159886 0.000391958)
(0.139453 -0.00213522 0.00270969)
(0.141416 -0.00226846 0.00733998)
(0.146439 -0.0015939 0.0104156)
(0.151502 -0.00145759 0.00847695)
(0.1513 -0.00315286 0.00363239)
(0.144755 -0.00548501 0.00156817)
(0.137497 -0.0055239 0.00370508)
(0.133334 -0.0026449 0.00681104)
(0.131663 0.00096802 0.00845329)
(0.132386 0.00321267 0.00711895)
(0.134342 0.00285682 0.00186793)
(0.134221 -0.000902686 -0.00488576)
(0.13332 -0.00714163 -0.00788307)
(0.138069 -0.0114847 -0.00596663)
(0.147593 -0.00969383 -0.00321662)
(0.150314 -0.00461984 -0.000194196)
(0.142496 -0.00189693 0.00666045)
(0.132029 -0.00216811 0.0137212)
(0.126033 -0.00179116 0.0140538)
(0.12536 0.00115433 0.00836747)
(0.127021 0.00382865 0.00199565)
(0.129082 0.00370344 -0.00280503)
(0.131549 0.00264344 -0.00677263)
(0.134086 0.00318932 -0.00973267)
(0.133312 0.00240707 -0.00631561)
(0.136176 0.00201125 -0.00387884)
(0.134222 0.000114598 -0.000369908)
(0.130631 -0.00148643 0.00187696)
(0.132914 -0.000831623 0.00217594)
(0.142457 0.00145661 -1.2929e-05)
(0.150265 0.00306055 -0.00503276)
(0.148352 0.00279573 -0.0117792)
(0.141608 0.00115167 -0.0175638)
(0.139239 -0.00222458 -0.0206882)
(0.14313 -0.00744153 -0.02173)
(0.148374 -0.0123696 -0.0202288)
(0.150589 -0.0132908 -0.0146109)
(0.14996 -0.00903195 -0.00703931)
(0.147435 -0.00328266 -0.00194081)
(0.14422 -0.000232817 0.000309794)
(0.142412 -0.000176346 0.00252471)
(0.143056 -0.00127974 0.00617435)
(0.145884 -0.00204327 0.00956048)
(0.14941 -0.00231855 0.00946466)
(0.150191 -0.00267647 0.0055577)
(0.145469 -0.00313733 0.00182623)
(0.137274 -0.00320301 0.00139298)
(0.130968 -0.00248863 0.00291022)
(0.130143 -0.00119032 0.00379964)
(0.1342 0.000604546 0.00268629)
(0.138476 0.00207013 -0.00108986)
(0.138609 0.00111287 -0.00549267)
(0.136772 -0.00385383 -0.00694756)
(0.138946 -0.010058 -0.00487506)
(0.146448 -0.0109963 -0.00190224)
(0.151069 -0.00631041 0.000959876)
(0.146481 -0.00217902 0.00598694)
(0.137478 -0.000877532 0.0114361)
(0.130973 0.00035165 0.012085)
(0.128564 0.00318714 0.00816331)
(0.127586 0.00547208 0.00416724)
(0.12628 0.00496396 0.00125467)
(0.126072 0.0028581 -0.00207662)
(0.128723 0.00195021 -0.00545863)
(0.129421 -0.00137198 -0.00124224)
(0.13394 -0.000848942 -0.000305071)
(0.134378 -0.000358147 0.00189299)
(0.131284 0.000133186 0.00371776)
(0.130139 0.000898129 0.00424042)
(0.135294 0.00213866 0.00243605)
(0.144222 0.00367974 -0.00193581)
(0.14956 0.00477659 -0.00776802)
(0.149117 0.00455198 -0.0128558)
(0.148645 0.00198679 -0.016208)
(0.152059 -0.0034524 -0.0186284)
(0.156273 -0.00966466 -0.0197927)
(0.157071 -0.0120448 -0.0173622)
(0.154751 -0.00877062 -0.0110951)
(0.150922 -0.00315772 -0.00464736)
(0.147025 0.000444754 -0.000422386)
(0.145007 0.0010756 0.00235977)
(0.145221 0.000253907 0.00497638)
(0.146187 -0.000920407 0.00766701)
(0.146505 -0.00218827 0.00870365)
(0.14546 -0.00282992 0.00645541)
(0.142393 -0.00208651 0.00239717)
(0.138033 -0.000837525 -0.000134795)
(0.135169 -0.000884182 7.31154e-05)
(0.135898 -0.0021994 0.00149571)
(0.1392 -0.0022952 0.00172271)
(0.141187 -8.44405e-05 -0.000572472)
(0.139333 0.00161533 -0.00322145)
(0.136767 -0.000866887 -0.0030508)
(0.137855 -0.00702262 -0.000786062)
(0.143455 -0.0107319 0.00123702)
(0.149318 -0.00829739 0.00302122)
(0.149396 -0.00358931 0.00632967)
(0.143732 -0.000134355 0.00992254)
(0.13669 0.00283281 0.010154)
(0.130908 0.00604276 0.00719212)
(0.126206 0.00771698 0.00455796)
(0.12281 0.00607039 0.00344075)
(0.122012 0.00222723 0.0021863)
(0.12447 -0.000726712 4.78131e-05)
(0.12877 -0.00163014 0.00458727)
(0.132124 -0.00171681 0.00389763)
(0.13268 -0.000424086 0.00426387)
(0.130712 0.00199998 0.00502359)
(0.129378 0.00436405 0.005806)
(0.131688 0.00530721 0.00538882)
(0.137558 0.00500662 0.0024801)
(0.144105 0.00512843 -0.0024561)
(0.149474 0.00611804 -0.00720962)
(0.154748 0.00583603 -0.0104966)
(0.160556 0.00164941 -0.0133117)
(0.164485 -0.00507045 -0.0162827)
(0.163988 -0.00912987 -0.0171801)
(0.160076 -0.00722804 -0.0137533)
(0.155028 -0.00216677 -0.0077615)
(0.150313 0.00118229 -0.00245484)
(0.147114 0.00177393 0.00126357)
(0.14553 0.00128874 0.00389924)
(0.144695 0.000637049 0.00594292)
(0.143444 -0.000296845 0.00708671)
(0.141149 -0.00089739 0.00601985)
(0.138778 -0.00018702 0.00276647)
(0.13848 0.000839407 -0.000109728)
(0.141427 -0.000209146 -0.000451832)
(0.145261 -0.00344059 0.00102543)
(0.145972 -0.00525679 0.00179217)
(0.142626 -0.00285017 0.000909286)
(0.138142 0.000993156 0.000998775)
(0.136429 0.00120502 0.00343259)
(0.138628 -0.00353088 0.0053524)
(0.143512 -0.0089236 0.00522951)
(0.148889 -0.00950039 0.00487148)
(0.150901 -0.00529147 0.00644029)
(0.14756 -0.000271834 0.0086621)
(0.140595 0.00381913 0.00811625)
(0.13236 0.00720156 0.00536192)
(0.125218 0.00896302 0.00428977)
(0.121544 0.00768987 0.00591796)
(0.121757 0.00396297 0.00726481)
(0.124664 0.000248343 0.00632359)
(0.128541 0.00104994 0.00701525)
(0.132763 0.000713776 0.00544601)
(0.13533 0.00158641 0.00477047)
(0.134911 0.00358934 0.00513533)
(0.133331 0.00633667 0.006318)
(0.133519 0.00829218 0.00696277)
(0.136174 0.00800464 0.00518781)
(0.140085 0.00576761 0.00121475)
(0.145033 0.00361921 -0.00259202)
(0.152072 0.00283173 -0.00513043)
(0.160497 0.00192487 -0.00780809)
(0.166231 -0.000684691 -0.0115736)
(0.16624 -0.00356164 -0.0146155)
(0.162744 -0.0037123 -0.0143703)
(0.159485 -0.00137834 -0.0107937)
(0.156909 0.000829027 -0.00615257)
(0.153828 0.00190967 -0.00212898)
(0.149927 0.00220902 0.000577529)
(0.145901 0.00169615 0.00214275)
(0.142363 0.000642479 0.00342094)
(0.13977 0.000161343 0.0045341)
(0.13921 0.000840564 0.00457923)
(0.142243 0.00151241 0.00304167)
(0.148856 0.00014012 0.000949908)
(0.154971 -0.00351681 0.000524279)
(0.154883 -0.00609402 0.00246906)
(0.148425 -0.00431609 0.00510517)
(0.141521 9.422e-05 0.00742623)
(0.139174 0.00244017 0.00855353)
(0.140966 0.000401202 0.00723112)
(0.144462 -0.00451724 0.00487243)
(0.148479 -0.00730204 0.00334675)
(0.150413 -0.0047163 0.00330486)
(0.147243 0.000937458 0.00458473)
(0.139522 0.0058486 0.00517984)
(0.1304 0.00871693 0.00440056)
(0.123529 0.00961833 0.00470118)
(0.120901 0.00849552 0.00687588)
(0.121774 0.00581352 0.00876934)
(0.124614 0.00286224 0.00864191)
(0.131631 0.00492544 0.00324035)
(0.134567 0.0037359 0.00382084)
(0.136408 0.00340278 0.00409811)
(0.136052 0.00418599 0.00418928)
(0.134527 0.00622922 0.00466765)
(0.134067 0.00852617 0.00556399)
(0.135924 0.00910491 0.00585869)
(0.139491 0.0069203 0.00422915)
(0.143487 0.00302229 0.000844151)
(0.147972 -0.00030216 -0.00283366)
(0.154042 -0.00178221 -0.00597216)
(0.161207 -0.00236344 -0.00868396)
(0.165989 -0.00262821 -0.0109923)
(0.165817 -0.00179253 -0.0121279)
(0.162751 4.73458e-05 -0.0112744)
(0.159847 0.00153007 -0.00861915)
(0.157747 0.00234566 -0.00528375)
(0.155728 0.00320465 -0.00273138)
(0.152829 0.00364668 -0.00167345)
(0.148755 0.00273121 -0.000931206)
(0.144741 0.000567186 0.000882027)
(0.143256 -0.00201876 0.00337938)
(0.145638 -0.0044981 0.00475692)
(0.150577 -0.00679239 0.00400372)
(0.154761 -0.00876318 0.00278133)
(0.154818 -0.00937436 0.00382053)
(0.150479 -0.00660731 0.00681372)
(0.145053 -0.000252717 0.00841141)
(0.141489 0.00587268 0.00634894)
(0.140028 0.00677886 0.00182722)
(0.140528 0.00164191 -0.00137038)
(0.143292 -0.00443966 -0.00115315)
(0.146256 -0.00523271 0.000563523)
(0.14528 2.31585e-05 0.00212596)
(0.139301 0.00648696 0.00323677)
(0.131878 0.010825 0.00380177)
(0.127059 0.0127406 0.00405748)
(0.125962 0.012401 0.00388539)
(0.127087 0.0101076 0.00326757)
(0.129023 0.00717684 0.00290636)
(0.141316 0.0060891 -0.00747193)
(0.141804 0.00496048 -0.00459412)
(0.141321 0.00500859 -0.000701506)
(0.138629 0.00531656 0.00283063)
(0.134972 0.00543087 0.00569048)
(0.132964 0.00499514 0.0081851)
(0.134271 0.0035228 0.0102349)
(0.13877 0.00123787 0.0108301)
(0.144967 -0.0012112 0.00896349)
(0.151121 -0.00316341 0.00470353)
(0.155809 -0.00389964 -0.000987577)
(0.158183 -0.00328986 -0.00659598)
(0.157921 -0.00155138 -0.0101362)
(0.155417 0.0008869 -0.0107583)
(0.151837 0.00298968 -0.00958742)
(0.148463 0.00387064 -0.00813697)
(0.146505 0.00354306 -0.0067411)
(0.146874 0.00246285 -0.00527193)
(0.149143 0.00130434 -0.004212)
(0.151624 0.00104288 -0.00390309)
(0.153024 0.00160067 -0.00341535)
(0.153515 0.000820907 -0.00162885)
(0.153837 -0.00287973 0.00122971)
(0.154249 -0.00771376 0.00417138)
(0.15461 -0.0099955 0.00652616)
(0.154154 -0.00827645 0.00829348)
(0.151538 -0.00387924 0.00918245)
(0.14716 0.00130449 0.00794234)
(0.143152 0.00520114 0.00396024)
(0.141129 0.00541564 -0.00117839)
(0.141431 0.00145222 -0.00400748)
(0.143361 -0.00420214 -0.00240875)
(0.145393 -0.00691852 0.00166916)
(0.14521 -0.00376516 0.00488582)
(0.142013 0.00301655 0.00617827)
(0.138442 0.00954922 0.00578068)
(0.137431 0.0137418 0.00355604)
(0.138919 0.0147435 -0.000439083)
(0.140566 0.0126142 -0.00486461)
(0.141109 0.0089845 -0.00766157)
(0.153911 0.00405957 -0.0108558)
(0.152194 0.00374097 -0.0100893)
(0.149577 0.00518828 -0.00788783)
(0.147223 0.00659683 -0.00508352)
(0.146353 0.00647057 -0.00191537)
(0.147255 0.00453618 0.00166773)
(0.149126 0.00145092 0.00562629)
(0.150605 -0.00166858 0.00978118)