/*--------------------------------*- C++ -*----------------------------------*\
| =========                 |                                                 |
| \\      /  F ield         | OpenFOAM: The Open Source CFD Toolbox           |
|  \\    /   O peration     | Version:  2306                                  |
|   \\  /    A nd           | Website:  www.openfoam.com                      |
|    \\/     M anipulation  |                                                 |
\*---------------------------------------------------------------------------*/
FoamFile
{
    version     2.0;
    format      ascii;
    arch        "LSB;label=32;scalar=64";
    class       volVectorField;
    location    "8.5";
    object      UMean;
}
// * * * * * * * * * * * * * * * * * * * * * * * * * * * * * * * * * * * * * //

dimensions      [0 1 -1 0 0 0 0];

internalField   nonuniform List<vector> 
60000
(
(0.00903731 3.20735e-05 0.00131845)
(0.00932809 2.51308e-05 0.00154222)
(0.00950765 1.87546e-05 0.0017431)
(0.00956831 1.41479e-05 0.001926)
(0.00950613 1.03473e-05 0.00204311)
(0.00930255 7.09262e-06 0.00204101)
(0.00896139 4.57477e-06 0.00191233)
(0.00851871 2.26282e-06 0.00170131)
(0.00802993 -8.16201e-07 0.00147631)
(0.00754827 -4.72615e-06 0.00129897)
(0.00709818 -8.80941e-06 0.00119717)
(0.00668961 -1.14593e-05 0.00114862)
(0.00634177 -1.25158e-05 0.00110289)
(0.00607222 -1.20693e-05 0.00102258)
(0.00590021 -1.00801e-05 0.000900124)
(0.00583384 -7.36785e-06 0.000738912)
(0.00587681 -3.83455e-06 0.00054398)
(0.00602169 -4.17416e-07 0.000318266)
(0.00624031 2.53641e-06 6.62032e-05)
(0.00650762 5.0987e-06 -0.000203126)
(0.00682649 7.66875e-06 -0.000484999)
(0.00719567 9.68249e-06 -0.00077492)
(0.00758451 1.02239e-05 -0.00105478)
(0.00794144 9.21663e-06 -0.00130362)
(0.00820528 5.97979e-06 -0.0015174)
(0.00832752 1.50218e-06 -0.00171504)
(0.00830666 -3.92508e-06 -0.00191094)
(0.00816028 -9.12223e-06 -0.00209144)
(0.00790107 -1.09501e-05 -0.00222037)
(0.00755528 -7.96798e-06 -0.00226515)
(0.00718936 -2.42807e-06 -0.00221665)
(0.00688228 3.27507e-06 -0.00207378)
(0.00668897 9.37469e-06 -0.00183173)
(0.00663886 1.51056e-05 -0.00150081)
(0.0067412 2.03983e-05 -0.00111417)
(0.00698907 2.51198e-05 -0.000696268)
(0.00734806 3.06927e-05 -0.000253404)
(0.0077749 3.57837e-05 0.000207062)
(0.00822664 3.86339e-05 0.000654437)
(0.00865892 3.72756e-05 0.00103206)
(0.027418 0.000128057 0.00350127)
(0.0284086 9.11105e-05 0.00406119)
(0.0290293 6.50636e-05 0.00457719)
(0.029266 5.22684e-05 0.00505679)
(0.0291151 4.88527e-05 0.00537254)
(0.0285232 5.08989e-05 0.00537751)
(0.0275065 5.05608e-05 0.00504739)
(0.0261897 3.854e-05 0.00450222)
(0.0247512 1.02223e-05 0.00392517)
(0.0233344 -2.90848e-05 0.00347219)
(0.0219869 -6.72641e-05 0.00320134)
(0.0207232 -9.73286e-05 0.00304467)
(0.0196025 -0.000119205 0.0028847)
(0.0186918 -0.000130151 0.00265124)
(0.0180651 -0.000127569 0.00233214)
(0.0177543 -0.000113894 0.00192169)
(0.0177714 -9.25621e-05 0.00142091)
(0.0181078 -6.81199e-05 0.000839786)
(0.018706 -4.39084e-05 0.000192023)
(0.0195057 -2.48341e-05 -0.000510661)
(0.0205021 -1.20491e-05 -0.00126767)
(0.0216684 -4.36015e-06 -0.00206156)
(0.0229118 -4.94231e-06 -0.00282618)
(0.0240938 -1.67401e-05 -0.00349038)
(0.0250393 -4.02607e-05 -0.00403504)
(0.025587 -7.1056e-05 -0.00451026)
(0.0256906 -0.000102321 -0.00496861)
(0.0253454 -0.000119225 -0.00539391)
(0.024561 -0.000108564 -0.00570827)
(0.0234359 -7.45044e-05 -0.00583785)
(0.0222172 -3.45736e-05 -0.00574542)
(0.0211839 1.47542e-06 -0.00539493)
(0.0205115 3.54185e-05 -0.00475818)
(0.0202738 6.68878e-05 -0.00387986)
(0.0204777 9.80554e-05 -0.00285402)
(0.021101 0.000130986 -0.00173176)
(0.02207 0.00016545 -0.000533326)
(0.0233065 0.000188275 0.000691486)
(0.0247145 0.000189194 0.00184448)
(0.0261381 0.000166113 0.00279222)
(0.0461567 0.00020176 0.00493316)
(0.0480205 0.000113464 0.00577742)
(0.0492507 5.87711e-05 0.00654926)
(0.0498194 3.90747e-05 0.00729801)
(0.0497269 4.3932e-05 0.00786056)
(0.0488912 6.38636e-05 0.00799817)
(0.0473362 7.72675e-05 0.00762484)
(0.0452586 5.93642e-05 0.00688461)
(0.0429329 -1.7933e-06 0.006047)
(0.0405783 -9.29756e-05 0.00535738)
(0.0382832 -0.000181559 0.00491611)
(0.0360834 -0.000252152 0.00463559)
(0.034071 -0.000306251 0.00436136)
(0.032353 -0.000335989 0.00401218)
(0.0310628 -0.000333677 0.00357831)
(0.0302765 -0.000302802 0.00303585)
(0.0300383 -0.00025483 0.00236336)
(0.0303692 -0.000200801 0.00156942)
(0.0312149 -0.000148271 0.000673806)
(0.0324849 -0.000110236 -0.000318345)
(0.0341513 -9.10626e-05 -0.00142495)
(0.0361519 -8.59425e-05 -0.0026325)
(0.0383399 -0.000102625 -0.00383281)
(0.0405091 -0.000150762 -0.00488647)
(0.0423832 -0.000225963 -0.00572637)
(0.0436591 -0.000311795 -0.00641047)
(0.0441821 -0.000384488 -0.00704106)
(0.0438736 -0.000405679 -0.00764381)
(0.0427103 -0.000352871 -0.0081473)
(0.0408327 -0.000247969 -0.00845666)
(0.0386569 -0.000138103 -0.00848999)
(0.0366998 -4.52253e-05 -0.00814386)
(0.0353156 3.70007e-05 -0.00733597)
(0.0346564 0.000112623 -0.00612487)
(0.0347297 0.000188487 -0.00465979)
(0.0355066 0.000270578 -0.00302083)
(0.0369076 0.000351338 -0.00123388)
(0.0388713 0.000394314 0.000617297)
(0.0412719 0.000376448 0.00237756)
(0.0438111 0.000303262 0.00384075)
(0.064335 0.000165559 0.00516702)
(0.0672491 1.14133e-05 0.00632279)
(0.0693112 -7.24181e-05 0.0073371)
(0.0704622 -8.64141e-05 0.00835414)
(0.0706995 -5.17839e-05 0.00925389)
(0.0699146 1.17517e-05 0.00972742)
(0.0681193 6.60733e-05 0.00956211)
(0.0655515 6.73219e-05 0.0088359)
(0.062544 -1.19232e-05 0.00786315)
(0.0593556 -0.000155818 0.00699557)
(0.0561205 -0.00030744 0.00640874)
(0.05293 -0.000433076 0.00601134)
(0.0499156 -0.000533649 0.0056219)
(0.0472056 -0.00059666 0.00517228)
(0.0449824 -0.000607242 0.00468842)
(0.0433824 -0.000567704 0.00414319)
(0.042511 -0.00049834 0.00347452)
(0.0424611 -0.00042244 0.00266722)
(0.0432405 -0.000351963 0.00174145)
(0.044759 -0.000307921 0.000693231)
(0.0469612 -0.000299388 -0.00053465)
(0.0497408 -0.000315308 -0.0019766)
(0.0528996 -0.000367999 -0.00352201)
(0.056182 -0.000477613 -0.00495909)
(0.0592352 -0.000632369 -0.00612691)
(0.0615988 -0.000793735 -0.00703767)
(0.062955 -0.000917838 -0.00782797)
(0.0631112 -0.000930276 -0.00860026)
(0.0619854 -0.000794985 -0.00934027)
(0.0596738 -0.000567738 -0.00996222)
(0.0566406 -0.000349025 -0.0103449)
(0.0536132 -0.000181867 -0.0103058)
(0.0512091 -4.80147e-05 -0.00967134)
(0.0497652 7.10862e-05 -0.00846409)
(0.0493425 0.000193418 -0.0068681)
(0.0499213 0.000330356 -0.00500018)
(0.051425 0.000467005 -0.00287998)
(0.0538581 0.000533842 -0.000597331)
(0.0571294 0.000489071 0.00166585)
(0.0608068 0.000349348 0.00364237)
(0.080478 -0.000103982 0.00351612)
(0.0845129 -0.0003243 0.00512201)
(0.0876043 -0.000432471 0.00647641)
(0.089657 -0.000414714 0.00781304)
(0.0906403 -0.000304675 0.00915686)
(0.0903883 -0.000150467 0.0102183)
(0.0888484 -1.64581e-05 0.010614)
(0.0862559 4.14455e-05 0.0102211)
(0.0829798 -1.6739e-05 0.00931032)
(0.0792826 -0.000185454 0.00836045)
(0.075295 -0.000394162 0.00769898)
(0.0711743 -0.000583022 0.0072516)
(0.0671331 -0.000740693 0.00676837)
(0.0633182 -0.000849811 0.00618986)
(0.0599323 -0.000890006 0.00563936)
(0.0571633 -0.000861306 0.00515409)
(0.0551825 -0.000791617 0.00464168)
(0.0541777 -0.000721677 0.00403457)
(0.0542849 -0.000670668 0.00334249)
(0.0554989 -0.000663768 0.0025663)
(0.05779 -0.000713633 0.00160315)
(0.061039 -0.00079997 0.000303468)
(0.0649988 -0.000928527 -0.0013212)
(0.0693586 -0.00113049 -0.00304229)
(0.0737206 -0.0013909 -0.00458198)
(0.0774785 -0.00164796 -0.00582887)
(0.0801152 -0.00183374 -0.00688292)
(0.0813122 -0.00182294 -0.00791285)
(0.0809626 -0.00154976 -0.00899624)
(0.0790458 -0.00110932 -0.010095)
(0.0758056 -0.000697389 -0.011063)
(0.0719505 -0.000418965 -0.0116474)
(0.0683522 -0.000241039 -0.0115792)
(0.0656803 -0.000110478 -0.0108057)
(0.0642205 2.03297e-05 -0.0095111)
(0.0640643 0.000180361 -0.00784174)
(0.0651459 0.000353295 -0.00579104)
(0.0675319 0.000438942 -0.0034239)
(0.0712448 0.000366974 -0.00090938)
(0.0758238 0.000160143 0.001488)
(0.0927147 -0.000830296 -0.000802427)
(0.0976064 -0.00109723 0.00138724)
(0.101642 -0.00122434 0.00330436)
(0.104804 -0.00115141 0.00509079)
(0.107037 -0.000897413 0.00695637)
(0.108056 -0.000549075 0.00883259)
(0.107577 -0.000234553 0.0102486)
(0.10569 -5.67392e-05 0.0107043)
(0.102809 -3.74328e-05 0.0102107)
(0.0992271 -0.000174256 0.00933706)
(0.0950198 -0.000401704 0.00868532)
(0.0903108 -0.000644677 0.00831559)
(0.0854127 -0.000864356 0.00785487)
(0.0805564 -0.00102411 0.00714879)
(0.0759606 -0.00110117 0.0064353)
(0.0718309 -0.00109777 0.00592998)
(0.0683638 -0.0010504 0.00558693)
(0.0657982 -0.00101944 0.00527527)
(0.0644028 -0.00104367 0.00497438)
(0.0643378 -0.00115478 0.00472412)
(0.0657022 -0.00136381 0.00443443)
(0.0684933 -0.0016318 0.00383658)
(0.0725376 -0.00195024 0.00272024)
(0.0775516 -0.00234296 0.00113411)
(0.0831041 -0.00276607 -0.00063945)
(0.088415 -0.00313823 -0.00230922)
(0.0927098 -0.00337879 -0.00380484)
(0.0955004 -0.00332444 -0.0052534)
(0.0967444 -0.00286173 -0.00679026)
(0.0964523 -0.00209111 -0.00848247)
(0.094471 -0.00131589 -0.0102375)
(0.0909579 -0.000774019 -0.011729)
(0.0866947 -0.000493045 -0.0125734)
(0.0827063 -0.000375635 -0.0126452)
(0.0796813 -0.000314778 -0.0121153)
(0.0780542 -0.000224147 -0.0111602)
(0.077888 -9.64617e-05 -0.00974425)
(0.0793131 -5.83756e-05 -0.00786804)
(0.0825692 -0.00020895 -0.00563525)
(0.0873606 -0.000500179 -0.0032066)
(0.100288 -0.00218056 -0.00731726)
(0.105216 -0.0024676 -0.0047736)
(0.109312 -0.00258517 -0.00220761)
(0.112919 -0.00248224 0.000173577)
(0.116374 -0.0020887 0.00251182)
(0.119273 -0.00147118 0.00509705)
(0.120941 -0.000840182 0.00773404)
(0.120952 -0.000389936 0.00964268)
(0.11951 -0.000171293 0.0101881)
(0.117002 -0.000169645 0.00971693)
(0.113534 -0.000332953 0.00916429)
(0.109088 -0.000585738 0.00896842)
(0.103906 -0.000858722 0.0087397)
(0.098353 -0.00106615 0.00807323)
(0.0927836 -0.00117077 0.00717694)
(0.0874526 -0.00118694 0.0064944)
(0.0825329 -0.00116127 0.00615705)
(0.0782212 -0.00117477 0.0060063)
(0.0748388 -0.00130424 0.00594709)
(0.0727228 -0.00161378 0.00607707)
(0.0721717 -0.00211156 0.00644218)
(0.0734259 -0.0026969 0.00677703)
(0.0764683 -0.00332185 0.00668532)
(0.0810766 -0.00401616 0.00594125)
(0.087007 -0.00470557 0.00455692)
(0.0934889 -0.00522836 0.00276271)
(0.0993698 -0.00550336 0.000833909)
(0.103846 -0.00539615 -0.00112294)
(0.106858 -0.00476581 -0.00310139)
(0.108688 -0.00366145 -0.00521548)
(0.10924 -0.00240937 -0.00760214)
(0.107958 -0.00139125 -0.0100449)
(0.104736 -0.000790687 -0.0120155)
(0.100408 -0.000577612 -0.013226)
(0.0960664 -0.000612438 -0.0138109)
(0.0926971 -0.000703478 -0.0139406)
(0.0907168 -0.000745936 -0.0135788)
(0.090238 -0.000879998 -0.0127073)
(0.0916642 -0.00123855 -0.0113715)
(0.095265 -0.0017365 -0.0095731)
(0.106279 -0.00386451 -0.013181)
(0.11019 -0.00420626 -0.0108543)
(0.113245 -0.00426304 -0.00808751)
(0.115656 -0.00414668 -0.00525948)
(0.118631 -0.00375293 -0.00256031)
(0.122459 -0.00298342 0.000303174)
(0.126158 -0.00203655 0.00356374)
(0.128577 -0.00122041 0.00670741)
(0.129333 -0.000705575 0.00871252)
(0.128967 -0.000461995 0.00913747)
(0.127648 -0.000394062 0.00885596)
(0.125011 -0.000490616 0.0088386)
(0.120881 -0.000726646 0.00898899)
(0.115508 -0.000959303 0.00868434)
(0.109519 -0.0010776 0.00785762)
(0.103488 -0.00109271 0.00701775)
(0.0976736 -0.00107279 0.00653695)
(0.0921631 -0.00110882 0.0063369)
(0.0872035 -0.00130861 0.00625051)
(0.0832434 -0.00178823 0.00639577)
(0.0807424 -0.00257854 0.00700615)
(0.0801311 -0.00351493 0.00800044)
(0.081642 -0.00444934 0.008912)
(0.0851062 -0.00542691 0.00927343)
(0.0902932 -0.00638876 0.00882919)
(0.0967108 -0.00709372 0.00753372)
(0.103103 -0.00741988 0.00558597)
(0.108184 -0.00730592 0.00331402)
(0.111694 -0.00665887 0.00103264)
(0.114356 -0.00547844 -0.00117963)
(0.116909 -0.00396385 -0.00362787)
(0.118797 -0.00245679 -0.00649246)
(0.118662 -0.00131231 -0.00936652)
(0.116108 -0.000715805 -0.0117459)
(0.111944 -0.000664032 -0.0135798)
(0.107647 -0.000922177 -0.0149585)
(0.104336 -0.00120019 -0.0157772)
(0.102276 -0.00156678 -0.0159958)
(0.101634 -0.00223972 -0.0156812)
(0.102951 -0.0031326 -0.0147919)
(0.11409 -0.0051572 -0.0157918)
(0.116534 -0.00571281 -0.0141208)
(0.1183 -0.00574448 -0.0118133)
(0.119009 -0.00560639 -0.00918661)
(0.119956 -0.00533927 -0.0065146)
(0.122561 -0.00468557 -0.00372615)
(0.126559 -0.00361107 -0.000521351)
(0.130315 -0.00248193 0.00294107)
(0.132498 -0.00168661 0.00583865)
(0.133218 -0.00129409 0.00729679)
(0.133668 -0.00106472 0.00748822)
(0.13386 -0.000874396 0.00757756)
(0.132663 -0.000825631 0.00803678)
(0.129327 -0.000898474 0.00832611)
(0.124199 -0.00094957 0.00801953)
(0.118352 -0.000918302 0.00739606)
(0.11257 -0.000859036 0.00691768)
(0.106962 -0.000881305 0.00666723)
(0.101508 -0.00110881 0.00649008)
(0.096533 -0.00166147 0.00649003)
(0.092561 -0.00260497 0.00701706)
(0.0901814 -0.00378722 0.00819915)
(0.0899504 -0.00496249 0.00965942)
(0.0919168 -0.00614863 0.0108109)
(0.0958305 -0.0073296 0.0111372)
(0.101276 -0.00823438 0.0103836)
(0.107078 -0.00860765 0.00865338)
(0.111536 -0.00842443 0.00644227)
(0.113872 -0.00774644 0.00433237)
(0.114908 -0.00666162 0.00257885)
(0.116297 -0.0052677 0.000782936)
(0.118958 -0.00364676 -0.00161962)
(0.121665 -0.00206572 -0.00458043)
(0.122391 -0.000905506 -0.0076105)
(0.120535 -0.000480329 -0.0104026)
(0.117306 -0.000754769 -0.0128408)
(0.114517 -0.00129516 -0.0147318)
(0.112943 -0.00189019 -0.0159831)
(0.112294 -0.00278243 -0.0166258)
(0.112524 -0.00401556 -0.0166204)
(0.121786 -0.00563787 -0.014757)
(0.123607 -0.00647573 -0.0141626)
(0.12481 -0.00657643 -0.0129598)
(0.124631 -0.00641354 -0.0112288)
(0.123878 -0.00627796 -0.00912983)
(0.124348 -0.00594692 -0.00675922)
(0.126972 -0.00511335 -0.00393373)
(0.130819 -0.0038832 -0.000653183)
(0.134016 -0.00279764 0.00250454)
(0.13545 -0.00226224 0.00467191)
(0.135814 -0.00214175 0.00550229)
(0.136644 -0.00199748 0.00573563)
(0.13771 -0.00169786 0.00624966)
(0.137299 -0.00136561 0.00695548)
(0.134378 -0.00110457 0.00731956)
(0.129596 -0.000940882 0.00726666)
(0.124502 -0.000854537 0.00713413)
(0.119912 -0.000842483 0.00709134)
(0.11554 -0.00099426 0.0070121)
(0.111008 -0.00146843 0.00691034)
(0.106494 -0.00240121 0.00716702)
(0.102704 -0.00367825 0.00812672)
(0.100657 -0.00502222 0.00959353)
(0.100965 -0.00636647 0.0109327)
(0.103441 -0.00769692 0.0114953)
(0.107541 -0.00874427 0.010912)
(0.112101 -0.00910649 0.00928929)
(0.115435 -0.0087371 0.00724355)
(0.116535 -0.00785645 0.00551855)
(0.11578 -0.00676454 0.00451573)
(0.114802 -0.00565019 0.00379678)
(0.115419 -0.00434606 0.00250061)
(0.117904 -0.00270049 0.000321786)
(0.120315 -0.00105382 -0.00238197)
(0.120763 -5.87344e-05 -0.00521374)
(0.119459 -0.000107945 -0.00791161)
(0.118193 -0.000858209 -0.0102385)
(0.118089 -0.00176625 -0.0121424)
(0.119006 -0.00282699 -0.0136304)
(0.120245 -0.0042174 -0.0145688)
(0.126585 -0.00539742 -0.011359)
(0.128691 -0.0065067 -0.0119098)
(0.130307 -0.00678465 -0.012161)
(0.130434 -0.00663844 -0.0118744)
(0.129261 -0.00656391 -0.0108074)
(0.128244 -0.00654167 -0.00911004)
(0.128938 -0.0061322 -0.00681774)
(0.13158 -0.0051781 -0.00389392)
(0.135017 -0.00401362 -0.000721941)
(0.137592 -0.00321863 0.00191357)
(0.138599 -0.00300726 0.00345155)
(0.138986 -0.00305878 0.00413049)
(0.139946 -0.00292009 0.00472405)
(0.140996 -0.00240317 0.00553177)
(0.140642 -0.00167165 0.00627275)
(0.138025 -0.00109918 0.00673744)
(0.133893 -0.000933245 0.00705384)
(0.129829 -0.00108533 0.00735822)
(0.12664 -0.00134012 0.0075393)
(0.123875 -0.00167536 0.00746563)
(0.120575 -0.00233313 0.00737991)
(0.116633 -0.00346755 0.00781272)
(0.113255 -0.00487417 0.00890839)
(0.111841 -0.0063571 0.0100758)
(0.112671 -0.00778988 0.0105329)
(0.11516 -0.00884376 0.00986896)
(0.118171 -0.00904676 0.00826398)
(0.120331 -0.00835796 0.00636048)
(0.12061 -0.00715506 0.00491898)
(0.119013 -0.00590314 0.00444168)
(0.116603 -0.00493694 0.00462544)
(0.115095 -0.00408392 0.00444595)
(0.115782 -0.00281868 0.00325454)
(0.117922 -0.00106298 0.00131951)
(0.119608 0.000419175 -0.000873058)
(0.120068 0.000765345 -0.00307966)
(0.120323 2.3918e-06 -0.00513982)
(0.121223 -0.00113557 -0.00704781)
(0.122772 -0.0023403 -0.0088402)
(0.124602 -0.00379389 -0.01035)
(0.12982 -0.00452385 -0.00827878)
(0.132129 -0.00589673 -0.0092667)
(0.13432 -0.00646789 -0.0103961)
(0.13527 -0.00645811 -0.0113521)
(0.134516 -0.00645344 -0.0114278)
(0.133019 -0.00662352 -0.0104914)
(0.132231 -0.00661 -0.00882719)
(0.133158 -0.00611701 -0.00643539)
(0.135661 -0.0052606 -0.0034877)
(0.138529 -0.004474 -0.000614939)
(0.14039 -0.00407084 0.00150992)
(0.141079 -0.00400146 0.00275248)
(0.141503 -0.0039184 0.00358304)
(0.142323 -0.00351098 0.00440727)
(0.143125 -0.00267343 0.00520126)
(0.142842 -0.00167722 0.00589217)
(0.140821 -0.00106035 0.00650246)
(0.137653 -0.00114051 0.00698394)
(0.134739 -0.00170471 0.00721533)
(0.133055 -0.00227899 0.00711034)
(0.131924 -0.00267416 0.0067448)
(0.129724 -0.00330316 0.00658059)
(0.12642 -0.00449603 0.00713563)
(0.1237 -0.00604996 0.00809163)
(0.122643 -0.00757051 0.00851848)
(0.123091 -0.00859283 0.00787631)
(0.124295 -0.00865329 0.00642797)
(0.125357 -0.00767104 0.00480818)
(0.125313 -0.00609214 0.0035722)
(0.123622 -0.0045652 0.00321592)
(0.120814 -0.00356652 0.00372014)
(0.118287 -0.00301392 0.00414962)
(0.117402 -0.00226965 0.00360714)
(0.118441 -0.000817531 0.00221142)
(0.120336 0.000808579 0.000574307)
(0.122107 0.00153548 -0.00105974)
(0.12372 0.000983013 -0.00263397)
(0.125297 -0.000147976 -0.00414435)
(0.126683 -0.00134806 -0.00566383)
(0.128057 -0.00280567 -0.00711609)
(0.133728 -0.00352288 -0.00762227)
(0.135887 -0.00512193 -0.00838479)
(0.138196 -0.00594086 -0.00938639)
(0.139497 -0.00606259 -0.0105894)
(0.139173 -0.00607374 -0.0112107)
(0.137675 -0.0063052 -0.010809)
(0.136165 -0.00653825 -0.00966188)
(0.135724 -0.00648762 -0.00789201)
(0.136964 -0.00613803 -0.00541212)
(0.139208 -0.00568319 -0.00257122)
(0.141135 -0.00529606 -5.50135e-05)
(0.142004 -0.00507014 0.00166572)
(0.142231 -0.00486035 0.00272311)
(0.142497 -0.0044738 0.00352967)
(0.14298 -0.00372434 0.00432503)
(0.143265 -0.00263501 0.00514385)
(0.142717 -0.00162889 0.00586634)
(0.141096 -0.00126064 0.00617363)
(0.138917 -0.00172946 0.00587818)
(0.137394 -0.00262546 0.00521763)
(0.13735 -0.0031684 0.00449015)
(0.137527 -0.00331009 0.00396256)
(0.136166 -0.00385905 0.00412893)
(0.133537 -0.00507138 0.00498839)
(0.131078 -0.00646306 0.00563387)
(0.129577 -0.00738658 0.00531402)
(0.129066 -0.00745508 0.00430161)
(0.129176 -0.00652613 0.00325378)
(0.129187 -0.00486245 0.0024085)
(0.128096 -0.00307562 0.00194082)
(0.125686 -0.00188935 0.00214226)
(0.123033 -0.00143143 0.00258855)
(0.12143 -0.00109584 0.00228341)
(0.121425 -0.000206334 0.00105042)
(0.122818 0.00106692 -0.000431713)
(0.125114 0.0018193 -0.00178596)
(0.127765 0.00153846 -0.00305937)
(0.130028 0.000657685 -0.00429308)
(0.131417 -0.000364951 -0.00550944)
(0.13235 -0.0017486 -0.00668391)
(0.139544 -0.00273079 -0.0087365)
(0.141198 -0.00437712 -0.00912122)
(0.142901 -0.00529222 -0.00968062)
(0.143909 -0.00544295 -0.0104766)
(0.143639 -0.00539492 -0.0109435)
(0.142119 -0.00555093 -0.0106522)
(0.140155 -0.00586613 -0.00982399)
(0.13888 -0.00611478 -0.00855095)
(0.139134 -0.00625115 -0.00656763)
(0.140659 -0.00620764 -0.00392889)
(0.142278 -0.00596639 -0.00124212)
(0.143013 -0.00561124 0.000814289)
(0.142788 -0.00522449 0.00207777)
(0.142071 -0.00477068 0.00295916)
(0.141272 -0.00414176 0.0039027)
(0.140589 -0.00322859 0.00496678)
(0.139994 -0.00220002 0.00575643)
(0.139295 -0.00148223 0.00567628)
(0.138197 -0.00156237 0.00459887)
(0.136887 -0.00242984 0.0031787)
(0.136533 -0.00335307 0.00216262)
(0.137539 -0.0036191 0.00172346)
(0.138333 -0.00370725 0.00188917)
(0.137542 -0.00427129 0.00262181)
(0.135658 -0.00513668 0.00332316)
(0.133855 -0.00574341 0.00338246)
(0.132812 -0.00576426 0.00296499)
(0.132553 -0.00508281 0.00254806)
(0.132739 -0.00371018 0.00214608)
(0.132474 -0.00196823 0.00158355)
(0.131042 -0.000571816 0.00114402)
(0.12899 6.97744e-05 0.000986309)
(0.127495 0.000336672 0.000514481)
(0.127169 0.00079151 -0.000701316)
(0.128075 0.00140465 -0.00222498)
(0.13015 0.00165748 -0.00359673)
(0.13301 0.00135395 -0.00483083)
(0.13569 0.00078377 -0.00602149)
(0.137398 0.000121135 -0.0071548)
(0.138393 -0.00101729 -0.00810986)
(0.144625 -0.00193929 -0.00879302)
(0.146026 -0.00331786 -0.00912788)
(0.147162 -0.00422341 -0.009624)
(0.147874 -0.00451068 -0.0102708)
(0.147838 -0.0044618 -0.0105903)
(0.14668 -0.00445363 -0.0103198)
(0.144691 -0.00466627 -0.00965637)
(0.142931 -0.00507397 -0.00868188)
(0.142421 -0.00559613 -0.0070748)
(0.143184 -0.0059786 -0.0047365)
(0.144252 -0.00592561 -0.00213012)
(0.144532 -0.00544496 4.53096e-05)
(0.143639 -0.00475889 0.00145565)
(0.141849 -0.00410749 0.0023525)
(0.139772 -0.00356958 0.00317793)
(0.13806 -0.00300313 0.00403786)
(0.137064 -0.00230177 0.00452229)
(0.136646 -0.00161227 0.00408129)
(0.136273 -0.00139183 0.00267601)
(0.135519 -0.00200017 0.00109246)
(0.134996 -0.00313843 0.000251338)
(0.135811 -0.00391801 0.000258189)
(0.137543 -0.00405229 0.000677142)
(0.138621 -0.00406811 0.00133369)
(0.138418 -0.0042501 0.0020382)
(0.137464 -0.00440507 0.00246037)
(0.136446 -0.00430571 0.00257828)
(0.135725 -0.00385067 0.00263681)
(0.135408 -0.00289598 0.00265804)
(0.135058 -0.0014669 0.00239878)
(0.134028 -5.63405e-05 0.00188541)
(0.132447 0.000761062 0.00133502)
(0.131318 0.00110113 0.000641177)
(0.131296 0.00137883 -0.000436557)
(0.132256 0.00156114 -0.00176284)
(0.133924 0.00134492 -0.00308562)
(0.136188 0.000858438 -0.00441388)
(0.138778 0.000437239 -0.00580129)
(0.141176 9.61615e-05 -0.00715462)
(0.143065 -0.000636596 -0.00820892)
(0.144891 -0.00112786 -0.00615902)
(0.147096 -0.00200556 -0.00705598)
(0.148759 -0.00271385 -0.00815229)
(0.14993 -0.00312647 -0.00927993)
(0.15055 -0.00321254 -0.00995232)
(0.150314 -0.0030856 -0.00995136)
(0.149076 -0.00305871 -0.00941105)
(0.147474 -0.00340901 -0.00849043)
(0.146506 -0.00412903 -0.00710238)
(0.146469 -0.0048585 -0.00515768)
(0.14673 -0.00511001 -0.00283321)
(0.146427 -0.00469043 -0.000610062)
(0.145172 -0.0038286 0.00100498)
(0.143159 -0.00292491 0.00188729)
(0.140937 -0.00227838 0.00229199)
(0.139161 -0.00192299 0.00251718)
(0.138122 -0.00166214 0.00251757)
(0.137708 -0.00134835 0.00199852)
(0.137632 -0.00112403 0.000802626)
(0.137567 -0.00148974 -0.000631045)
(0.137497 -0.00253755 -0.00145696)
(0.138066 -0.00368317 -0.00135728)
(0.139449 -0.00421584 -0.000725045)
(0.140802 -0.0042238 0.000115746)
(0.141233 -0.00401292 0.00110478)
(0.140569 -0.00365657 0.00204094)
(0.139165 -0.00322213 0.00274429)
(0.137585 -0.00275437 0.00330451)
(0.136245 -0.00208831 0.0038034)
(0.135075 -0.00101058 0.00410453)
(0.13371 0.000257454 0.00408028)
(0.132127 0.00112842 0.00376016)
(0.130954 0.00151592 0.00317536)
(0.130703 0.00176189 0.00241175)
(0.131227 0.00187883 0.0015483)
(0.132158 0.00159841 0.000532573)
(0.133584 0.00100136 -0.00076708)
(0.135851 0.000458396 -0.00231842)
(0.138919 8.57196e-05 -0.00387486)
(0.142119 -0.00036513 -0.00518387)
(0.143275 -0.000533233 -0.00305523)
(0.146313 -0.000705596 -0.00432839)
(0.148856 -0.000947134 -0.00580918)
(0.150767 -0.00123565 -0.00736189)
(0.152034 -0.0014081 -0.00853346)
(0.152682 -0.00132492 -0.00896275)
(0.15261 -0.0011876 -0.00865702)
(0.151881 -0.00141963 -0.0078316)
(0.150967 -0.00219478 -0.00666383)
(0.150227 -0.0031656 -0.00518496)
(0.149448 -0.00377811 -0.00334807)
(0.148155 -0.00362884 -0.00132806)
(0.146234 -0.00280662 0.000444253)
(0.144037 -0.00181505 0.00156894)
(0.142077 -0.00113737 0.00200603)
(0.140751 -0.000902475 0.00205248)
(0.140015 -0.000925077 0.00194296)
(0.139606 -0.000959138 0.00158343)
(0.139447 -0.000913112 0.000760655)
(0.139531 -0.00108661 -0.000416822)
(0.139763 -0.00180233 -0.0012778)
(0.140359 -0.00287787 -0.00130831)
(0.141498 -0.00370469 -0.000614371)
(0.14267 -0.00393181 0.000461421)
(0.143069 -0.00356419 0.00167001)
(0.142321 -0.00274084 0.00277616)
(0.140677 -0.00188226 0.0037036)
(0.13872 -0.00132267 0.00459724)
(0.136962 -0.000992285 0.0053871)
(0.135491 -0.000486778 0.00582067)
(0.13415 0.000297116 0.00585232)
(0.132778 0.000978915 0.00562596)
(0.13149 0.00133248 0.00514729)
(0.130617 0.00158176 0.00448531)
(0.130323 0.00175749 0.00384342)
(0.13057 0.00155937 0.00319366)
(0.131456 0.000915509 0.00227303)
(0.133352 0.000197576 0.000983433)
(0.136335 -0.000262569 -0.000439824)
(0.139857 -0.000430425 -0.00179899)
(0.141909 0.0008949 2.64542e-05)
(0.145008 0.00102938 -0.00149534)
(0.147916 0.00113004 -0.00314387)
(0.150357 0.00106293 -0.0048956)
(0.152138 0.000885954 -0.00643514)
(0.153344 0.00076133 -0.00735739)
(0.154041 0.000710502 -0.00749525)
(0.154199 0.000490548 -0.00696433)
(0.153846 -0.000115675 -0.00604321)
(0.152997 -0.00101155 -0.00493265)
(0.151546 -0.00177448 -0.00360366)
(0.149457 -0.00195324 -0.0020369)
(0.14701 -0.00142792 -0.000444832)
(0.144752 -0.00060878 0.000838989)
(0.143113 -9.95289e-05 0.00161582)
(0.142146 -0.000122864 0.00197555)
(0.141522 -0.00046397 0.00213209)
(0.140935 -0.000771742 0.00214257)
(0.140486 -0.000866447 0.00193181)
(0.140431 -0.000970618 0.00149201)
(0.140839 -0.00155826 0.00117068)
(0.14171 -0.00263142 0.00136898)
(0.14288 -0.00360188 0.00206831)
(0.143716 -0.00384101 0.00298069)
(0.143503 -0.00320423 0.00395928)
(0.142158 -0.00196624 0.00488546)
(0.14028 -0.000764198 0.00570581)
(0.138518 -0.000127407 0.00643626)
(0.137073 2.55541e-05 0.00694426)
(0.135781 0.000252876 0.00709075)
(0.134516 0.000858964 0.00699909)
(0.133259 0.00158804 0.00683398)
(0.131989 0.00211485 0.00661106)
(0.130857 0.00246836 0.00627232)
(0.130144 0.00276721 0.00596253)
(0.130128 0.00280572 0.00575667)
(0.131027 0.00239977 0.00536751)
(0.1329 0.00172842 0.00446942)
(0.135588 0.00113278 0.00309597)
(0.138721 0.000868751 0.00154548)
(0.142459 0.00210583 0.00157719)
(0.14544 0.00217998 0.00012956)
(0.148028 0.00235156 -0.00129687)
(0.150183 0.00242036 -0.00280014)
(0.152014 0.00230844 -0.00434292)
(0.153605 0.00208865 -0.00566066)
(0.154838 0.00181508 -0.00641792)
(0.155518 0.0014238 -0.00647284)
(0.155572 0.000907852 -0.00598666)
(0.154963 0.000338815 -0.00526314)
(0.153641 -0.000155555 -0.00438437)
(0.151758 -0.000435886 -0.00324565)
(0.149831 -0.000358154 -0.00185382)
(0.14841 4.13245e-08 -0.000455686)
(0.147573 0.000276052 0.000680643)
(0.146907 0.000199656 0.00155134)
(0.146069 -0.000115712 0.00234304)
(0.145073 -0.000368771 0.00309192)
(0.144332 -0.000374964 0.00364501)
(0.144258 -0.00027569 0.00373374)
(0.144849 -0.000518214 0.00350821)
(0.145794 -0.00133205 0.00344923)
(0.146696 -0.00226204 0.00382107)
(0.146961 -0.00253008 0.00442034)
(0.146004 -0.00176991 0.00506016)
(0.143902 -0.000264742 0.00558603)
(0.141514 0.00130649 0.00591115)
(0.139603 0.00228353 0.00602218)
(0.138185 0.0025646 0.00586887)
(0.136864 0.00258891 0.00551232)
(0.135445 0.00283625 0.00519138)
(0.133969 0.00340464 0.00509365)
(0.132511 0.00404158 0.00519925)
(0.131288 0.00446345 0.00535943)
(0.130684 0.00461343 0.00554273)
(0.130925 0.00451825 0.00584136)
(0.13205 0.00414062 0.00601368)
(0.133924 0.00351033 0.00561738)
(0.136402 0.00280396 0.00454804)
(0.13934 0.00229121 0.0030929)
(0.142221 0.00197711 0.00187727)
(0.144676 0.00163151 0.000851067)
(0.146826 0.00169379 -0.000242041)
(0.148624 0.00188017 -0.00143471)
(0.150205 0.00194185 -0.0026922)
(0.151758 0.00184133 -0.00390614)
(0.153328 0.00161955 -0.00492772)
(0.154704 0.00131748 -0.00560125)
(0.155578 0.000957879 -0.00581149)
(0.155766 0.000593255 -0.00558874)
(0.155234 0.000205683 -0.00500179)
(0.154103 -0.000284778 -0.00408919)
(0.152713 -0.000849614 -0.00291123)
(0.151593 -0.00131764 -0.00164129)
(0.151038 -0.00160808 -0.000471081)
(0.150739 -0.00178736 0.000510814)
(0.150143 -0.0019148 0.00139263)
(0.149046 -0.00194188 0.00221085)
(0.147733 -0.00181494 0.00279746)
(0.146762 -0.00164589 0.00293632)
(0.146426 -0.00164915 0.00262422)
(0.146631 -0.0019308 0.00225023)
(0.146946 -0.00226722 0.00218531)
(0.146839 -0.00214643 0.00246726)
(0.145957 -0.0011416 0.00293681)
(0.144445 0.000682166 0.00330651)
(0.142881 0.00278934 0.00326153)
(0.141723 0.0044087 0.00270124)
(0.140916 0.00506847 0.00194199)
(0.140192 0.00497199 0.0014452)
(0.139407 0.00481927 0.00145507)
(0.138471 0.00514754 0.00183437)
(0.137291 0.00590749 0.00229642)
(0.135931 0.00659518 0.00272185)
(0.134824 0.00680727 0.0031298)
(0.134402 0.00652693 0.00357165)
(0.134783 0.00590163 0.00392836)
(0.135858 0.00501127 0.00394035)
(0.137529 0.00391942 0.00353404)
(0.139726 0.00280519 0.0028013)
(0.144085 0.00118978 0.00236477)
(0.144921 0.000940046 0.0022942)
(0.14537 0.00103013 0.00190089)
(0.145654 0.00116063 0.00119019)
(0.146117 0.0011594 0.00021642)
(0.146938 0.0010326 -0.000962961)
(0.148072 0.00089091 -0.00231376)
(0.149325 0.000818942 -0.00370488)
(0.150473 0.000817522 -0.00487927)
(0.151301 0.000833175 -0.00559473)
(0.151621 0.000795399 -0.00573368)
(0.151393 0.000546647 -0.00525017)
(0.150826 -3.43597e-05 -0.00419112)
(0.150328 -0.000900154 -0.00276868)
(0.150231 -0.00180878 -0.00127857)
(0.150551 -0.00249355 1.86747e-05)
(0.150953 -0.00281193 0.0010182)
(0.151028 -0.00270674 0.00173388)
(0.15056 -0.00228617 0.00218794)
(0.149695 -0.00188305 0.00237651)
(0.14874 -0.00189292 0.00234627)
(0.147985 -0.00232807 0.00229176)
(0.147509 -0.00272803 0.00243738)
(0.147127 -0.00251468 0.00280221)
(0.146589 -0.00147176 0.00318885)
(0.145861 0.000133618 0.00328936)
(0.145158 0.00181274 0.00282416)
(0.144774 0.00311257 0.00176898)
(0.144756 0.00377356 0.000492205)
(0.144905 0.0038303 -0.000470063)
(0.144947 0.00372736 -0.000815973)
(0.144697 0.00403069 -0.000674285)
(0.144077 0.00496189 -0.000395525)
(0.143157 0.00614833 -0.000141475)
(0.14221 0.00691411 0.000148521)
(0.141547 0.00685792 0.00058138)
(0.141294 0.00602155 0.00112943)
(0.141445 0.00468615 0.00161839)
(0.14203 0.00321681 0.00197274)
(0.143 0.00196428 0.0022172)
(0.152181 0.00203302 0.00143071)