/*--------------------------------*- C++ -*----------------------------------*\
| =========                 |                                                 |
| \\      /  F ield         | OpenFOAM: The Open Source CFD Toolbox           |
|  \\    /   O peration     | Version:  2306                                  |
|   \\  /    A nd           | Website:  www.openfoam.com                      |
|    \\/     M anipulation  |                                                 |
\*---------------------------------------------------------------------------*/
FoamFile
{
    version     2.0;
    format      ascii;
    arch        "LSB;label=32;scalar=64";
    class       volScalarField;
    location    "9";
    object      nut;
}
// * * * * * * * * * * * * * * * * * * * * * * * * * * * * * * * * * * * * * //

dimensions      [0 2 -1 0 0 0 0];

internalField   nonuniform List<scalar> 
60000
(
5.8505e-05
6.13429e-05
6.52479e-05
7.02828e-05
7.59453e-05
8.12313e-05
8.42192e-05
8.37249e-05
8.05371e-05
7.66005e-05
7.33102e-05
7.08831e-05
6.88406e-05
6.65071e-05
6.33113e-05
5.91793e-05
5.49023e-05
5.16698e-05
5.00946e-05
4.98237e-05
5.03755e-05
5.16756e-05
5.38393e-05
5.65645e-05
5.93711e-05
6.22938e-05
6.5431e-05
6.87002e-05
7.2483e-05
7.68416e-05
8.00587e-05
8.01849e-05
7.73751e-05
7.30799e-05
6.81049e-05
6.29886e-05
5.86247e-05
5.59747e-05
5.54718e-05
5.65172e-05
5.73048e-05
6.05196e-05
6.49375e-05
7.03007e-05
7.60615e-05
8.15799e-05
8.53076e-05
8.57631e-05
8.29928e-05
7.87948e-05
7.51967e-05
7.28815e-05
7.1285e-05
6.94428e-05
6.66721e-05
6.29857e-05
5.90086e-05
5.54188e-05
5.27573e-05
5.13086e-05
5.10557e-05
5.17964e-05
5.32695e-05
5.52654e-05
5.76858e-05
6.07806e-05
6.46462e-05
6.91409e-05
7.42931e-05
7.94742e-05
8.27315e-05
8.2641e-05
7.97943e-05
7.57195e-05
7.14781e-05
6.73792e-05
6.31543e-05
5.89669e-05
5.61565e-05
5.56711e-05
5.42629e-05
5.67129e-05
6.06943e-05
6.57904e-05
7.15419e-05
7.77724e-05
8.34963e-05
8.66112e-05
8.55934e-05
8.14496e-05
7.70555e-05
7.42838e-05
7.29492e-05
7.19252e-05
7.0315e-05
6.78317e-05
6.44771e-05
6.02688e-05
5.57891e-05
5.22165e-05
5.03246e-05
4.99814e-05
5.06107e-05
5.18858e-05
5.38832e-05
5.68948e-05
6.09811e-05
6.57134e-05
7.0985e-05
7.66386e-05
8.12346e-05
8.29879e-05
8.17808e-05
7.89826e-05
7.59372e-05
7.29822e-05
6.90824e-05
6.33278e-05
5.7424e-05
5.41823e-05
5.09132e-05
5.10669e-05
5.33248e-05
5.72323e-05
6.24481e-05
6.89288e-05
7.67897e-05
8.38894e-05
8.66026e-05
8.38781e-05
7.8773e-05
7.50107e-05
7.35786e-05
7.33801e-05
7.32018e-05
7.24249e-05
7.04967e-05
6.6552e-05
6.05228e-05
5.40993e-05
4.93775e-05
4.70136e-05
4.63695e-05
4.67203e-05
4.80186e-05
5.04357e-05
5.40232e-05
5.79933e-05
6.1806e-05
6.66606e-05
7.28933e-05
7.82237e-05
8.07613e-05
8.07076e-05
7.94681e-05
7.80484e-05
7.55503e-05
6.98231e-05
6.13202e-05
5.41161e-05
5.02869e-05
4.6642e-05
4.55827e-05
4.65413e-05
4.9458e-05
5.4307e-05
6.24208e-05
7.33079e-05
8.19203e-05
8.35275e-05
7.92063e-05
7.43345e-05
7.22902e-05
7.26078e-05
7.3636e-05
7.45297e-05
7.47856e-05
7.29319e-05
6.73981e-05
5.89063e-05
5.04386e-05
4.4476e-05
4.14439e-05
4.03519e-05
4.04659e-05
4.16702e-05
4.42247e-05
4.71987e-05
4.89032e-05
5.08572e-05
5.59998e-05
6.44017e-05
7.25007e-05
7.73839e-05
7.93364e-05
7.99333e-05
7.96296e-05
7.6316e-05
6.80606e-05
5.7787e-05
5.50311e-05
4.82654e-05
4.35964e-05
4.02186e-05
3.90693e-05
4.04369e-05
4.41526e-05
5.22291e-05
6.58717e-05
7.54253e-05
7.55228e-05
7.08119e-05
6.80067e-05
6.85445e-05
7.03512e-05
7.21381e-05
7.43612e-05
7.614e-05
7.44456e-05
6.73857e-05
5.66266e-05
4.59066e-05
3.84172e-05
3.45966e-05
3.29946e-05
3.27335e-05
3.41237e-05
3.70347e-05
3.89861e-05
3.88864e-05
4.21544e-05
4.66641e-05
5.45107e-05
6.48442e-05
7.22062e-05
7.58116e-05
7.7644e-05
7.79877e-05
7.38032e-05
6.46136e-05
6.10311e-05
5.58907e-05
5.11635e-05
4.36488e-05
3.56646e-05
3.32428e-05
3.73829e-05
4.06262e-05
4.21485e-05
5.40429e-05
6.272e-05
6.14231e-05
5.85822e-05
5.97092e-05
6.26778e-05
6.4542e-05
6.68035e-05
7.16655e-05
7.63097e-05
7.57466e-05
6.80742e-05
5.49495e-05
4.15141e-05
3.28202e-05
2.87249e-05
2.70593e-05
2.68751e-05
2.93718e-05
3.4554e-05
3.50584e-05
3.11764e-05
3.89226e-05
4.18197e-05
4.47217e-05
5.52654e-05
6.349e-05
6.73106e-05
7.02085e-05
7.13085e-05
6.75289e-05
5.64636e-05
5.72483e-05
5.90002e-05
5.59062e-05
4.37359e-05
3.02329e-05
2.78181e-05
3.72969e-05
4.10208e-05
3.38397e-05
4.00116e-05
4.42758e-05
4.17045e-05
4.33197e-05
4.91649e-05
5.24121e-05
5.24662e-05
5.63834e-05
6.61359e-05
7.54866e-05
7.79792e-05
6.99701e-05
5.33773e-05
3.79555e-05
2.95852e-05
2.64352e-05
2.52817e-05
2.64103e-05
3.28646e-05
4.26238e-05
3.85462e-05
2.5344e-05
3.61913e-05
3.71115e-05
3.59672e-05
4.38025e-05
4.5736e-05
4.56994e-05
5.04374e-05
5.53921e-05
3.19005e-05
3.9041e-05
4.87568e-05
5.74929e-05
5.56573e-05
4.07563e-05
2.48889e-05
2.10288e-05
3.42981e-05
3.7883e-05
2.59414e-05
2.87678e-05
2.72068e-05
2.41894e-05
2.9842e-05
3.71807e-05
3.6077e-05
3.212e-05
3.86397e-05
5.59197e-05
7.34254e-05
8.04915e-05
7.03424e-05
5.04298e-05
3.54435e-05
2.94802e-05
2.86069e-05
2.99447e-05
3.48585e-05
4.53451e-05
5.35709e-05
4.0142e-05
2.12535e-05
3.1846e-05
2.75788e-05
2.16927e-05
2.17941e-05
2.05491e-05
2.16951e-05
2.55511e-05
2.26839e-05
2.51005e-05
3.00227e-05
3.89117e-05
5.17774e-05
5.06314e-05
3.57584e-05
2.12226e-05
1.709e-05
3.17919e-05
3.2895e-05
2.16509e-05
2.57606e-05
1.84843e-05
1.66673e-05
1.90625e-05
2.41622e-05
1.85839e-05
1.24561e-05
1.99705e-05
4.37828e-05
7.0909e-05
8.01131e-05
6.63489e-05
4.64458e-05
3.5176e-05
3.25213e-05
3.34238e-05
3.79591e-05
4.74201e-05
5.71539e-05
5.52245e-05
3.1289e-05
1.74011e-05
2.32691e-05
1.27793e-05
1.98548e-05
2.68985e-05
2.73387e-05
2.49709e-05
1.39091e-05
2.01559e-05
3.04849e-05
2.9923e-05
3.26735e-05
4.74588e-05
4.49723e-05
3.15186e-05
2.09573e-05
1.80536e-05
3.04757e-05
2.91681e-05
2.26803e-05
2.50353e-05
1.12145e-05
1.32394e-05
9.72415e-06
1.76213e-05
1.2488e-05
1.01391e-05
1.63395e-05
3.66985e-05
6.68198e-05
7.37913e-05
5.96127e-05
4.43876e-05
3.54789e-05
3.09123e-05
3.26002e-05
4.22148e-05
5.48672e-05
5.85293e-05
4.46318e-05
1.82003e-05
1.64142e-05
1.71566e-05
1.92464e-05
2.62508e-05
2.38262e-05
1.69519e-05
2.20724e-05
1.51548e-05
1.99979e-05
2.86515e-05
2.16344e-05
3.19202e-05
4.63432e-05
4.16363e-05
3.17204e-05
2.4552e-05
2.03659e-05
2.89352e-05
2.6242e-05
2.04978e-05
1.81496e-05
5.47407e-06
1.20257e-05
7.43388e-06
1.63159e-05
1.22942e-05
1.37627e-05
2.21285e-05
3.23673e-05
5.79971e-05
6.31054e-05
5.17607e-05
3.66199e-05
2.29205e-05
2.05396e-05
2.7295e-05
4.08399e-05
5.3556e-05
5.07e-05
3.13904e-05
1.53291e-05
1.64279e-05
1.49388e-05
2.17005e-05
3.02002e-05
2.9831e-05
3.61421e-05
3.518e-05
3.27355e-05
2.98977e-05
2.48304e-05
1.76128e-05
3.69096e-05
4.60279e-05
4.03374e-05
3.45816e-05
2.70138e-05
2.14899e-05
2.51061e-05
2.02102e-05
1.6172e-05
1.23547e-05
6.62611e-06
1.19907e-05
1.01671e-05
1.45626e-05
1.23592e-05
1.36585e-05
2.20121e-05
2.59498e-05
3.79246e-05
3.72056e-05
3.0065e-05
2.50106e-05
2.04904e-05
1.98809e-05
2.28312e-05
3.88906e-05
4.88649e-05
4.04486e-05
2.41162e-05
1.60092e-05
1.27759e-05
1.51547e-05
2.57338e-05
3.42281e-05
3.03322e-05
3.73732e-05
3.93557e-05
3.47235e-05
3.05302e-05
1.95044e-05
2.07096e-05
4.11453e-05
4.54044e-05
4.12234e-05
3.6148e-05
2.74032e-05
2.29258e-05
2.15952e-05
1.71008e-05
1.54372e-05
1.11707e-05
8.84805e-06
1.33815e-05
1.0655e-05
1.30635e-05
1.45833e-05
1.43029e-05
2.65884e-05
2.62689e-05
1.60042e-05
1.52305e-05
2.49947e-05
2.74385e-05
2.27375e-05
1.84025e-05
2.38599e-05
3.90912e-05
4.06811e-05
3.10696e-05
2.12374e-05
1.53578e-05
1.3413e-05
1.5723e-05
2.18861e-05
1.09687e-05
1.62881e-05
2.31557e-05
2.41956e-05
2.64954e-05
2.89919e-05
1.22834e-05
2.57185e-05
4.24519e-05
4.45784e-05
4.29816e-05
3.65772e-05
2.88133e-05
2.56637e-05
2.22446e-05
1.82413e-05
1.56355e-05
1.21013e-05
1.11243e-05
1.1919e-05
5.83839e-06
1.32948e-05
1.72414e-05
2.28857e-05
2.72377e-05
1.87783e-05
1.50522e-05
2.22141e-05
2.72913e-05
2.43199e-05
1.82884e-05
1.50631e-05
2.82483e-05
3.53572e-05
3.18247e-05
2.5396e-05
1.89111e-05
1.3522e-05
1.31584e-05
1.22288e-05
2.20866e-05
1.84203e-05
1.19906e-05
1.36634e-05
1.97577e-05
3.30951e-05
3.02828e-05
1.24059e-05
3.18184e-05
4.44082e-05
4.77583e-05
4.47243e-05
3.70557e-05
3.10269e-05
2.63066e-05
2.07461e-05
1.70612e-05
1.58919e-05
1.32785e-05
1.00453e-05
1.05918e-05
1.22189e-05
1.88335e-05
2.00139e-05
1.54265e-05
1.73748e-05
2.09834e-05
1.92504e-05
2.25993e-05
2.53328e-05
2.00797e-05
1.18829e-05
1.92836e-05
2.8684e-05
2.92047e-05
2.65942e-05
2.0355e-05
1.53827e-05
1.65396e-05
1.98788e-05
1.86917e-05
1.86523e-05
1.33349e-05
1.24645e-05
1.74689e-05
2.76613e-05
3.64249e-05
2.92724e-05
2.07254e-05
3.29468e-05
4.44923e-05
4.68769e-05
4.20116e-05
3.68378e-05
3.09509e-05
2.30149e-05
1.58672e-05
1.19375e-05
9.8698e-06
8.73927e-06
1.14693e-05
1.43889e-05
1.38949e-05
1.4641e-05
1.8447e-05
2.30994e-05
2.2878e-05
1.71776e-05
1.70847e-05
2.7083e-05
2.66222e-05
1.45658e-05
1.07421e-05
2.09774e-05
2.68518e-05
2.6478e-05
2.2835e-05
2.09273e-05
1.7931e-05
1.61264e-05
1.76361e-05
1.44816e-05
7.86635e-06
1.48036e-05
2.3576e-05
2.74145e-05
3.04163e-05
3.00375e-05
2.79194e-05
2.75084e-05
2.83029e-05
3.21166e-05
3.3395e-05
3.16976e-05
3.03661e-05
2.85008e-05
2.34461e-05
1.466e-05
6.98194e-06
7.7864e-06
1.16935e-05
1.50317e-05
1.5895e-05
1.85351e-05
2.22731e-05
2.3936e-05
2.56805e-05
2.33696e-05
1.53242e-05
2.24961e-05
3.06499e-05
2.29805e-05
1.01835e-05
1.23424e-05
2.09428e-05
2.68705e-05
2.73123e-05
2.13738e-05
1.39397e-05
1.49841e-05
2.46041e-05
2.51763e-05
1.98865e-05
1.36891e-05
1.87295e-05
2.15486e-05
2.24801e-05
2.37996e-05
2.19696e-05
2.4838e-05
2.88814e-05
2.51441e-05
2.00559e-05
2.08788e-05
2.24819e-05
2.4408e-05
2.57317e-05
2.55042e-05
2.29246e-05
1.86841e-05
1.38563e-05
1.35239e-05
2.16538e-05
2.80258e-05
2.5114e-05
1.5927e-05
2.54377e-05
3.21009e-05
1.99252e-05
2.02581e-05
3.66851e-05
3.59663e-05
2.00949e-05
1.01521e-05
2.11684e-05
2.85417e-05
2.7015e-05
2.09076e-05
1.94107e-05
2.20036e-05
3.60771e-05
2.77123e-05
1.87643e-05
1.17592e-05
1.38665e-05
1.83778e-05
1.93794e-05
1.86544e-05
1.72233e-05
1.66375e-05
2.01388e-05
2.26694e-05
2.02639e-05
1.51619e-05
1.28017e-05
1.27648e-05
1.40441e-05
1.51759e-05
1.92018e-05
2.371e-05
2.32242e-05
1.89326e-05
1.79402e-05
2.26823e-05
2.46313e-05
1.81232e-05
1.69947e-05
2.62885e-05
2.55126e-05
1.69847e-05
1.98539e-05
2.40993e-05
1.68885e-05
1.04951e-05
2.36372e-05
3.1634e-05
3.24362e-05
3.62355e-05
4.2023e-05
4.20825e-05
3.90078e-05
3.54117e-05
3.04712e-05
2.62304e-05
2.41837e-05
2.34831e-05
2.48911e-05
2.63416e-05
2.41333e-05
1.9801e-05
1.60953e-05
1.16597e-05
9.61822e-06
1.60442e-05
1.97212e-05
1.80937e-05
1.56157e-05
1.63117e-05
1.82195e-05
1.89387e-05
2.03904e-05
2.00106e-05
1.55419e-05
9.80227e-06
6.47338e-06
6.73484e-06
1.23101e-05
2.13931e-05
2.69848e-05
2.62004e-05
1.78927e-05
8.32184e-06
7.7444e-06
9.29697e-06
2.44297e-05
3.43895e-05
3.85833e-05
4.30928e-05
4.46876e-05
4.21157e-05
2.57696e-05
2.77702e-05
3.04819e-05
3.2043e-05
3.24307e-05
3.20081e-05
3.05474e-05
2.76416e-05
2.37113e-05
1.81348e-05
1.36808e-05
1.38689e-05
1.54413e-05
1.91322e-05
2.26572e-05
2.22244e-05
1.85024e-05
1.36827e-05
8.90048e-06
7.87525e-06
9.53777e-06
1.17865e-05
1.3154e-05
1.26654e-05
1.60856e-05
1.83401e-05
1.82643e-05
2.28972e-05
3.01559e-05
3.42341e-05
3.09627e-05
2.0414e-05
1.1482e-05
1.30587e-05
2.39391e-05
3.54299e-05
4.06528e-05
3.96289e-05
3.41021e-05
2.78161e-05
1.38754e-05
1.1899e-05
1.44482e-05
2.04899e-05
2.35913e-05
2.21296e-05
1.79494e-05
1.38145e-05
1.22721e-05
1.27682e-05
1.32154e-05
1.27172e-05
1.21547e-05
1.2484e-05
1.3386e-05
1.34378e-05
1.41236e-05
1.72333e-05
2.00068e-05
2.05111e-05
1.87779e-05
1.47822e-05
1.25543e-05
1.43914e-05
1.41958e-05
1.60286e-05
1.79593e-05
1.79807e-05
2.36189e-05
2.93754e-05
2.8656e-05
2.2922e-05
1.62841e-05
1.43001e-05
2.05429e-05
3.01441e-05
3.43323e-05
2.95094e-05
2.07385e-05
1.58139e-05
1.09414e-05
9.67359e-06
1.17214e-05
1.33738e-05
1.28794e-05
1.2118e-05
1.22155e-05
1.30108e-05
1.35936e-05
1.18944e-05
8.25759e-06
7.97965e-06
8.14297e-06
7.18835e-06
1.16285e-05
1.53658e-05
1.70193e-05
2.07895e-05
2.26916e-05
1.92823e-05
1.4455e-05
1.33781e-05
1.52944e-05
1.42245e-05
7.71451e-06
5.91714e-06
1.18945e-05
1.61423e-05
1.96256e-05
2.01727e-05
1.6789e-05
1.25275e-05
1.05786e-05
9.28345e-06
1.04043e-05
1.58653e-05
1.87111e-05
1.75004e-05
1.54621e-05
1.36112e-05
1.97882e-05
1.57264e-05
1.40542e-05
1.51206e-05
1.18035e-05
5.76594e-06
9.68341e-06
1.32978e-05
1.3559e-05
1.3036e-05
1.13125e-05
8.31006e-06
6.99265e-06
9.15727e-06
1.34252e-05
1.67833e-05
1.64235e-05
1.22893e-05
9.41856e-06
1.09378e-05
1.08005e-05
8.12525e-06
1.12901e-05
1.99621e-05
2.44631e-05
2.24835e-05
1.88555e-05
1.74724e-05
1.88974e-05
2.32321e-05
2.65754e-05
2.63846e-05
2.1905e-05
1.40093e-05
7.98068e-06
9.61006e-06
1.17098e-05
1.38486e-05
1.69615e-05
2.00473e-05
5.20563e-05
5.23362e-05
5.4633e-05
5.87846e-05
6.38098e-05
6.81653e-05
7.10626e-05
7.241e-05
7.27493e-05
7.27374e-05
7.27857e-05
7.2969e-05
7.30638e-05
7.26074e-05
7.11829e-05
6.87882e-05
6.59478e-05
6.34232e-05
6.16701e-05
6.05623e-05
5.99328e-05
5.99341e-05
6.07879e-05
6.24837e-05
6.49162e-05
6.77217e-05
7.0849e-05
7.43115e-05
7.82746e-05
8.30019e-05
8.72369e-05
8.87267e-05
8.6923e-05
8.34883e-05
7.97429e-05
7.50251e-05
6.86369e-05
6.16159e-05
5.62708e-05
5.33281e-05
5.12678e-05
5.17786e-05
5.46783e-05
5.88646e-05
6.34848e-05
6.75761e-05
7.06283e-05
7.24995e-05
7.34676e-05
7.40119e-05
7.45042e-05
7.50129e-05
7.53722e-05
7.5185e-05
7.40527e-05
7.20233e-05
6.96111e-05
6.73332e-05
6.53209e-05
6.34232e-05
6.18379e-05
6.10893e-05
6.14303e-05
6.25128e-05
6.41551e-05
6.6396e-05
6.96094e-05
7.41572e-05
8.00151e-05
8.635e-05
9.09612e-05
9.20206e-05
9.01885e-05
8.70419e-05
8.35671e-05
7.9762e-05
7.47516e-05
6.75987e-05
5.96323e-05
5.37739e-05
5.09129e-05
4.9743e-05
5.15576e-05
5.5055e-05
5.94264e-05
6.40243e-05
6.80948e-05
7.11148e-05
7.29506e-05
7.3975e-05
7.46901e-05
7.53272e-05
7.59499e-05
7.63906e-05
7.61934e-05
7.5086e-05
7.32655e-05
7.1118e-05
6.86979e-05
6.58646e-05
6.3045e-05
6.10808e-05
6.03595e-05
6.04767e-05
6.11074e-05
6.25659e-05
6.54197e-05
7.00859e-05
7.64833e-05
8.36127e-05
8.93636e-05
9.19258e-05
9.17665e-05
8.99076e-05
8.7249e-05
8.48187e-05
8.20599e-05
7.607e-05
6.60501e-05
5.63448e-05
5.27722e-05
4.78784e-05
4.67218e-05
4.83759e-05
5.21138e-05
5.73869e-05
6.30434e-05
6.78409e-05
7.10577e-05
7.2745e-05
7.35464e-05
7.40399e-05
7.47138e-05
7.58095e-05
7.68455e-05
7.70362e-05
7.61501e-05
7.4489e-05
7.20234e-05
6.84413e-05
6.41896e-05
6.04677e-05
5.80775e-05
5.67917e-05
5.6084e-05
5.6325e-05
5.80645e-05
6.15629e-05
6.67779e-05
7.33229e-05
8.00721e-05
8.53487e-05
8.84484e-05
8.94397e-05
8.85166e-05
8.75664e-05
8.75356e-05
8.47966e-05
7.54571e-05
6.25921e-05
5.94843e-05
5.0061e-05
4.3793e-05
4.09915e-05
4.22386e-05
4.70829e-05
5.40696e-05
6.10048e-05
6.63159e-05
6.92712e-05
7.0311e-05
7.04519e-05
7.08141e-05
7.22374e-05
7.43843e-05
7.59336e-05
7.62467e-05
7.57089e-05
7.41997e-05
7.08707e-05
6.56702e-05
5.99317e-05
5.52849e-05
5.20214e-05
4.95891e-05
4.81781e-05
4.82054e-05
4.97431e-05
5.22895e-05
5.60567e-05
6.16979e-05
6.87494e-05
7.57945e-05
8.15237e-05
8.42738e-05
8.51891e-05
8.75724e-05
8.94844e-05
8.46815e-05
7.24638e-05
7.01468e-05
5.97335e-05
4.91586e-05
3.88119e-05
3.38247e-05
3.49548e-05
4.05702e-05
4.86804e-05
5.64899e-05
6.17634e-05
6.38041e-05
6.37422e-05
6.35479e-05
6.48594e-05
6.76193e-05
7.00966e-05
7.131e-05
7.22386e-05
7.30008e-05
7.19114e-05
6.76835e-05
6.08168e-05
5.36749e-05
4.78634e-05
4.3219e-05
3.99016e-05
3.84585e-05
3.88551e-05
3.98895e-05
4.0543e-05
4.23144e-05
4.62265e-05
5.23705e-05
6.21191e-05
7.09706e-05
7.52707e-05
7.92207e-05
8.54199e-05
8.77825e-05
8.12908e-05
7.67519e-05
7.18553e-05
6.45193e-05
4.93202e-05
3.33985e-05
2.80279e-05
2.88524e-05
3.2897e-05
4.02313e-05
4.78239e-05
5.21251e-05
5.27191e-05
5.20697e-05
5.31426e-05
5.62566e-05
5.91019e-05
6.00885e-05
6.14077e-05
6.48447e-05
6.81985e-05
6.84309e-05
6.37641e-05
5.54078e-05
4.68575e-05
3.97824e-05
3.47101e-05
3.20448e-05
3.2136e-05
3.5487e-05
3.77824e-05
3.40392e-05
3.17466e-05
3.24282e-05
3.59031e-05
4.7481e-05
5.69499e-05
6.17951e-05
6.94776e-05
7.84902e-05
8.08144e-05
6.86087e-05
7.28883e-05
7.69885e-05
6.98669e-05
4.7298e-05
2.79637e-05
2.61342e-05
2.81098e-05
2.82335e-05
3.05547e-05
3.54623e-05
3.71287e-05
3.56216e-05
3.63059e-05
4.06158e-05
4.42668e-05
4.38614e-05
4.264e-05
4.6827e-05
5.52964e-05
6.30095e-05
6.57488e-05
6.06336e-05
5.06076e-05
4.11082e-05
3.44452e-05
3.0375e-05
2.90341e-05
3.33615e-05
4.1578e-05
4.16328e-05
3.05346e-05
2.38945e-05
2.35892e-05
2.60134e-05
3.51869e-05
3.96771e-05
4.2719e-05
5.26972e-05
6.33431e-05
3.4979e-05
4.92344e-05
6.90195e-05
8.17077e-05
7.1261e-05
4.23179e-05
2.33656e-05
2.85646e-05
3.31837e-05
2.87918e-05
2.20335e-05
2.37253e-05
2.25894e-05
1.88279e-05
2.08531e-05
2.71439e-05
2.94668e-05
2.44678e-05
2.24194e-05
2.96014e-05
4.388e-05
5.87506e-05
6.41619e-05
5.73922e-05
4.61932e-05
3.77102e-05
3.18354e-05
2.64784e-05
2.67238e-05
3.60516e-05
4.51383e-05
4.00503e-05
2.76386e-05
1.91393e-05
1.96977e-05
2.05315e-05
2.32548e-05
2.02821e-05
1.99909e-05
2.59518e-05
1.96594e-05
1.74306e-05
3.237e-05
6.65907e-05
8.3213e-05
6.87311e-05
3.67373e-05
2.02228e-05
3.16622e-05
3.80761e-05
2.9899e-05
1.71622e-05
1.76944e-05
1.30436e-05
9.85427e-06
1.30813e-05
1.77962e-05
1.86243e-05
1.43211e-05
1.95241e-05
2.04612e-05
3.29761e-05
5.40483e-05
5.98564e-05
5.1397e-05
4.13667e-05
3.3925e-05
2.46779e-05
1.98746e-05
2.78024e-05
3.97654e-05
4.28713e-05
3.44227e-05
2.49828e-05
1.5839e-05
1.67555e-05
1.40485e-05
1.83537e-05
1.76637e-05
1.77938e-05
1.81546e-05
2.81487e-05
2.60507e-05
2.80863e-05
6.67055e-05
8.01903e-05
6.24047e-05
3.01613e-05
1.86569e-05
3.40129e-05
3.98404e-05
2.86779e-05
1.42834e-05
1.38697e-05
8.89672e-06
1.56097e-05
1.59896e-05
1.38499e-05
1.49435e-05
1.66737e-05
2.77534e-05
2.46218e-05
2.6092e-05
4.54367e-05
4.8727e-05
4.13756e-05
3.34022e-05
2.36881e-05
1.44979e-05
2.18362e-05
2.97138e-05
3.8276e-05
3.34797e-05
2.71519e-05
1.75114e-05
9.68191e-06
1.67558e-05
1.92581e-05
2.78295e-05
2.49868e-05
3.21171e-05
2.207e-05
3.00033e-05
2.23003e-05
3.08641e-05
6.56227e-05
7.16893e-05
5.21309e-05
2.31477e-05
1.97773e-05
3.38674e-05
3.65005e-05
2.58125e-05
1.59887e-05
1.33843e-05
1.26988e-05
1.85121e-05
1.81378e-05
1.65731e-05
1.52954e-05
1.57844e-05
2.94359e-05
2.68071e-05
1.96871e-05
3.13392e-05
3.27379e-05
2.83997e-05
2.38129e-05
1.55422e-05
1.63742e-05
2.28636e-05
2.85118e-05
2.98424e-05
2.2672e-05
1.75345e-05
7.5864e-06
1.11019e-05
1.9493e-05
2.23639e-05
3.23345e-05
2.81823e-05
3.08537e-05
2.73984e-05
3.03404e-05
1.21469e-05
3.76563e-05
6.24492e-05
5.90148e-05
3.89842e-05
1.71714e-05
2.12247e-05
3.08314e-05
3.11221e-05
2.39033e-05
1.79389e-05
1.35484e-05
1.41749e-05
1.91191e-05
2.03669e-05
1.92276e-05
1.70276e-05
1.5162e-05
2.5674e-05
2.32586e-05
1.0803e-05
8.08059e-06
1.34061e-05
2.03455e-05
2.09726e-05
1.35805e-05
1.69668e-05
2.18219e-05
2.71283e-05
1.99842e-05
1.51042e-05
1.21062e-05
8.80268e-06
1.42881e-05
1.72414e-05
1.68909e-05
1.29751e-05
2.07166e-05
2.03211e-05
2.71739e-05
2.62861e-05
1.39453e-05
4.63535e-05
5.74274e-05
4.63934e-05
2.7911e-05
1.56807e-05
2.22836e-05
2.71174e-05
2.52404e-05
2.09985e-05
1.8151e-05
1.59535e-05
1.73334e-05
2.0034e-05
2.00717e-05
1.88322e-05
1.41649e-05
1.25028e-05
2.28076e-05
2.32119e-05
1.57495e-05
1.39922e-05
1.57278e-05
1.78584e-05
1.63005e-05
1.15046e-05
1.57611e-05
2.35632e-05
2.26661e-05
1.49413e-05
1.30506e-05
1.60215e-05
1.22506e-05
1.12795e-05
9.95299e-06
7.362e-06
1.35363e-05
1.44064e-05
1.71738e-05
2.89212e-05
1.64296e-05
3.02053e-05
5.4247e-05
5.05284e-05
3.53219e-05
2.15445e-05
1.9107e-05
2.38147e-05
2.51208e-05
2.37246e-05
2.32608e-05
2.19646e-05
2.03374e-05
2.13222e-05
2.12047e-05
1.92111e-05
1.83349e-05
1.76993e-05
1.68858e-05
1.62254e-05
1.92193e-05
2.32714e-05
1.77102e-05
9.75905e-06
1.31721e-05
1.2506e-05
1.17203e-05
1.72008e-05
2.21721e-05
1.88742e-05
1.46276e-05
1.6278e-05
1.67497e-05
1.13228e-05
9.02254e-06
1.6805e-05
7.59747e-06
1.52428e-05
1.81507e-05
2.66199e-05
3.02413e-05
1.09944e-05
4.74391e-05
6.1174e-05
5.15567e-05
3.88637e-05
3.06396e-05
2.82743e-05
2.8345e-05
2.7221e-05
2.75841e-05
2.84008e-05
2.67283e-05
2.4051e-05
2.09208e-05
1.917e-05
1.98448e-05
1.95496e-05
1.76947e-05
1.62173e-05
2.0157e-05
2.20599e-05
1.44371e-05
8.42577e-06
1.58223e-05
1.64144e-05
1.23075e-05
1.45932e-05
1.93052e-05
1.85536e-05
1.60383e-05
1.44011e-05
1.4485e-05
1.36256e-05
1.68207e-05
2.23355e-05
2.06228e-05
1.60303e-05
1.96997e-05
2.28228e-05
3.04306e-05
2.91367e-05
1.56247e-05
4.97398e-05
6.87572e-05
6.95548e-05
6.00294e-05
4.68617e-05
3.69906e-05
3.14008e-05
2.88038e-05
2.87287e-05
2.89032e-05
2.61516e-05
2.07933e-05
1.97688e-05
2.22373e-05
2.08838e-05
1.61771e-05
1.41857e-05
1.6235e-05
1.50818e-05
9.97078e-06
1.03328e-05
1.8625e-05
2.26541e-05
1.71172e-05
1.57452e-05
1.91999e-05
2.07525e-05
1.86998e-05
1.69471e-05
1.63964e-05
1.58362e-05
1.78633e-05
1.34673e-05
1.47892e-05
2.03135e-05
2.63045e-05
3.02998e-05
2.97222e-05
2.73739e-05
2.43862e-05
1.82436e-05
3.4612e-05
5.99936e-05
7.28984e-05
6.62747e-05
4.9294e-05
3.41261e-05
2.57409e-05
2.37549e-05
2.37251e-05
1.89712e-05
1.31238e-05
2.08168e-05
2.51482e-05
2.12816e-05
1.75487e-05
1.95722e-05
1.89738e-05
1.22099e-05
6.26983e-06
9.59539e-06
1.77052e-05
2.66138e-05
2.67768e-05
2.09039e-05
1.89277e-05
1.88865e-05
2.16798e-05
2.48032e-05
2.35285e-05
1.92002e-05
1.53649e-05
1.66722e-05
1.58913e-05
2.07677e-05
2.41796e-05
2.62559e-05
2.75865e-05
2.51962e-05
1.91134e-05
2.03188e-05
2.63327e-05
2.36175e-05
3.12787e-05
5.03636e-05
5.53384e-05
4.65654e-05
3.40804e-05
2.25815e-05
1.23589e-05
7.47367e-06
1.08015e-05
1.32896e-05
1.58595e-05
2.24008e-05
2.87986e-05
3.07085e-05
2.55074e-05
1.58698e-05
1.51261e-05
1.79562e-05
1.54879e-05
1.68921e-05
2.04077e-05
1.80873e-05
1.67591e-05
1.79352e-05
2.21231e-05
3.15884e-05
3.70886e-05
3.349e-05
2.4491e-05
3.23111e-05
2.2839e-05
1.66365e-05
1.44244e-05
1.40807e-05
1.8032e-05
2.20546e-05
2.2273e-05
1.91949e-05
2.04549e-05
2.61211e-05
2.64634e-05
2.24059e-05
2.61824e-05
3.10431e-05
2.78224e-05
2.12336e-05
1.86083e-05
1.66247e-05
1.55186e-05
1.85767e-05
1.94097e-05
2.38476e-05
3.21199e-05
3.40051e-05
2.65516e-05
1.32527e-05
1.11645e-05
1.96268e-05
2.31057e-05
2.0887e-05
1.52352e-05
1.16903e-05
1.20617e-05
1.76948e-05
2.51152e-05
3.39556e-05
4.07482e-05
4.18871e-05
3.8869e-05
3.85088e-05
3.54346e-05
2.70529e-05
1.90059e-05
1.71581e-05
1.94068e-05
2.1501e-05
2.17005e-05
1.93261e-05
1.60686e-05
1.64707e-05
1.99977e-05
1.96938e-05
1.70381e-05
1.72555e-05
1.61256e-05
1.24836e-05
1.2028e-05
1.42945e-05
1.50564e-05
1.86922e-05
2.57552e-05
2.91319e-05
2.64474e-05
2.05735e-05
1.42232e-05
6.0853e-06
2.95581e-06
1.42157e-05
2.50275e-05
2.87318e-05
2.52659e-05
2.11137e-05
1.83478e-05
1.76753e-05
2.23669e-05
2.73971e-05
2.93011e-05
3.02238e-05
3.47989e-05
2.30069e-05
2.76676e-05
2.94365e-05
2.84928e-05
2.7443e-05
2.63061e-05
2.35889e-05
1.83774e-05
1.3402e-05
1.31601e-05
1.33516e-05
1.12315e-05
1.24902e-05
1.7086e-05
2.10758e-05
2.21886e-05
1.99392e-05
1.58271e-05
1.11196e-05
9.63796e-06
1.24622e-05
1.49786e-05
1.88055e-05
2.02057e-05
1.52712e-05
9.94246e-06
9.08184e-06
7.12327e-06
1.13903e-05
2.0004e-05
2.64234e-05
2.8884e-05
2.59472e-05
2.16836e-05
2.02678e-05
2.19222e-05
2.25607e-05
1.92226e-05
1.64545e-05
1.85681e-05
4.83346e-06
8.19149e-06
1.26347e-05
1.61814e-05
1.71051e-05
1.54189e-05
1.33458e-05
1.28817e-05
1.20287e-05
9.40034e-06
9.37661e-06
1.3314e-05
1.54045e-05
1.65494e-05
1.88195e-05
2.06507e-05
2.15754e-05
2.2629e-05
2.25604e-05
2.15825e-05
2.33019e-05
2.58732e-05
2.47216e-05
2.05294e-05
1.75048e-05
1.41049e-05
8.70643e-06
7.57875e-06
1.15039e-05
1.17128e-05
1.02457e-05
1.68979e-05
2.24883e-05
2.15559e-05
2.04883e-05
2.12049e-05
1.87001e-05
1.41128e-05
1.06587e-05
6.69916e-06
1.24063e-05
1.04766e-05
1.26753e-05
1.44107e-05
1.28965e-05
1.14051e-05
1.1542e-05
1.11704e-05
1.11062e-05
1.0981e-05
1.02591e-05
1.09122e-05
1.07063e-05
8.8708e-06
1.04839e-05
1.2809e-05
1.13668e-05
1.25108e-05
1.72146e-05
1.73825e-05
1.29434e-05
1.04565e-05
1.40889e-05
1.75545e-05
1.67047e-05
1.32171e-05
1.16634e-05
1.0962e-05
1.42166e-05
2.21719e-05
2.738e-05
2.73482e-05
2.42076e-05
1.93898e-05
1.48299e-05
1.35557e-05
1.3929e-05
1.48808e-05
1.55938e-05
1.49385e-05
2.10129e-05
1.45399e-05
6.47682e-06
6.3135e-06
6.88722e-06
8.20141e-06
1.43875e-05
1.74892e-05
1.78035e-05
1.70416e-05
1.58336e-05
1.72178e-05
2.00233e-05
2.23149e-05
2.39426e-05
2.46783e-05
2.28684e-05
1.83076e-05
1.42089e-05
1.48113e-05
1.5994e-05
1.28702e-05
9.73404e-06
1.38476e-05
1.67694e-05
1.77388e-05
1.94485e-05
1.85669e-05
1.8563e-05
2.73674e-05
3.3575e-05
2.99493e-05
2.37333e-05
2.13348e-05
1.89113e-05
1.77394e-05
1.92841e-05
2.18808e-05
2.40492e-05
2.37987e-05
4.37119e-05
4.32857e-05
4.39734e-05
4.53011e-05
4.75633e-05
5.1034e-05
5.51231e-05
5.89773e-05
6.22251e-05
6.48844e-05
6.70293e-05
6.8678e-05
6.98953e-05
7.06181e-05
7.06217e-05
7.00758e-05
6.96257e-05
6.95729e-05
6.95822e-05
6.92808e-05
6.87219e-05
6.81173e-05
6.76532e-05
6.75204e-05
6.75125e-05
6.77053e-05
6.85672e-05
7.02102e-05
7.29606e-05
7.71476e-05
8.15816e-05
8.42971e-05
8.48909e-05
8.42951e-05
8.25807e-05
7.8677e-05
7.12436e-05
6.13517e-05
5.24345e-05
4.65535e-05
4.46244e-05
4.30243e-05
4.29446e-05
4.40891e-05
4.65302e-05
5.0104e-05
5.42185e-05
5.82813e-05
6.20565e-05
6.55011e-05
6.85194e-05
7.09406e-05
7.26971e-05
7.36038e-05
7.36641e-05
7.34731e-05
7.36928e-05
7.40883e-05
7.39296e-05
7.30535e-05
7.17883e-05
7.05563e-05
6.96014e-05
6.88367e-05
6.79964e-05
6.74602e-05
6.79742e-05
7.00415e-05
7.39925e-05
7.94391e-05
8.44416e-05
8.74599e-05
8.85677e-05
8.83334e-05
8.66822e-05
8.35179e-05
7.78421e-05
6.87377e-05
5.79601e-05
4.92743e-05
4.59648e-05
4.17878e-05
4.0467e-05
4.10187e-05
4.32852e-05
4.69285e-05
5.13877e-05
5.60494e-05
6.05673e-05
6.48565e-05
6.87357e-05
7.19715e-05
7.43914e-05
7.58513e-05
7.64606e-05
7.68974e-05
7.77583e-05
7.85675e-05
7.83819e-05
7.70787e-05
7.5072e-05
7.28569e-05
7.07619e-05
6.87756e-05
6.68352e-05
6.53644e-05
6.5139e-05
6.69491e-05
7.11083e-05
7.71565e-05
8.29656e-05
8.70936e-05
8.96062e-05
9.04752e-05
8.95576e-05
8.80438e-05
8.5623e-05
7.91895e-05
6.75061e-05
5.47575e-05
4.97691e-05
4.11032e-05
3.7416e-05
3.67688e-05
3.86601e-05
4.24277e-05
4.73452e-05
5.2672e-05
5.7896e-05
6.28795e-05
6.74905e-05
7.14757e-05
7.46154e-05
7.68483e-05
7.82809e-05
7.95081e-05
8.1153e-05
8.2575e-05
8.27096e-05
8.13774e-05
7.89007e-05
7.55881e-05
7.17928e-05
6.78268e-05
6.41053e-05
6.1206e-05
5.97743e-05
6.05666e-05
6.40228e-05
6.99125e-05
7.62947e-05
8.169e-05
8.62525e-05
8.91372e-05
8.9339e-05
8.92245e-05
9.03987e-05
8.88325e-05
7.95321e-05
6.4159e-05
5.87987e-05
4.37897e-05
3.56473e-05
3.24017e-05
3.30429e-05
3.65847e-05
4.17686e-05
4.75946e-05
5.33286e-05
5.87046e-05
6.36906e-05
6.81207e-05
7.18759e-05
7.49319e-05
7.72545e-05
7.92624e-05
8.16247e-05
8.37881e-05
8.46999e-05
8.41567e-05
8.21991e-05
7.84977e-05
7.31117e-05
6.66137e-05
6.01207e-05
5.49187e-05
5.17141e-05
5.08511e-05
5.284e-05
5.77037e-05
6.37672e-05
6.94096e-05
7.57169e-05
8.17656e-05
8.39336e-05
8.43097e-05
8.80345e-05
9.27002e-05
9.01772e-05
7.71274e-05
7.30094e-05
5.29328e-05
3.82155e-05
3.01352e-05
2.76372e-05
2.99245e-05
3.4829e-05
4.05847e-05
4.62793e-05
5.15264e-05
5.62333e-05
6.04436e-05
6.43881e-05
6.81234e-05
7.13027e-05
7.39015e-05
7.64368e-05
7.87098e-05
8.01814e-05
8.12282e-05
8.16764e-05
7.96634e-05
7.42115e-05
6.58368e-05
5.60826e-05
4.75627e-05
4.19921e-05
3.9576e-05
4.04233e-05
4.4357e-05
4.92629e-05
5.31435e-05
5.76638e-05
6.63441e-05
7.21562e-05
7.21377e-05
7.54724e-05
8.55798e-05
9.31949e-05
8.90935e-05
8.66382e-05
6.85141e-05
4.80209e-05
3.34955e-05
2.53814e-05
2.42044e-05
2.84688e-05
3.38196e-05
3.83307e-05
4.19269e-05
4.47779e-05
4.71521e-05
5.00522e-05
5.39893e-05
5.81377e-05
6.14139e-05
6.34154e-05
6.39657e-05
6.40169e-05
6.61265e-05
7.07936e-05
7.39397e-05
7.19114e-05
6.45459e-05
5.3362e-05
4.20873e-05
3.44809e-05
3.09564e-05
3.14969e-05
3.61949e-05
3.94116e-05
4.0839e-05
4.16066e-05
4.60573e-05
5.4974e-05
5.49701e-05
5.28979e-05
6.35311e-05
8.13947e-05
9.1648e-05
8.87535e-05
8.39994e-05
6.47399e-05
4.47682e-05
3.08173e-05
2.23615e-05
2.28661e-05
2.94033e-05
3.4225e-05
3.52689e-05
3.43842e-05
3.27326e-05
3.138e-05
3.23831e-05
3.59166e-05
4.0375e-05
4.18038e-05
3.69519e-05
2.942e-05
2.83829e-05
3.83847e-05
5.27107e-05
6.01399e-05
5.87386e-05
5.08868e-05
4.05142e-05
3.26882e-05
2.91788e-05
3.04924e-05
3.65919e-05
3.98291e-05
3.751e-05
3.35433e-05
3.31271e-05
3.7433e-05
4.00966e-05
3.02378e-05
2.91923e-05
4.90765e-05
7.49883e-05
6.71663e-05
8.5908e-05
8.12442e-05
6.16168e-05
4.39106e-05
3.14462e-05
2.11134e-05
2.21273e-05
3.15818e-05
3.52462e-05
3.17839e-05
2.63495e-05
2.16183e-05
1.95146e-05
1.97812e-05
1.98745e-05
1.78234e-05
1.34228e-05
1.693e-05
2.45445e-05
2.38213e-05
2.07976e-05
3.47351e-05
4.44489e-05
4.49442e-05
3.95081e-05
3.37031e-05
3.22255e-05
3.40008e-05
3.64972e-05
3.73776e-05
3.53863e-05
3.56565e-05
2.56167e-05
2.61167e-05
2.82966e-05
2.55171e-05
1.08586e-05
1.5121e-05
3.41119e-05
2.13508e-05
5.99464e-05
8.23363e-05
7.64235e-05
5.83591e-05
4.59193e-05
3.52953e-05
1.99292e-05
2.22662e-05
3.48155e-05
3.64177e-05
2.90444e-05
2.12028e-05
1.64997e-05
1.71808e-05
1.86727e-05
1.80742e-05
1.87597e-05
1.87148e-05
1.99963e-05
2.82621e-05
2.80411e-05
1.77653e-05
2.66579e-05
3.58158e-05
3.62441e-05
3.24199e-05
3.1845e-05
3.44987e-05
3.37803e-05
3.04826e-05
2.47565e-05
2.57975e-05
2.74565e-05
1.63477e-05
2.04799e-05
2.23011e-05
1.88183e-05
1.10311e-05
2.05487e-05
2.85057e-05
1.71681e-05
5.54584e-05
7.6118e-05
6.89654e-05
5.55048e-05
4.90237e-05
3.79459e-05
1.77593e-05
2.46403e-05
3.71115e-05
3.64687e-05
2.84818e-05
2.01608e-05
1.47013e-05
1.70975e-05
2.23333e-05
2.05804e-05
1.10592e-05
7.32007e-06
1.05412e-05
2.13096e-05
2.06142e-05
1.42237e-05
2.73556e-05
3.36288e-05
3.23822e-05
3.07961e-05
2.87797e-05
2.62853e-05
2.41568e-05
2.10081e-05
1.40044e-05
1.62497e-05
1.3559e-05
1.91705e-05
1.48522e-05
2.03187e-05
1.67965e-05
1.93854e-05
2.71155e-05
2.99674e-05
1.99473e-05
5.34496e-05
6.89649e-05
6.08295e-05
5.21813e-05