/*--------------------------------*- C++ -*----------------------------------*\
| =========                 |                                                 |
| \\      /  F ield         | OpenFOAM: The Open Source CFD Toolbox           |
|  \\    /   O peration     | Version:  2306                                  |
|   \\  /    A nd           | Website:  www.openfoam.com                      |
|    \\/     M anipulation  |                                                 |
\*---------------------------------------------------------------------------*/
FoamFile
{
    version     2.0;
    format      ascii;
    arch        "LSB;label=32;scalar=64";
    class       surfaceScalarField;
    location    "9";
    object      phi;
}
// * * * * * * * * * * * * * * * * * * * * * * * * * * * * * * * * * * * * * //

dimensions      [0 3 -1 0 0 0 0];

oriented        oriented;

internalField   nonuniform List<scalar> 
175300
(
4.2212e-06
3.67077e-07
-8.96266e-07
4.41804e-06
4.11282e-07
-6.63012e-07
4.70069e-06
3.88193e-07
-4.28581e-07
5.05256e-06
2.55771e-07
-4.87229e-08
5.42182e-06
2.61986e-07
3.28217e-07
5.6718e-06
4.2385e-07
7.76692e-07
5.68256e-06
6.95804e-07
1.24692e-06
5.48307e-06
8.863e-07
1.66058e-06
5.21753e-06
8.64999e-07
1.90475e-06
5.00347e-06
6.94579e-07
1.89263e-06
4.85233e-06
5.07376e-07
1.68366e-06
4.72199e-06
3.53595e-07
1.43351e-06
4.57337e-06
2.18051e-07
1.2779e-06
4.38511e-06
7.77564e-08
1.25465e-06
4.13486e-06
-3.81937e-08
1.30994e-06
3.82322e-06
-1.01102e-07
1.36366e-06
3.53861e-06
-1.82569e-07
1.36158e-06
3.38961e-06
-2.96819e-07
1.26846e-06
3.38671e-06
-3.69153e-07
1.0601e-06
3.45083e-06
-3.81178e-07
7.70358e-07
3.53597e-06
-4.20966e-07
4.98525e-07
3.67307e-06
-4.56293e-07
2.76987e-07
3.88324e-06
-3.68313e-07
1.80688e-08
4.10764e-06
-1.56528e-07
-1.92715e-07
4.31986e-06
1.26195e-07
-3.56867e-07
4.51648e-06
2.95991e-07
-3.37892e-07
4.69385e-06
2.27893e-07
-2.10895e-07
4.83143e-06
-1.08091e-07
-1.09514e-07
4.98048e-06
-6.77932e-07
-2.07196e-07
5.17029e-06
-1.09854e-06
-6.00132e-07
5.30358e-06
-1.01838e-06
-1.14157e-06
5.25059e-06
-5.34786e-07
-1.54637e-06
5.01798e-06
-1.18949e-08
-1.80088e-06
4.67158e-06
3.68434e-07
-2.04517e-06
4.26885e-06
5.04828e-07
-2.15934e-06
3.9075e-06
3.40475e-07
-2.0439e-06
3.71115e-06
4.28027e-08
-1.84619e-06
3.72627e-06
-1.13953e-07
-1.68143e-06
3.88175e-06
-4.57628e-08
-1.47481e-06
1.7403e-07
-1.19025e-06
1.38455e-05
1.15678e-06
-2.58632e-06
1.46584e-05
1.16623e-06
-1.85663e-06
1.57246e-05
9.07071e-07
-1.06544e-06
1.69508e-05
4.59447e-07
4.54926e-08
1.8159e-05
5.3356e-07
1.24468e-06
1.89807e-05
1.11051e-06
2.65784e-06
1.90776e-05
2.02268e-06
4.09509e-06
1.84862e-05
2.68492e-06
5.28944e-06
1.76163e-05
2.68931e-06
5.89945e-06
1.68725e-05
2.17475e-06
5.74857e-06
1.63643e-05
1.54164e-06
5.06364e-06
1.59744e-05
1.01496e-06
4.29614e-06
1.55363e-05
5.79601e-07
3.80341e-06
1.49273e-05
1.72782e-07
3.66547e-06
1.40895e-05
-1.53431e-07
3.75576e-06
1.31025e-05
-4.02529e-07
3.89296e-06
1.22253e-05
-7.67937e-07
3.91515e-06
1.16988e-05
-1.2417e-06
3.68611e-06
1.15477e-05
-1.55248e-06
3.1396e-06
1.16202e-05
-1.60173e-06
2.36449e-06
1.18225e-05
-1.6196e-06
1.5936e-06
1.21948e-05
-1.55355e-06
8.88523e-07
1.27489e-05
-1.05428e-06
1.18497e-07
1.33779e-05
-2.80953e-07
-4.92145e-07
1.40514e-05
5.34886e-07
-8.46647e-07
1.47818e-05
7.71073e-07
-7.2149e-07
1.55615e-05
1.3704e-07
-3.5583e-07
1.63492e-05
-1.38711e-06
-1.28888e-07
1.71629e-05
-3.42382e-06
-4.70732e-07
1.78791e-05
-4.59661e-06
-1.58077e-06
1.81556e-05
-3.93066e-06
-3.04268e-06
1.77874e-05
-1.99416e-06
-4.23864e-06
1.69321e-05
-7.64288e-08
-5.08343e-06
1.58504e-05
1.14456e-06
-5.69917e-06
1.47043e-05
1.3982e-06
-5.82674e-06
1.36453e-05
7.51674e-07
-5.47902e-06
1.28873e-05
-1.07952e-07
-5.07686e-06
1.26174e-05
-4.485e-07
-4.74508e-06
1.28059e-05
-1.23905e-07
-4.21292e-06
6.00739e-07
-3.41716e-06
2.52923e-05
1.9976e-06
-4.74401e-06
2.68706e-05
1.83356e-06
-3.55463e-06
2.8923e-05
9.02821e-07
-2.25939e-06
3.12692e-05
-1.34532e-07
-3.88208e-07
3.36173e-05
-3.89658e-08
1.69985e-06
3.53899e-05
1.12305e-06
4.21092e-06
3.5946e-05
2.99782e-06
6.79025e-06
3.51464e-05
4.50233e-06
8.95554e-06
3.35732e-05
4.83595e-06
1.0132e-05
3.20498e-05
4.08263e-06
1.00122e-05
3.0985e-05
2.89865e-06
8.92784e-06
3.02626e-05
1.82196e-06
7.62001e-06
2.95475e-05
9.47152e-07
6.683e-06
2.85524e-05
1.98733e-07
6.25812e-06
2.71466e-05
-3.7435e-07
6.20315e-06
2.54433e-05
-8.58259e-07
6.33104e-06
2.38019e-05
-1.60334e-06
6.4247e-06
2.25925e-05
-2.58341e-06
6.20878e-06
2.19559e-05
-3.29419e-06
5.49233e-06
2.17795e-05
-3.49398e-06
4.36796e-06
2.19494e-05
-3.52066e-06
3.17066e-06
2.24765e-05
-3.27515e-06
2.00228e-06
2.3331e-05
-2.12995e-06
7.3256e-07
2.43775e-05
-3.94089e-07
-3.91927e-07
2.56055e-05
1.08252e-06
-9.62276e-07
2.70581e-05
1.1007e-06
-6.92589e-07
2.87085e-05
-8.07514e-07
7.50003e-08
3.04663e-05
-4.46717e-06
6.20987e-07
3.22841e-05
-8.9054e-06
2.41224e-07
3.38276e-05
-1.1299e-05
-1.36334e-06
3.44374e-05
-9.54037e-06
-3.8266e-06
3.38133e-05
-5.08665e-06
-6.08745e-06
3.23285e-05
-7.71573e-07
-7.79797e-06
3.05165e-05
1.87335e-06
-8.9188e-06
2.8643e-05
2.34546e-06
-9.09652e-06
2.67841e-05
1.03394e-06
-8.54234e-06
2.51027e-05
-5.35498e-07
-8.01575e-06
2.39904e-05
-1.0333e-06
-7.71732e-06
2.37369e-05
-3.3059e-07
-7.1377e-06
1.03001e-06
-6.03036e-06
3.83584e-05
2.48841e-06
-7.79401e-06
4.06503e-05
1.95938e-06
-6.42922e-06
4.37762e-05
-6.3977e-08
-4.87445e-06
4.74593e-05
-2.37041e-06
-2.5622e-06
5.13355e-05
-2.86581e-06
6.66262e-07
5.46746e-05
-1.00021e-06
4.33133e-06
5.64376e-05
2.24295e-06
8.33436e-06
5.60094e-05
5.16968e-06
1.19003e-05
5.38567e-05
6.48875e-06
1.41567e-05
5.12758e-05
6.00006e-06
1.45467e-05
4.93103e-05
4.41931e-06
1.33628e-05
4.80881e-05
2.68501e-06
1.16068e-05
4.71241e-05
1.22351e-06
1.01696e-05
4.58884e-05
5.80446e-08
9.27945e-06
4.40907e-05
-7.54775e-07
8.79934e-06
4.17654e-05
-1.39625e-06
8.65993e-06
3.92283e-05
-2.40527e-06
8.75835e-06
3.69056e-05
-3.79997e-06
8.71628e-06
3.51759e-05
-4.96963e-06
8.10194e-06
3.41919e-05
-5.58369e-06
6.8894e-06
3.39455e-05
-5.96881e-06
5.48004e-06
3.44102e-05
-5.763e-06
4.00386e-06
3.54591e-05
-3.84e-06
2.26491e-06
3.68991e-05
-7.18189e-07
5.18184e-07
3.87362e-05
1.58589e-06
-3.40228e-07
4.10447e-05
1.10759e-06
1.25363e-07
4.37181e-05
-2.70058e-06
1.44758e-06
4.65546e-05
-9.59221e-06
3.00139e-06
4.95702e-05
-1.78705e-05
3.31231e-06
5.24014e-05
-2.23819e-05
1.41379e-06
5.39617e-05
-1.94081e-05
-2.20955e-06
5.35897e-05
-1.13094e-05
-6.06763e-06
5.17773e-05
-3.23401e-06
-9.26072e-06
4.94077e-05
1.88784e-06
-1.14155e-05
4.69355e-05
3.10653e-06
-1.19405e-05
4.43151e-05
1.18354e-06
-1.11938e-05
4.144e-05
-1.18375e-06
-1.04611e-05
3.87694e-05
-1.8291e-06
-1.03016e-05
3.71932e-05
-7.50877e-07
-1.00746e-05
1.18047e-06
-9.15436e-06
5.29962e-05
2.49259e-06
-1.1637e-05
5.53896e-05
1.31976e-06
-1.08067e-05
5.92178e-05
-2.46563e-06
-9.62874e-06
6.41252e-05
-7.18342e-06
-7.39161e-06
6.97757e-05
-9.64622e-06
-3.5477e-06
7.54294e-05
-7.7507e-06
1.48121e-06
7.96149e-05
-2.503e-06
7.14672e-06
8.08351e-05
2.84492e-06
1.28236e-05
7.88637e-05
6.33363e-06
1.70269e-05
7.52197e-05
7.16873e-06
1.8775e-05
7.19274e-05
5.80025e-06
1.80997e-05
6.98678e-05
3.51059e-06
1.61945e-05
6.86063e-05
1.32652e-06
1.43986e-05
6.73165e-05
-3.77979e-07
1.30809e-05
6.54372e-05
-1.42967e-06
1.19782e-05
6.28102e-05
-2.05856e-06
1.11483e-05
5.95277e-05
-3.01273e-06
1.08921e-05
5.58284e-05
-4.42041e-06
1.09879e-05
5.22568e-05
-5.76891e-06
1.07215e-05
4.94889e-05
-6.95402e-06
9.74727e-06
4.79799e-05
-8.37094e-06
8.46481e-06
4.78441e-05
-8.96868e-06
7.03056e-06
4.88146e-05
-6.50009e-06
5.04063e-06
5.05112e-05
-1.62277e-06
2.71068e-06
5.2883e-05
1.98606e-06
1.37034e-06
5.6004e-05
1.04713e-06
1.97661e-06
5.95558e-05
-5.31294e-06
4.3879e-06
6.30089e-05
-1.648e-05
7.57912e-06
6.67171e-05
-2.97548e-05
9.47064e-06
7.11298e-05
-3.85416e-05
8.15848e-06
7.49143e-05
-3.57433e-05
3.70983e-06
7.62557e-05
-2.3183e-05
-2.5052e-06
7.51515e-05
-9.47811e-06
-8.3112e-06
7.2807e-05
-3.90622e-08
-1.26154e-05
7.00738e-05
3.21833e-06
-1.42428e-05
6.69629e-05
1.22357e-06
-1.34707e-05
6.30058e-05
-1.86648e-06
-1.23226e-05
5.83571e-05
-2.61762e-06
-1.2126e-05
5.43968e-05
-1.19892e-06
-1.24352e-05
1.07462e-06
-1.23072e-05
7.05448e-05
2.45321e-06
-1.5074e-05
7.15885e-05
3.32377e-07
-1.56533e-05
7.46819e-05
-5.86905e-06
-1.58952e-05
7.94782e-05
-1.43995e-05
-1.48864e-05
8.59344e-05
-2.0825e-05
-1.18536e-05
9.39099e-05
-2.1292e-05
-6.51391e-06
0.000102045
-1.52845e-05
8.56266e-07
0.000107365
-5.93629e-06
9.25921e-06
0.00010768
1.91644e-06
1.68379e-05
0.000103919
6.05188e-06
2.14013e-05
9.91622e-05
6.26089e-06
2.23446e-05
9.58143e-05
4.01431e-06
2.08549e-05
9.40541e-05
1.1261e-06
1.90347e-05
9.28165e-05
-1.28908e-06
1.77297e-05
9.11716e-05
-2.65764e-06
1.62939e-05
8.87367e-05
-3.10172e-06
1.449e-05
8.53152e-05
-3.59485e-06
1.32015e-05
8.06232e-05
-4.42251e-06
1.29536e-05
7.48993e-05
-5.24948e-06
1.30198e-05
6.92324e-05
-6.55202e-06
1.25248e-05
6.49718e-05
-9.41453e-06
1.16768e-05
6.29908e-05
-1.20529e-05
1.07169e-05
6.31544e-05
-9.98823e-06
8.91713e-06
6.47099e-05
-3.236e-06
6.18171e-06
6.73182e-05
2.32557e-06
4.39594e-06
7.10064e-05
1.21491e-06
5.24416e-06
7.52082e-05
-7.99591e-06
8.80356e-06
7.86068e-05
-2.3666e-05
1.36686e-05
8.12619e-05
-4.23568e-05
1.74408e-05
8.55958e-05
-5.71088e-05
1.80168e-05
9.23177e-05
-5.80996e-05
1.42738e-05
9.82073e-05
-4.36876e-05
6.75222e-06
0.000100577
-2.28622e-05
-2.90057e-06
9.993e-05
-6.20713e-06
-1.12258e-05
9.77779e-05
1.54497e-06
-1.55098e-05
9.4697e-05
9.05783e-07
-1.54186e-05
9.02014e-05
-2.40323e-06
-1.37658e-05
8.39191e-05
-3.06332e-06
-1.31215e-05
7.7176e-05
-1.21793e-06
-1.36524e-05
1.21456e-06
-1.44377e-05
9.42001e-05
2.92825e-06
-1.65884e-05
9.30066e-05
-6.82483e-08
-1.86718e-05
9.35701e-05
-8.52969e-06
-2.07797e-05
9.54735e-05
-2.12276e-05
-2.21953e-05
9.93551e-05
-3.29125e-05
-2.17266e-05
0.000106122
-3.81205e-05
-1.85545e-05
0.000116603
-3.51057e-05
-1.21108e-05
0.000128496
-2.51691e-05
-1.96212e-06
0.0001358
-1.1691e-05
1.00158e-05
0.000135332
-7.26526e-07
1.98401e-05
0.000130261
3.90738e-06
2.45626e-05
0.000125485
3.28963e-06
2.45924e-05
0.000123004
2.46066e-07
2.30413e-05
0.00012185
-2.92904e-06
2.23027e-05
0.00012059
-4.76398e-06
2.15924e-05
0.000118726
-4.94157e-06
1.94032e-05
0.000116046
-4.62194e-06
1.65646e-05
0.00011163
-4.35592e-06
1.50062e-05
0.000104696
-3.89775e-06
1.48811e-05
9.5944e-05
-4.25619e-06
1.48706e-05
8.74042e-05
-7.84779e-06
1.45993e-05
8.14268e-05
-1.32315e-05
1.43601e-05
7.90932e-05
-1.31446e-05
1.32085e-05
7.95973e-05
-5.20409e-06
1.0436e-05
8.19555e-05
2.79769e-06
8.28867e-06
8.5957e-05
2.16506e-06
9.2763e-06
9.10999e-05
-9.67912e-06
1.34585e-05
9.54789e-05
-2.9336e-05
1.86278e-05
9.71411e-05
-5.13348e-05
2.25129e-05
9.79695e-05
-7.05004e-05
2.5021e-05
0.000103078
-7.86432e-05
2.53157e-05
0.00011312
-6.87843e-05
2.02828e-05
0.000122674
-4.53773e-05
8.97767e-06
0.000127665
-2.00831e-05
-4.91988e-06
0.000128287
-4.17134e-06
-1.43479e-05
0.000126164
-6.5174e-07
-1.66593e-05
0.000121843
-2.78185e-06
-1.50173e-05
0.000114957
-2.92527e-06
-1.35882e-05
0.000106296
-4.63858e-07
-1.37142e-05
2.03283e-06
-1.48532e-05
0.000125043
4.07679e-06
-1.56609e-05
0.000123084
6.96528e-07
-1.85521e-05
0.000121727
-8.49364e-06
-2.17791e-05
0.000118974
-2.33549e-05
-2.5547e-05
0.00011669
-3.96236e-05
-2.90888e-05
0.000117674
-5.06083e-05
-3.01033e-05
0.000124267
-5.31672e-05
-2.68812e-05
0.000137884
-4.78859e-05
-1.87304e-05
0.000153905
-3.49809e-05
-5.28886e-06
0.000162727
-1.78546e-05
1.06261e-05
0.000161509
-5.00798e-06
2.22173e-05
0.000156548
-8.93726e-07
2.61127e-05
0.00015366
-2.57007e-06
2.51916e-05
0.000153051
-5.9552e-06
2.47782e-05
0.00015237
-8.09719e-06
2.58435e-05
0.00015094
-7.87054e-06
2.51717e-05
0.000149461
-6.54298e-06
2.15864e-05
0.000147027
-5.03078e-06
1.78907e-05
0.000141353
-3.04344e-06
1.65203e-05
0.000131464
-1.60121e-06
1.66417e-05
0.000118796
-4.24683e-06
1.69807e-05
0.000106795
-1.11854e-05
1.74804e-05
9.91699e-05
-1.39517e-05
1.72209e-05
9.67718e-05
-6.45035e-06
1.48084e-05
9.81368e-05
3.67593e-06
1.23115e-05
0.000102178
4.45317e-06
1.30316e-05
0.000108369
-8.9382e-06
1.7068e-05
0.000115271
-3.16981e-05
2.10969e-05
0.000119552
-5.51555e-05
2.28614e-05
0.000118606
-7.38522e-05
2.48852e-05
0.000116981
-8.5858e-05
2.98352e-05
0.000123009
-8.58439e-05
3.23885e-05
0.000136705
-6.92553e-05
2.47974e-05
0.000150216
-4.16066e-05
8.19016e-06
0.000157539
-1.62998e-05
-8.46462e-06
0.000158287
-4.77093e-06
-1.59411e-05
0.000154833
-3.06124e-06
-1.59282e-05
0.00014845
-2.07055e-06
-1.38259e-05
0.00013962
9.13746e-07
-1.28578e-05
3.5572e-06
-1.35643e-05
0.000157969
4.73881e-06
-1.18245e-05
0.000158345
2.04554e-06
-1.47019e-05
0.000158785
-5.7916e-06
-1.81403e-05
0.000153891
-1.90835e-05
-2.31212e-05
0.0001446
-3.65695e-05
-3.05971e-05
0.000137151
-5.26799e-05
-3.80216e-05
0.000136183
-6.1743e-05
-4.03361e-05
0.000144345
-6.32552e-05
-3.5492e-05
0.000161832
-5.72356e-05
-2.37325e-05
0.000179979
-4.18377e-05
-5.49273e-06
0.000187203
-2.24869e-05
1.37327e-05
0.000184294
-1.02396e-05
2.43107e-05
0.000181353
-8.68362e-06
2.50547e-05
0.000182691
-1.20523e-05
2.35826e-05
0.000184277
-1.38234e-05
2.56113e-05
0.000183072
-1.17768e-05
2.80415e-05
0.00018168
-8.64909e-06
2.61766e-05
0.000181974
-6.44343e-06
2.11815e-05
0.000180855
-4.04883e-06
1.78004e-05
0.000174211
-1.25109e-06
1.74862e-05
0.000160849
-1.74403e-06
1.85507e-05
0.000143252
-7.2043e-06
1.98359e-05
0.000127663
-1.09385e-05
2.04942e-05
0.000119154
-5.08439e-06
1.89562e-05
0.000117737
5.42633e-06
1.64932e-05
0.000121339
7.3303e-06
1.65929e-05
0.000128284
-6.45692e-06
1.94044e-05
0.000137141
-3.08003e-05
2.12752e-05
0.000145253
-5.47166e-05
2.00851e-05
0.000147781
-7.0447e-05
1.99528e-05
0.00014306
-7.95023e-05
2.68935e-05
0.000139856
-8.53948e-05
3.75386e-05
0.000148469
-8.24169e-05
3.8513e-05
0.000166463
-6.35527e-05
2.3944e-05
0.000181907
-3.46819e-05
3.19167e-06
0.000186045
-1.10762e-05
-1.15487e-05
0.000180785
-5.19342e-07
-1.56707e-05
0.000173579
1.44127e-06
-1.38705e-05
0.000167341
1.87019e-06
-1.11213e-05
3.70794e-06
-1.02912e-05
0.00017854
3.03207e-06
-4.01914e-06
0.000185535
5.01561e-07
-5.03309e-06
0.000193886
-5.21456e-06
-7.93475e-06
0.00019433
-1.24203e-05
-1.3881e-05
0.000182903
-2.50051e-05
-2.44235e-05
0.000167492
-4.27805e-05
-3.85648e-05
0.000158141
-5.85531e-05
-4.98774e-05
0.000158419
-6.65126e-05
-5.14618e-05
0.00016963
-6.83035e-05
-4.25911e-05
0.000190046
-6.25522e-05
-2.47009e-05
0.000207725
-4.62814e-05
-9.78852e-07
0.000211352
-2.58621e-05
1.82009e-05
0.000206604
-1.65992e-05
2.38391e-05
0.000206746
-2.01149e-05
2.0958e-05
0.000212575
-2.41687e-05
2.06872e-05
0.000214381
-1.86249e-05
2.45565e-05
0.000210384
-8.59358e-06
2.57646e-05
0.000208639
-3.94071e-06
2.16185e-05
0.000212378
-5.03898e-06
1.68055e-05
0.000215256
-5.98641e-06
1.59154e-05
0.000209201
-5.90704e-06
1.82013e-05
0.000191566
-6.36454e-06
2.07723e-05
0.000168545
-5.33987e-06
2.2327e-05
0.000150716
1.04681e-06
2.21381e-05
0.000143376
9.49641e-06
2.08642e-05
0.000145283
9.19614e-06
2.07509e-05
0.000152982
-6.57162e-06
2.14478e-05
0.000163551
-3.20543e-05
1.9552e-05
0.000174241
-5.42861e-05
1.35573e-05
0.000180631
-6.49452e-05
9.87394e-06
0.000178007
-6.71463e-05
1.77554e-05
0.000169038
-7.07672e-05
3.46417e-05
0.000167288
-7.84591e-05
4.50167e-05
0.00018098
-7.66318e-05
3.61472e-05
0.000199447
-5.41576e-05
1.47755e-05
0.00020573
-1.94561e-05
-5.10559e-06
0.000196644
5.20578e-06
-1.43417e-05
0.000184161
1.12568e-05
-1.41265e-05
0.000177562
6.69103e-06
-9.29959e-06
3.63988e-06
-5.22606e-06
0.00018951
4.86447e-06
3.8223e-06
0.00019752
1.00874e-08
8.50642e-06
0.000213398
-7.71618e-06
9.72524e-06
0.000226759
-1.14197e-05
4.34706e-06
0.000223882
-1.29348e-05
-1.0244e-05
0.000206294
-2.40832e-05
-3.00932e-05
0.000188927
-4.41289e-05
-5.03963e-05
0.000182001
-5.96248e-05
-6.27617e-05
0.000185893
-6.70042e-05
-6.10745e-05
0.000199922
-7.0375e-05
-4.61483e-05
0.00022165
-6.64921e-05
-2.18432e-05
0.000238457
-5.07331e-05
4.6461e-06
0.000239783
-3.10446e-05
1.96538e-05
0.000233334
-2.56532e-05
2.00236e-05
0.000234152
-3.18099e-05
1.60989e-05
0.000240968
-2.97035e-05
1.70585e-05
0.000241845
-1.33637e-05
2.02975e-05
0.000236217
1.30062e-06
1.96353e-05
0.000234405
1.39404e-06
1.53172e-05
0.000241538
-9.57284e-06
1.30563e-05
0.00024945
-1.9806e-05
1.57869e-05
0.000243721
-1.77841e-05
1.97968e-05
0.000221339
-4.12873e-06
2.18884e-05
0.000195245
1.0775e-05
2.27865e-05
0.000179227
1.8229e-05
2.42667e-05
0.000176528
1.18297e-05
2.61078e-05
0.000182949
-9.29929e-06
2.54084e-05
0.000194187
-3.78311e-05
1.87264e-05
0.000207328
-5.90363e-05
5.70282e-06
0.000217196
-6.34776e-05
-4.54413e-06
0.000217439
-5.57458e-05
1.22594e-06
0.000206643
-5.11306e-05
2.40871e-05
0.000195444
-6.06798e-05
4.4629e-05
0.00019865
-7.49259e-05
4.39694e-05
0.000213348
-6.66343e-05
2.39377e-05
0.000221093
-2.94785e-05
2.1378e-06
0.000213468
8.44255e-06
-1.20147e-05
0.000199613
2.19538e-05
-1.52191e-05
0.000190641
1.55075e-05
-1.01149e-05
7.76516e-06
-2.19755e-06
0.000209346
1.27073e-05
8.36398e-07
0.000210608
4.55795e-06
1.05567e-05
0.000224171
-9.5573e-06
2.02898e-05
0.000246288
-1.52462e-05
2.14426e-05
0.0002586
-8.07392e-06
8.93142e-06
0.000249495
-4.95414e-06
-1.54697e-05
0.00022875
-2.14707e-05
-4.17302e-05
0.000213527
-4.30303e-05
-6.401e-05
0.000211465
-5.70555e-05
-7.4063e-05
0.00021958
-6.62597e-05
-6.72947e-05
0.000235992
-7.39353e-05
-4.5896e-05
0.000257755
-7.29003e-05
-1.62675e-05
0.000272109
-5.64574e-05
8.7985e-06
0.000269706
-3.66934e-05
1.72606e-05
0.00026095
-3.17884e-05
1.34037e-05
0.000261083
-3.30702e-05
1.03966e-05
0.000268202
-2.27227e-05
1.36242e-05
0.000270834
-3.82838e-06
1.76656e-05
0.00026653
6.72683e-06
1.66701e-05
0.000264566
-2.79362e-06
1.3073e-05
0.000273346
-2.81285e-05
1.35298e-05
0.000283075
-3.96046e-05
1.75881e-05
0.000275349
-1.86451e-05
1.96152e-05
0.000251416
1.36237e-05
2.05311e-05
0.000229262
2.76253e-05
2.53427e-05
0.00021901
1.86063e-05
3.1568e-05
0.000218566
-5.71914e-06
3.06132e-05
0.000224775
-3.72079e-05
1.85719e-05
0.000238188
-6.40897e-05
1.73893e-07
0.000253431
-7.07073e-05
-1.52683e-05
0.000258908
-5.37327e-05
-1.60455e-05
0.000249228
-3.65555e-05
7.54241e-06
0.000232104
-3.76947e-05
3.78941e-05
0.000223503
-5.87244e-05
4.85765e-05
0.000228975
-6.578e-05
3.35449e-05
0.000236173
-3.62623e-05
1.03127e-05
0.00023487
6.61056e-06
-7.59311e-06
0.000227339
2.67942e-05
-1.6534e-05
0.000219747
2.36066e-05
-1.56861e-05
1.6129e-05
-7.88292e-06
0.000244196
2.34243e-05
-1.07106e-05
0.000238318
1.37174e-05
-3.43672e-06
0.000244082
-6.75189e-06
9.36001e-06
0.000264741
-1.99466e-05
2.13035e-05
0.000287393
-1.03729e-05
1.81549e-05
0.00029204
5.56814e-06
-2.09135e-06
0.000276352
6.52632e-07
-2.9765e-05
0.000255085
-2.04142e-05
-5.64378e-05
0.000244913
-3.97313e-05
-7.69362e-05
0.000249148
-5.45092e-05
-8.26334e-05
0.000261623
-7.01267e-05
-6.9096e-05
0.000279061
-8.34526e-05
-4.01565e-05
0.000296649
-7.90612e-05
-8.87716e-06
0.000302863
-5.50333e-05
9.53631e-06
0.000295563
-3.36267e-05
9.98226e-06
0.000287899
-2.77429e-05
5.57444e-06
0.000290622
-2.46795e-05
8.00487e-06
0.000299818
-1.3764e-05
1.59064e-05
0.000304951
2.04344e-07
2.00726e-05
0.000302039
2.16015e-06
1.72412e-05
0.000299609
-2.06445e-05
1.32372e-05
0.000306335
-4.70686e-05
1.34037e-05
0.000313045
-3.9274e-05
1.50919e-05
0.000306078
-3.26555e-06
1.75562e-05
0.00028856
2.26583e-05
2.58186e-05
0.000272265
2.32336e-05
3.62682e-05
0.000261437
7.87883e-06
3.45653e-05
0.000256881
-1.86723e-05
1.66745e-05
0.000263853
-5.3038e-05
-5.45016e-06
0.000282707
-7.56078e-05
-2.21214e-05
0.000297284
-6.40112e-05
-2.6091e-05
0.0002936
-3.37993e-05
-8.82663e-06
0.000274995
-2.10777e-05
2.72023e-05
0.000257408
-3.55899e-05
5.00058e-05
0.000251871
-5.04437e-05
4.37164e-05
0.000254785
-3.30414e-05
2.11383e-05
0.000258315
4.14259e-06
-1.23117e-06
0.000259912
2.51951e-05
-1.64398e-05
0.000258685
2.59148e-05
-2.14441e-05
2.35797e-05
-1.7179e-05
0.000294411
2.86428e-05
-2.28956e-05
0.000285623
2.24107e-05
-2.09687e-05
0.00028247
4.36812e-07
-1.20796e-05
0.000293755
-1.87932e-05
3.38998e-06
0.000317736
-1.53272e-05
1.07187e-05
0.000334523
4.44197e-06
1.54263e-06
0.000328871
1.35628e-05
-2.10825e-05
0.000306372
1.62339e-06
-4.69434e-05
0.000287803
-1.69491e-05
-7.25787e-05
0.000286127
-3.60505e-05
-8.89122e-05
0.000297084
-5.84202e-05
-8.65053e-05
0.000311656
-8.22817e-05
-6.38283e-05
0.000325822
-9.11072e-05
-3.02903e-05
0.000333892
-7.09794e-05
-4.00237e-06
0.00033083
-3.93214e-05
4.72387e-06
0.000322601
-2.13742e-05
1.42043e-06
0.000319909
-1.817e-05
2.37859e-06
0.000326543
-1.59597e-05
1.24341e-05
0.000337762
-8.94528e-06
2.36757e-05
0.000344627
-2.98918e-06
2.57523e-05
0.000341821
-1.26767e-05
1.81484e-05
0.000335749
-3.53512e-05
1.05318e-05
0.000335094
-4.36033e-05
1.08624e-05
0.000334614
-2.4447e-05
1.85332e-05
0.000326031
2.2551e-06
3.10463e-05
0.000312839
1.70447e-05
3.97742e-05
0.000302488
1.72224e-05
3.27715e-05
0.000296052
2.20656e-06
9.96367e-06
0.000296872
-3.06665e-05
-1.32149e-05
0.000312197
-6.66531e-05
-2.79223e-05
0.000332508
-7.23417e-05
-2.99435e-05
0.000337026
-4.3674e-05
-1.58032e-05
0.000321075
-1.80915e-05
1.70873e-05
0.000299121
-1.77554e-05
4.77375e-05
0.000284973
-2.76872e-05
5.26599e-05
0.00028198
-1.79143e-05
3.36441e-05
0.000286026
7.9857e-06
8.60076e-06
0.000293775
2.34781e-05
-1.28771e-05
0.000300576
2.27689e-05
-2.40156e-05
2.36587e-05
-2.48861e-05
0.000345055
2.18079e-05
-3.13879e-05
0.000341759
2.07626e-05
-3.25876e-05
0.000333589
6.85476e-06
-2.53977e-05
0.000331972
-9.90945e-06
-1.18689e-05
0.000347786
-1.32991e-05
-2.13169e-06
0.000371359
6.11685e-07
-4.6261e-06
0.000379636
1.61101e-05
-1.78217e-05
0.000363943
1.68657e-05
-3.82821e-05
0.000341316
6.98637e-06
-6.44167e-05
0.000332591
-1.05888e-05
-8.82126e-05
0.00034061
-3.76784e-05
-9.70177e-05
0.000354668
-7.10445e-05
-8.41679e-05
0.000366297
-9.19721e-05
-5.4138e-05
0.000372229
-8.04354e-05
-2.19268e-05
0.000370116
-4.56445e-05
-4.42947e-06
0.000362681
-1.72541e-05
-2.62205e-06
0.000357534
-8.04822e-06
-2.67085e-06
0.000360075
-9.67544e-06
8.22998e-06
0.000370761
-1.14572e-05
2.48006e-05
0.000383179
-1.03824e-05
3.31973e-05
0.000385788
-1.2603e-05
2.63309e-05
0.000374001
-2.22388e-05
1.39478e-05
0.000357172
-3.07871e-05
1.09569e-05
0.000345099
-2.6608e-05
1.84803e-05
0.000339197
-1.214e-05
2.7291e-05
0.000338925
2.81673e-06
2.82396e-05
0.000341772
1.31973e-05
1.68853e-05
0.000342079
1.25389e-05
-2.93323e-06
0.000341189
-1.00783e-05
-2.1982e-05
0.000350462
-4.98503e-05
-3.22817e-05
0.00037013
-7.31667e-05
-3.06673e-05
0.000380212
-5.5896e-05
-1.65753e-05
0.000367598
-2.41722e-05
1.25822e-05
0.000343657
-1.0813e-05
4.34648e-05
0.00032589
-1.01126e-05
5.48817e-05
0.000320304
-4.61334e-07
4.19057e-05
0.000322629
1.9281e-05
1.86869e-05
0.000328116
2.99211e-05
-3.49594e-06
0.000334948
2.46717e-05
-1.87829e-05
1.91779e-05
-2.68707e-05
0.000373959
6.54739e-06
-2.58478e-05
0.000381486
5.81888e-06
-2.77125e-05
0.000377736
2.36741e-06
-1.98546e-05
0.000369182
-2.49893e-06
-9.23689e-06
0.00037341
-3.0814e-06
-3.50708e-06
0.000395542
4.50654e-06
-5.92743e-06
0.000416782
1.62193e-05
-1.53793e-05
0.000416279
2.62717e-05
-3.15321e-05
0.000399257
2.75343e-05
-5.50132e-05
0.000388625
1.69147e-05
-8.14383e-05
0.000394027
-9.69898e-06
-9.92869e-05
0.000407038
-4.98343e-05
-9.8259e-05
0.00041685
-8.22831e-05
-7.69616e-05
0.000419982
-8.16708e-05
-4.50906e-05
0.000416434
-4.99025e-05
-1.92773e-05
0.000408889
-1.57725e-05
-8.19041e-06
0.000403154
5.38463e-07
-4.69563e-06
0.000403112
5.28978e-07
3.69645e-06
0.000409363
-4.97593e-06
1.91011e-05
0.000418484
-1.04956e-05
3.24845e-05
0.000422335
-1.50475e-05
3.27055e-05
0.000413155
-1.6851e-05
2.07082e-05
0.000393217
-1.47844e-05
9.40826e-06
0.000374759
-1.16921e-05
7.1573e-06
0.000369158
-1.16843e-05
9.86206e-06
0.00037697
-1.19049e-05
1.05533e-05
0.000387464
-3.50864e-06
4.0595e-06
0.000389537
8.58647e-06
-7.35636e-06
0.000386079
3.80726e-06
-1.86613e-05
0.000390042
-2.95996e-05
-2.42644e-05
0.000406297
-6.57961e-05
-2.24524e-05
0.000420346
-6.52462e-05
-1.10694e-05
0.000414629
-3.69612e-05
1.34153e-05
0.000393797
-1.45984e-05
4.17999e-05
0.000374431
-1.43932e-06
5.42378e-05
0.000364304
1.55743e-05
4.34887e-05
0.000359827
3.53393e-05
2.54099e-05
0.000356592
4.19476e-05
1.16301e-05
0.000356108
2.97577e-05
-9.31459e-07
1.34443e-05
-1.47732e-05
0.000399573
-4.18969e-06
-8.03012e-06
0.00041304
-9.05124e-06
-1.53209e-05
0.000416198
-7.484e-06
-1.17056e-05
0.000408874
-7.95206e-07
-8.09844e-07
0.000404837
1.0249e-05
7.24676e-06
0.000417236
2.02587e-05
4.4625e-06
0.000441996
2.65223e-05
-8.45649e-06
0.000459943
3.22269e-05
-2.41564e-05
0.000461323
3.87856e-05
-4.18085e-05
0.000458438
3.87327e-05
-6.5221e-05
0.000464346
2.05137e-05
-8.98249e-05
0.000475331
-1.95785e-05
-0.000102637
0.000481211
-6.0176e-05
-9.41511e-05
0.000479205
-7.00957e-05
-6.84123e-05
0.000471228
-4.51388e-05
-3.92634e-05
0.000460711
-1.2466e-05
-1.86312e-05
0.000453538
4.60441e-06
-7.11046e-06
0.000452223
6.95556e-06
1.81513e-06
0.000454242
3.53387e-06
1.44693e-05
0.000455619
-3.09821e-06
2.85884e-05
0.000453349
-1.06702e-05
3.31487e-05
0.000445333
-1.18366e-05
2.32376e-05
0.000433089
-4.14106e-06
7.10155e-06
0.000423542
1.23552e-06
-3.31074e-06
0.000423476
-7.4574e-06
-3.45747e-06
0.000431717
-2.3236e-05
2.89846e-06
0.00043773
-2.31561e-05
6.40291e-06
0.000434023
-3.00915e-06
1.57781e-06
0.000426841
1.02968e-05
-5.09811e-06
0.000427703
-9.32667e-06
-9.34176e-06
0.000440911
-4.81905e-05
-9.23401e-06
0.000458143
-6.63445e-05
-1.49011e-06
0.000463429
-4.9859e-05
1.67614e-05
0.000451441
-2.18637e-05
3.97606e-05
0.000431024
3.47721e-06
5.21765e-05
0.000411732
2.78685e-05
4.54615e-05
0.000396085
4.96296e-05
2.99919e-05
0.00038482
5.51533e-05
1.88558e-05
0.000380497
3.85391e-05
1.24864e-05
1.28029e-05
4.20476e-06
0.000438824
5.63391e-06
1.52743e-05
0.000450323
-3.80289e-06
5.66321e-06
0.000453749
-3.33459e-06
2.65894e-06
0.000448882
6.51959e-06
6.90365e-06
0.000443806
2.40701e-05
1.40387e-05
0.000449092
4.03801e-05
1.61787e-05
0.000466541
4.57432e-05
9.7375e-06
0.000488504
4.16314e-05
-4.28956e-06
0.000507699
3.75285e-05
-2.039e-05
0.000525007
3.76122e-05
-3.99149e-05
0.00054303
3.13663e-05
-6.49093e-05
0.000556349
5.39558e-06
-8.87532e-05
0.000558289
-3.05526e-05
-9.75414e-05
0.000549572
-4.70816e-05
-8.33586e-05
0.000535506
-3.28361e-05
-5.49659e-05
0.000520845
-8.07157e-06
-2.9015e-05
0.000509089
7.18104e-06
-1.27071e-05
0.000502059
1.16137e-05
-1.68721e-06
0.000498247
1.12529e-05
1.06726e-05
0.000494175
6.62199e-06
2.41511e-05
0.000486889
5.9142e-08
3.01553e-05
0.000478566
-6.38298e-07
2.04909e-05
0.000476204
5.72538e-06
7.36407e-07
0.000483693
8.42245e-06
-1.29165e-05
0.000496063
-7.10939e-06
-9.4781e-06
0.000501131
-3.19777e-05
4.85622e-06
0.000493099
-3.87145e-05
1.56411e-05
0.000478432
-1.67584e-05
1.81393e-05
0.000470155
8.05257e-06
1.98721e-05
0.000474045
6.72935e-06
1.88046e-05
0.000488028
-2.30376e-05
1.01009e-05
0.000505506
-5.19856e-05
4.68333e-06
0.000515872
-5.19705e-05
1.584e-05
0.000509904
-2.49151e-05
3.72277e-05
0.000489241
8.77351e-06
4.82925e-05
0.000461799
3.78491e-05
3.96491e-05
0.000436639
5.79173e-05
2.61001e-05
0.000421335
6.20623e-05
2.31346e-05
0.000418621
4.80537e-05
2.72174e-05
2.4875e-05
2.53913e-05
0.000483912
2.87041e-05
3.26037e-05
0.000499437
1.86717e-05
1.76799e-05
0.000509707
1.53913e-05
7.05313e-06
0.000510161
1.91698e-05
9.05493e-06
0.000504943
3.11988e-05
2.13156e-05
0.000503854
4.82313e-05
3.21896e-05
0.000511642
6.00447e-05
3.00884e-05
0.00052562
5.68647e-05
1.53194e-05
0.000543743
4.00786e-05
-4.33567e-07
0.000568404
2.13389e-05
-1.10434e-05
0.00059836
1.01462e-05
-2.70876e-05
0.00062221
1.2229e-06
-5.56083e-05
0.000627567
-1.17418e-05
-8.21466e-05
0.000618323
-2.15826e-05
-8.81883e-05
0.000606766
-1.71602e-05
-7.31312e-05
0.000596811
-3.71437e-06
-4.91675e-05
0.00058639
5.91038e-06
-2.57197e-05
0.00057283
1.30576e-05
-8.30912e-06
0.000557953
1.7813e-05
2.85455e-06
0.000544189
1.66798e-05
1.24524e-05
0.000533099
1.0019e-05
2.24986e-05
0.000528576
3.23058e-06
2.65671e-05
0.000536148
-5.49423e-07
1.84903e-05
0.000557321
-8.00486e-06
4.63209e-06
0.000580428
-2.5927e-05
-1.58482e-06
0.000586313
-4.74715e-05
1.00309e-05
0.000568961
-5.26609e-05
3.20504e-05
0.000543927
-2.89655e-05
5.02564e-05
0.000530515
8.14468e-06
5.74578e-05
0.000532814
2.85538e-05
4.82644e-05
0.00054403
1.49187e-05
2.39167e-05
0.000558076
-1.94933e-05
3.28363e-06
0.000567469
-4.03847e-05
3.35235e-06
0.000561248
-2.54982e-05
2.14767e-05
0.000536943
1.1121e-05
3.74473e-05
0.000503573
4.56254e-05
3.55812e-05
0.000475317
6.70475e-05
2.51172e-05
0.000461458
7.29782e-05
2.39606e-05
0.000461259
6.38913e-05
3.30646e-05
4.56797e-05
3.91268e-05
0.000545999
5.01072e-05
1.17587e-05
0.000558958
3.49566e-05
1.29095e-05
0.000567723
2.77584e-05
1.52544e-05
0.00056826
2.69413e-05
1.97318e-05
0.000563105
3.21096e-05
2.6918e-05
0.000559947
4.16405e-05
3.56318e-05
0.000565166
4.82354e-05
4.12968e-05
0.000578127
4.35762e-05
3.73503e-05
0.000594022
2.68583e-05
2.23476e-05
0.000612324
5.20831e-06
2.72768e-06
0.00063579
-9.01225e-06
-1.79538e-05
0.000664294
-1.61481e-05
-3.96758e-05
0.00068691
-1.8103e-05
-6.04075e-05
0.000692703
-1.34922e-05
-7.41091e-05
0.00068465
-2.09525e-06
-7.62126e-05
0.000673109
1.05182e-05
-6.7654e-05
0.000663438
1.67624e-05
-5.11876e-05
0.000654693
1.83074e-05
-3.13462e-05
0.0006432
1.77943e-05
-1.65356e-05
0.000627337
1.55277e-05
-8.05606e-06
0.000610987
1.24083e-05
9.99246e-07
0.000602322
7.10767e-06
1.42284e-05
0.00060759
-5.056e-06
2.56848e-05
0.000624611
-2.65406e-05
2.74397e-05
0.000641751
-4.99772e-05
2.15012e-05
0.000645999
-6.32911e-05
2.14561e-05
0.000633364
-5.72508e-05
3.72732e-05
0.000612572
-2.80061e-05
5.89123e-05
0.00059585
1.37563e-05
6.51972e-05
0.000587437
4.22798e-05
4.60783e-05
0.000587321
3.58642e-05
1.21766e-05
0.000596419
-1.14997e-06
-1.32391e-05
0.000607633
-3.63462e-05
-1.38139e-05
0.000608163
-3.67315e-05
6.17618e-06
0.000588963
-1.17326e-06
2.78051e-05
0.000558926
4.27371e-05
3.61788e-05
0.00053472
7.62392e-05
3.12278e-05
0.000525052
9.31153e-05