/*--------------------------------*- C++ -*----------------------------------*\
| =========                 |                                                 |
| \\      /  F ield         | OpenFOAM: The Open Source CFD Toolbox           |
|  \\    /   O peration     | Version:  2306                                  |
|   \\  /    A nd           | Website:  www.openfoam.com                      |
|    \\/     M anipulation  |                                                 |
\*---------------------------------------------------------------------------*/
FoamFile
{
    version     2.0;
    format      ascii;
    arch        "LSB;label=32;scalar=64";
    class       volVectorField;
    location    "9";
    object      UMean;
}
// * * * * * * * * * * * * * * * * * * * * * * * * * * * * * * * * * * * * * //

dimensions      [0 1 -1 0 0 0 0];

internalField   nonuniform List<vector> 
60000
(
(0.00889644 3.15107e-05 0.00122174)
(0.00918759 2.53156e-05 0.00144686)
(0.00938048 1.93892e-05 0.0016457)
(0.00946806 1.46736e-05 0.00183399)
(0.00944271 1.09811e-05 0.00197258)
(0.00927742 8.03887e-06 0.00200661)
(0.00896322 5.97803e-06 0.0019211)
(0.00853132 3.94881e-06 0.00174716)
(0.00804558 8.65583e-07 0.00154201)
(0.00756963 -3.10582e-06 0.00136428)
(0.0071305 -7.22869e-06 0.00124711)
(0.00673418 -1.00307e-05 0.00117883)
(0.00639448 -1.14392e-05 0.00111964)
(0.00612489 -1.14453e-05 0.00103619)
(0.00594115 -9.89134e-06 0.000918437)
(0.00585095 -7.28835e-06 0.000766686)
(0.00586436 -3.78167e-06 0.000582599)
(0.00598395 -4.37066e-07 0.000365985)
(0.00618658 2.37333e-06 0.000118208)
(0.00644353 4.67252e-06 -0.000152993)
(0.00675199 6.70792e-06 -0.000437394)
(0.00711107 8.36544e-06 -0.000724811)
(0.00749424 8.96104e-06 -0.000999717)
(0.00785029 8.38701e-06 -0.00124383)
(0.00811803 6.25641e-06 -0.00144877)
(0.00825078 2.73546e-06 -0.0016328)
(0.00824674 -2.24185e-06 -0.00181817)
(0.00812215 -7.72681e-06 -0.00200268)
(0.00789202 -1.08666e-05 -0.00215722)
(0.00758363 -9.34581e-06 -0.00223936)
(0.00725197 -4.35986e-06 -0.00222109)
(0.00696122 1.61409e-06 -0.00209271)
(0.00676132 8.19324e-06 -0.0018616)
(0.00668549 1.45031e-05 -0.00154983)
(0.00674809 2.00996e-05 -0.00118286)
(0.00694921 2.44772e-05 -0.000779965)
(0.00726568 2.93651e-05 -0.0003508)
(0.00766379 3.39887e-05 9.89806e-05)
(0.00810073 3.66748e-05 0.000544223)
(0.00852436 3.59428e-05 0.000928299)
(0.0269659 0.000127507 0.0032435)
(0.027962 9.29163e-05 0.00380763)
(0.0286291 6.70883e-05 0.0043235)
(0.0289489 5.33207e-05 0.00482462)
(0.0289064 5.09019e-05 0.00520099)
(0.028428 5.61374e-05 0.00530093)
(0.0274968 6.02724e-05 0.00507963)
(0.0262188 5.12977e-05 0.00462524)
(0.0247899 2.33041e-05 0.00409408)
(0.0233857 -1.69947e-05 0.00363553)
(0.0220688 -5.61927e-05 0.00332373)
(0.0208459 -8.70436e-05 0.00311879)
(0.0197577 -0.000109842 0.00292686)
(0.0188548 -0.000122188 0.00268498)
(0.0181993 -0.000121327 0.00237701)
(0.0178261 -0.000109586 0.00199127)
(0.0177658 -9.1237e-05 0.00151864)
(0.0180313 -7.0261e-05 0.000958579)
(0.0185756 -4.86435e-05 0.000318737)
(0.0193326 -3.09022e-05 -0.000386264)
(0.0202872 -1.92057e-05 -0.00114232)
(0.0214136 -1.15071e-05 -0.00192401)
(0.0226266 -9.58773e-06 -0.00267238)
(0.02379 -1.68635e-05 -0.00332019)
(0.0247341 -3.47738e-05 -0.0038407)
(0.0253068 -6.23353e-05 -0.00428551)
(0.0254648 -9.45228e-05 -0.00472527)
(0.0252029 -0.000117697 -0.00516821)
(0.0245315 -0.000117203 -0.00554856)
(0.0235356 -8.99486e-05 -0.00576823)
(0.0224198 -4.82801e-05 -0.00574908)
(0.0214271 -5.23716e-06 -0.0054407)
(0.0207304 3.52572e-05 -0.00483958)
(0.0204222 7.01594e-05 -0.00400745)
(0.0205255 0.000100088 -0.00302701)
(0.0210281 0.000127395 -0.00194824)
(0.0218727 0.000155603 -0.000793898)
(0.0230035 0.000175774 0.000400683)
(0.0243373 0.000178473 0.00155074)
(0.0257123 0.000160655 0.00251668)
(0.0453637 0.000204667 0.00453463)
(0.047229 0.000120241 0.00538387)
(0.0485321 6.38859e-05 0.00615544)
(0.0492353 4.10865e-05 0.00693559)
(0.0493216 4.79238e-05 0.00758625)
(0.0486823 7.46866e-05 0.00786245)
(0.0472897 9.7944e-05 0.00764899)
(0.0452973 8.74644e-05 0.00704661)
(0.0429916 2.82651e-05 0.0062861)
(0.0406467 -6.44062e-05 0.00559839)
(0.0383926 -0.00015543 0.00510445)
(0.0362623 -0.000228042 0.0047574)
(0.0343173 -0.000284019 0.00443494)
(0.0326323 -0.000316527 0.00406503)
(0.0313186 -0.000317836 0.00363682)
(0.0304538 -0.000292045 0.00312438)
(0.0301036 -0.000251943 0.00249289)
(0.0303154 -0.00020677 0.0017306)
(0.0310542 -0.000160566 0.000846318)
(0.0322317 -0.000125074 -0.000147517)
(0.0338112 -0.000106625 -0.00124838)
(0.0357306 -9.93219e-05 -0.00243312)
(0.0378503 -0.000107556 -0.00360451)
(0.0399681 -0.000142772 -0.0046287)
(0.0418201 -0.000205525 -0.00542977)
(0.0431227 -0.000286943 -0.00606747)
(0.0437306 -0.000366892 -0.00666666)
(0.0435659 -0.000408061 -0.00728575)
(0.0426047 -0.000382122 -0.00787336)
(0.0409609 -0.000292678 -0.008309)
(0.0389762 -0.000175692 -0.0084562)
(0.0371052 -6.28504e-05 -0.0081853)
(0.0357002 3.74133e-05 -0.0074376)
(0.0349486 0.0001211 -0.00628961)
(0.0348855 0.000192459 -0.00488413)
(0.035488 0.000260572 -0.00331132)
(0.036683 0.000327637 -0.00160151)
(0.0384355 0.000366581 0.000190207)
(0.0406615 0.000355349 0.0019352)
(0.0430813 0.000295041 0.00341905)
(0.0631968 0.000176691 0.00465106)
(0.0660837 2.72822e-05 0.00580081)
(0.0682241 -6.35645e-05 0.00680179)
(0.0695445 -8.71114e-05 0.00784313)
(0.0700216 -5.16635e-05 0.00883904)
(0.0695211 2.27199e-05 0.00947827)
(0.0679888 9.32113e-05 0.00951444)
(0.0655843 0.000108062 0.00897518)
(0.0626227 3.50789e-05 0.00812607)
(0.0594312 -0.000108854 0.00728983)
(0.0562292 -0.000263933 0.00665755)
(0.0531291 -0.000393234 0.00618835)
(0.050225 -0.000496823 0.00574059)
(0.047596 -0.000563411 0.0052538)
(0.0453886 -0.000578766 0.00475509)
(0.0437314 -0.00054695 0.00422778)
(0.0427427 -0.000490373 0.00360343)
(0.0425334 -0.000429291 0.00283691)
(0.0431381 -0.000369907 0.00192483)
(0.0444905 -0.00033044 0.000870825)
(0.046541 -0.000322225 -0.000352289)
(0.0491835 -0.00033245 -0.00176374)
(0.0522231 -0.000367451 -0.00326691)
(0.0554064 -0.000451307 -0.00465853)
(0.0583982 -0.000584727 -0.00576779)
(0.0607694 -0.000742376 -0.00660647)
(0.0622183 -0.000885752 -0.00733392)
(0.0625508 -0.000941437 -0.00809043)
(0.0616869 -0.000860579 -0.00889667)
(0.0597073 -0.000662907 -0.00966004)
(0.0569814 -0.000428839 -0.0102006)
(0.0541332 -0.000221202 -0.010284)
(0.0517598 -4.97675e-05 -0.00974325)
(0.0502435 8.76221e-05 -0.00861438)
(0.0496863 0.000203612 -0.00707973)
(0.0500722 0.000316633 -0.00528375)
(0.0513105 0.000430786 -0.00326547)
(0.0534154 0.000492006 -0.00107995)
(0.0563654 0.000459559 0.00113504)
(0.0598029 0.000341859 0.00311344)
(0.0790698 -7.66797e-05 0.00294304)
(0.0829981 -0.000293392 0.00450135)
(0.0861257 -0.000419059 0.00579925)
(0.0883389 -0.000426622 0.00712139)
(0.0895903 -0.000326578 0.00853497)
(0.0896986 -0.000157576 0.00976157)
(0.0885441 3.48393e-06 0.0103915)
(0.0862395 8.44175e-05 0.0102432)
(0.0830765 4.02527e-05 0.00952527)
(0.0793685 -0.000123625 0.00866522)
(0.0753813 -0.000335234 0.00798819)
(0.0713495 -0.000529557 0.00747854)
(0.067458 -0.000691784 0.00694159)
(0.063789 -0.000804913 0.00632022)
(0.0604917 -0.00084948 0.00572873)
(0.057733 -0.000828523 0.0052285)
(0.0556803 -0.000773273 0.00474469)
(0.0545154 -0.000720943 0.00418027)
(0.0543901 -0.000684361 0.00350088)
(0.0553476 -0.000685198 0.00270409)
(0.0573979 -0.000736959 0.00172851)
(0.0604359 -0.00081416 0.000454251)
(0.0642145 -0.000912661 -0.00112028)
(0.0684172 -0.00107055 -0.00277864)
(0.072661 -0.00129748 -0.00423149)
(0.0763788 -0.00155244 -0.00536466)
(0.0790765 -0.00177591 -0.00630053)
(0.0804186 -0.00184436 -0.00724492)
(0.0802974 -0.00167068 -0.00832053)
(0.0787419 -0.00129054 -0.00952243)
(0.0759421 -0.000855918 -0.0106795)
(0.0724331 -0.000503435 -0.0114591)
(0.0689995 -0.000255994 -0.0115499)
(0.066346 -8.56149e-05 -0.0108883)
(0.0648111 4.47905e-05 -0.00965172)
(0.0644953 0.00017391 -0.00803492)
(0.0653058 0.000316383 -0.00608459)
(0.0672842 0.000394965 -0.00384007)
(0.0705175 0.000339818 -0.00141416)
(0.0746811 0.000162548 0.000942357)
(0.091291 -0.000765798 -0.00128236)
(0.095934 -0.00103494 0.000780277)
(0.0998868 -0.00119763 0.00255108)
(0.103106 -0.00117872 0.00423811)
(0.105531 -0.000965626 0.00609062)
(0.106897 -0.000618475 0.00805846)
(0.106912 -0.000265669 0.00969165)
(0.105505 -3.73971e-05 0.0104531)
(0.102888 1.46781e-05 0.0102564)
(0.0993345 -0.000106814 0.00957487)
(0.0950812 -0.000333819 0.00897062)
(0.090422 -0.000583764 0.00856225)
(0.0856913 -0.000810391 0.00806711)
(0.0810447 -0.000975353 0.00734017)
(0.0766271 -0.00105544 0.00657953)
(0.0726103 -0.00105669 0.00601781)
(0.0691755 -0.00102021 0.00566338)
(0.0665253 -0.00100286 0.00538165)
(0.0649044 -0.00103809 0.00509022)
(0.0645174 -0.00115708 0.00479749)
(0.0655428 -0.0013718 0.00445672)
(0.0680335 -0.0016297 0.00385238)
(0.0718311 -0.00190214 0.00277189)
(0.0766297 -0.00222351 0.00125303)
(0.0819939 -0.00259272 -0.000405527)
(0.0871871 -0.00296364 -0.00191049)
(0.09147 -0.00326824 -0.00322265)
(0.094318 -0.00334038 -0.00450676)
(0.0956325 -0.00304024 -0.0059262)
(0.0955262 -0.00239107 -0.00759122)
(0.0939981 -0.00161656 -0.00946443)
(0.0910595 -0.000966651 -0.0112033)
(0.0872217 -0.000556785 -0.0123226)
(0.0834504 -0.000355873 -0.0125949)
(0.0804934 -0.00027282 -0.0121448)
(0.0788097 -0.000209484 -0.0112092)
(0.0784458 -0.000113908 -0.00985526)
(0.0794808 -7.99892e-05 -0.00808898)
(0.0821729 -0.00020646 -0.00595584)
(0.0863795 -0.000462727 -0.00360147)
(0.0992599 -0.00204168 -0.00750939)
(0.103825 -0.0023421 -0.00515506)
(0.107708 -0.00252428 -0.00284511)
(0.111186 -0.00251464 -0.000690293)
(0.114604 -0.00220498 0.00151127)
(0.117612 -0.00162936 0.00404292)
(0.119641 -0.000982614 0.00674587)
(0.120274 -0.000468038 0.00891324)
(0.119401 -0.000170816 0.00986263)
(0.117105 -0.000118509 0.00975027)
(0.113585 -0.000267694 0.0093696)
(0.109111 -0.000526976 0.00918259)
(0.104072 -0.000810733 0.00893879)
(0.0987737 -0.00102713 0.00829545)
(0.0934625 -0.00113414 0.00739254)
(0.0883462 -0.00114966 0.00663813)
(0.0835919 -0.00112756 0.00623685)
(0.0793473 -0.0011445 0.0060844)
(0.0758514 -0.00127203 0.00603343)
(0.0734321 -0.00157865 0.00611281)
(0.0724693 -0.00208119 0.00638938)
(0.0733073 -0.00266019 0.00666921)
(0.0760131 -0.00322672 0.00657302)
(0.0803589 -0.00381595 0.0058673)
(0.0860509 -0.00441985 0.00459313)
(0.0923402 -0.00493881 0.00299342)
(0.0981347 -0.00530693 0.00129621)
(0.102615 -0.00536882 -0.000453941)
(0.105593 -0.00495382 -0.00226141)
(0.107309 -0.00404536 -0.00420761)
(0.107961 -0.00286682 -0.00649798)
(0.107222 -0.00176273 -0.00905891)
(0.104721 -0.000986246 -0.0113642)
(0.100952 -0.000614367 -0.0129276)
(0.0969309 -0.000572827 -0.0136884)
(0.0936713 -0.000665364 -0.0138387)
(0.0916235 -0.000728513 -0.0134887)
(0.0908794 -0.000855693 -0.0126792)
(0.0918114 -0.00117761 -0.0114084)
(0.0947894 -0.00162781 -0.00966549)
(0.105844 -0.00362231 -0.0130284)
(0.109422 -0.00398445 -0.0108702)
(0.112274 -0.00413102 -0.00840546)
(0.114443 -0.00414921 -0.00592776)
(0.117122 -0.0038859 -0.00351107)
(0.120721 -0.0032057 -0.000835172)
(0.124406 -0.00229242 0.00233006)
(0.127205 -0.00144582 0.00554467)
(0.128696 -0.000834931 0.00787945)
(0.128906 -0.000483383 0.00879342)
(0.127679 -0.000360403 0.0088737)
(0.124935 -0.000449101 0.00896438)
(0.120863 -0.000695296 0.0091096)
(0.115763 -0.000943939 0.00885324)
(0.110097 -0.00107058 0.00809476)
(0.104341 -0.00108014 0.00723055)
(0.0987862 -0.00105128 0.00665788)
(0.0935138 -0.00107821 0.00640966)
(0.0886429 -0.0012603 0.00632293)
(0.0845147 -0.00171642 0.00642737)
(0.0816071 -0.00249964 0.00693702)
(0.0804541 -0.00343435 0.00783937)
(0.081461 -0.00431224 0.00870302)
(0.0845699 -0.00516057 0.00905587)
(0.0894964 -0.00600119 0.00867947)
(0.0957045 -0.00668769 0.00756548)
(0.101987 -0.00712011 0.00586604)
(0.107102 -0.00719873 0.00380692)
(0.110684 -0.00678001 0.0016649)
(0.113209 -0.00582764 -0.000368689)
(0.115442 -0.0044744 -0.00253166)
(0.11735 -0.00297419 -0.00522436)
(0.117807 -0.00168852 -0.00826841)
(0.116078 -0.000886964 -0.0110661)
(0.112574 -0.000682743 -0.0132355)
(0.108608 -0.00089208 -0.0147222)
(0.105352 -0.00116471 -0.0155417)
(0.103164 -0.001499 -0.0157722)
(0.102196 -0.00210805 -0.015473)
(0.103015 -0.00293037 -0.0145881)
(0.113982 -0.00482775 -0.0153722)
(0.116269 -0.00538597 -0.0137821)
(0.11801 -0.00550548 -0.0117251)
(0.118569 -0.00551723 -0.0094987)
(0.119095 -0.0054165 -0.00724442)
(0.121194 -0.00489845 -0.00478522)
(0.124843 -0.00391544 -0.00178583)
(0.128585 -0.00282496 0.00162417)
(0.131271 -0.00197864 0.00468761)
(0.132801 -0.00144699 0.00657567)
(0.133678 -0.00109463 0.00726132)
(0.133751 -0.000867868 0.00760066)
(0.132422 -0.000828285 0.00806423)
(0.129303 -0.000916108 0.00836159)
(0.124577 -0.000978262 0.00816259)
(0.119033 -0.00094799 0.00760705)
(0.113484 -0.000876787 0.00707472)
(0.108195 -0.000873452 0.00674472)
(0.103063 -0.00106092 0.00654194)
(0.0981869 -0.0015711 0.0065075)
(0.093978 -0.00248845 0.00693862)
(0.0910376 -0.00366359 0.00801663)
(0.0901079 -0.00479178 0.00941117)
(0.0915287 -0.0058445 0.0105282)
(0.0951113 -0.00687701 0.0108878)
(0.100358 -0.00773922 0.0102831)
(0.106083 -0.00821888 0.00877371)
(0.110635 -0.00824584 0.00674312)
(0.11321 -0.00779524 0.00471141)
(0.114384 -0.00690942 0.00305492)
(0.115532 -0.00569334 0.00156113)
(0.117773 -0.00419064 -0.000447369)
(0.120526 -0.00258201 -0.00330148)
(0.121925 -0.00125765 -0.0066256)
(0.120939 -0.000625534 -0.00983871)
(0.118201 -0.000766367 -0.0125311)
(0.115369 -0.0012491 -0.0144721)
(0.113557 -0.00180104 -0.0156801)
(0.112704 -0.00261855 -0.0162687)
(0.112694 -0.00375646 -0.0162153)
(0.121334 -0.00529382 -0.0141031)
(0.123258 -0.00610461 -0.0134697)
(0.124747 -0.00625716 -0.0124033)
(0.124745 -0.00620541 -0.0110612)
(0.123708 -0.00622778 -0.00947697)
(0.123541 -0.0060611 -0.00758394)
(0.125591 -0.00536045 -0.00510553)
(0.129141 -0.00423603 -0.00197523)
(0.132434 -0.00319701 0.00124571)
(0.134492 -0.00257967 0.0037168)
(0.135636 -0.00227783 0.00504008)
(0.136689 -0.00200953 0.00565827)
(0.137467 -0.00171904 0.00623561)
(0.13696 -0.00144102 0.00686578)
(0.13444 -0.00118708 0.00728138)
(0.130107 -0.000987146 0.00735593)
(0.125154 -0.00087692 0.00725083)
(0.12066 -0.000860578 0.00714253)
(0.11664 -0.00098703 0.007015)
(0.112553 -0.00140098 0.00688303)
(0.108215 -0.00227311 0.00706022)
(0.104109 -0.00351688 0.00791726)
(0.101309 -0.00480695 0.00932439)
(0.100834 -0.00602436 0.010653)
(0.102807 -0.00720499 0.0112587)
(0.106681 -0.00820157 0.0107938)
(0.111231 -0.00867886 0.00932015)
(0.114749 -0.00853418 0.00737024)
(0.116198 -0.00788105 0.00563922)
(0.115785 -0.00694801 0.00464249)
(0.114854 -0.00594777 0.00417346)
(0.115089 -0.0047854 0.0033524)
(0.117189 -0.00325817 0.00149086)
(0.119849 -0.00157935 -0.00134715)
(0.121061 -0.000388621 -0.0046052)
(0.120268 -0.000191201 -0.00768146)
(0.1188 -0.000779905 -0.0101396)
(0.118159 -0.00162898 -0.0119392)
(0.118717 -0.00265061 -0.013236)
(0.119828 -0.00396076 -0.0140181)
(0.125635 -0.0050801 -0.010591)
(0.127797 -0.00615419 -0.010929)
(0.129799 -0.00645783 -0.011119)
(0.130507 -0.0063599 -0.0111292)
(0.129492 -0.00636975 -0.0106425)
(0.127988 -0.00649683 -0.00954961)
(0.127974 -0.00625375 -0.00775376)
(0.130154 -0.00543472 -0.00513636)
(0.133453 -0.00438224 -0.00202011)
(0.136241 -0.00363179 0.000799714)
(0.137885 -0.00331767 0.00273923)
(0.138958 -0.0031641 0.00386576)
(0.140031 -0.00291913 0.00466607)
(0.14073 -0.00247626 0.00541576)
(0.140291 -0.00183803 0.006108)
(0.138102 -0.0012152 0.00666152)
(0.134351 -0.000919602 0.00705966)
(0.130315 -0.0010213 0.00734404)
(0.127124 -0.00132179 0.00746948)
(0.124682 -0.00169248 0.00737244)
(0.121939 -0.00230151 0.00725301)
(0.118241 -0.00332474 0.00760306)
(0.114408 -0.00460299 0.00863352)
(0.112132 -0.00594155 0.0098265)
(0.112255 -0.00725292 0.0103931)
(0.114421 -0.0082953 0.00986023)
(0.117429 -0.00866102 0.00832681)
(0.119812 -0.00822471 0.0064016)
(0.120515 -0.00723268 0.00484021)
(0.119392 -0.00608507 0.00424337)
(0.117217 -0.00515153 0.00457903)
(0.115499 -0.00436941 0.00490522)
(0.115667 -0.00328386 0.00420019)
(0.117626 -0.00166595 0.00229812)
(0.119742 -8.22617e-05 -0.000289074)
(0.120616 0.000581148 -0.00295286)
(0.120691 9.80247e-05 -0.00524324)
(0.121028 -0.000935436 -0.00707957)
(0.122117 -0.00214144 -0.00860655)
(0.123733 -0.00355653 -0.00982548)
(0.128758 -0.00422025 -0.00770006)
(0.130892 -0.00557307 -0.00833927)
(0.133228 -0.00618055 -0.00917322)
(0.134813 -0.00618228 -0.0101748)
(0.134678 -0.00615848 -0.0107596)
(0.133135 -0.00639304 -0.010493)
(0.131751 -0.00655156 -0.00940635)
(0.132063 -0.00623063 -0.00745056)
(0.134292 -0.00550417 -0.00473254)
(0.137193 -0.00482803 -0.00183883)
(0.139354 -0.00446907 0.000552576)
(0.140652 -0.00429754 0.00221927)
(0.141629 -0.00402325 0.00339033)
(0.142431 -0.00354144 0.00429418)
(0.142832 -0.00279628 0.00502874)
(0.142461 -0.00185302 0.00572778)
(0.140805 -0.00111724 0.0064152)
(0.137986 -0.00103223 0.00693572)
(0.135116 -0.0015654 0.00713505)
(0.133356 -0.00227408 0.00699015)
(0.132463 -0.00280664 0.00662959)
(0.130821 -0.00335046 0.00644785)
(0.127679 -0.00425705 0.00692998)
(0.124421 -0.00554827 0.00789567)
(0.122655 -0.00695232 0.00850494)
(0.122682 -0.00803372 0.0080684)
(0.123762 -0.00832107 0.00662978)
(0.124893 -0.00765543 0.00483957)
(0.125199 -0.00632166 0.00339217)
(0.124107 -0.00485261 0.00283402)
(0.121731 -0.00377568 0.00334159)
(0.119151 -0.0031827 0.00421735)
(0.117777 -0.00257358 0.00430601)
(0.118357 -0.00136681 0.00316805)
(0.120273 0.000221749 0.00125663)
(0.122254 0.00124477 -0.000844317)
(0.123796 0.00105024 -0.00275189)
(0.125055 7.90996e-05 -0.00434501)
(0.126114 -0.00112686 -0.00570919)
(0.127229 -0.0025705 -0.00686513)
(0.132843 -0.0031958 -0.007371)
(0.134667 -0.00479986 -0.00782099)
(0.136863 -0.0057131 -0.0084475)
(0.138564 -0.00586125 -0.00944169)
(0.138993 -0.00576698 -0.0103141)
(0.137896 -0.00593206 -0.0104821)
(0.136124 -0.00628382 -0.00989307)
(0.135073 -0.00642388 -0.00858984)
(0.13586 -0.00622628 -0.00647158)
(0.138042 -0.00590049 -0.0038038)
(0.140164 -0.00564655 -0.00120866)
(0.14141 -0.00547349 0.00084845)
(0.14214 -0.00514351 0.00233183)
(0.142678 -0.00456827 0.00338001)
(0.142963 -0.00376653 0.00417864)
(0.14293 -0.0027388 0.00495085)
(0.142415 -0.00172944 0.00572245)
(0.141153 -0.001241 0.00614605)
(0.139309 -0.00157911 0.00592042)
(0.137825 -0.00250562 0.00523532)
(0.137629 -0.00328373 0.00447091)
(0.137917 -0.00355358 0.00394406)
(0.136931 -0.00385211 0.00406881)
(0.134379 -0.00466452 0.00490524)
(0.13159 -0.00584411 0.00573848)
(0.129686 -0.00680527 0.00568978)
(0.128888 -0.00707653 0.00465445)
(0.128807 -0.00647801 0.00327925)
(0.128879 -0.0051688 0.00213572)
(0.128335 -0.00354065 0.00151244)
(0.126592 -0.00222897 0.0016547)
(0.12411 -0.00159231 0.00237745)
(0.122127 -0.00126633 0.00272196)
(0.12156 -0.000606365 0.00198712)
(0.122656 0.000527838 0.000442444)
(0.124911 0.00148039 -0.00132109)
(0.12751 0.00155172 -0.00298434)
(0.129694 0.000864274 -0.00443859)
(0.131003 -0.000131092 -0.00567132)
(0.131767 -0.00148937 -0.00668316)
(0.138932 -0.00234553 -0.00871877)
(0.140275 -0.00400355 -0.00892176)
(0.141719 -0.00507735 -0.00917305)
(0.142811 -0.00532925 -0.00967014)
(0.143135 -0.00517139 -0.0101307)
(0.142283 -0.0051557 -0.0101692)
(0.140444 -0.00547719 -0.00978658)
(0.138703 -0.00587833 -0.00895897)
(0.138383 -0.00617289 -0.00738893)
(0.139686 -0.00627748 -0.00505511)
(0.141465 -0.00621798 -0.00247813)
(0.142512 -0.00603396 -0.000244747)
(0.142641 -0.0056418 0.00144065)
(0.142219 -0.00498156 0.00269526)
(0.141439 -0.00417098 0.00373738)
(0.140561 -0.00324249 0.0047381)
(0.139868 -0.00226361 0.00554886)
(0.139327 -0.00152663 0.00566434)
(0.138569 -0.00150197 0.00481506)
(0.13757 -0.00229749 0.00345122)
(0.137224 -0.00333782 0.00230702)
(0.137974 -0.00380709 0.00175445)
(0.138669 -0.00385605 0.00191783)
(0.137975 -0.00411409 0.00272619)
(0.136044 -0.00470773 0.00361484)
(0.134002 -0.00523526 0.00385499)
(0.132749 -0.00534929 0.0033173)
(0.132333 -0.00491831 0.00248927)
(0.132425 -0.0039321 0.00175589)
(0.132448 -0.0025015 0.00114348)
(0.131687 -0.00108543 0.000745538)
(0.130017 -0.000204438 0.000730355)
(0.128282 0.000184924 0.000748267)
(0.127398 0.000528305 0.000140321)
(0.127839 0.00101878 -0.00119385)
(0.129688 0.00139817 -0.00283419)
(0.132453 0.00136909 -0.00444789)
(0.135154 0.000946459 -0.00592433)
(0.136966 0.000316272 -0.00720888)
(0.137971 -0.000743414 -0.00817873)
(0.144101 -0.00160577 -0.00887771)
(0.145413 -0.00295319 -0.00912432)
(0.146309 -0.00399039 -0.00936403)
(0.146825 -0.00442003 -0.00972044)
(0.147027 -0.00433943 -0.00991495)
(0.146526 -0.00415864 -0.00977187)
(0.145011 -0.00426516 -0.00941901)
(0.143092 -0.00472147 -0.00885457)
(0.142048 -0.00535511 -0.00768359)
(0.142463 -0.00588908 -0.00570689)
(0.143606 -0.00606013 -0.00332142)
(0.144208 -0.00584078 -0.00114366)
(0.143633 -0.00527496 0.000568598)
(0.142089 -0.00446607 0.00189201)
(0.140109 -0.0036578 0.00294814)
(0.138321 -0.00295845 0.00381415)
(0.137228 -0.00228412 0.00433915)
(0.136842 -0.00164987 0.00414433)
(0.136687 -0.00141699 0.00306458)
(0.136285 -0.00195498 0.00159648)
(0.135954 -0.00307443 0.000572807)
(0.136515 -0.00394365 0.000366101)
(0.137741 -0.00414746 0.000779091)
(0.138457 -0.00406905 0.00155808)
(0.138109 -0.00404887 0.00236397)
(0.137171 -0.0040362 0.00278571)
(0.136292 -0.00389368 0.00270934)
(0.135661 -0.00357692 0.00239728)
(0.135296 -0.00296943 0.00213228)
(0.135054 -0.00194047 0.0018791)
(0.134538 -0.000663949 0.00152693)
(0.133431 0.000349889 0.00113365)
(0.132179 0.000896578 0.000763758)
(0.131601 0.00119652 0.000193324)
(0.132041 0.00134809 -0.000846021)
(0.133446 0.00124669 -0.0022867)
(0.135624 0.000960096 -0.00389546)
(0.138177 0.00062209 -0.00550795)
(0.140579 0.00025505 -0.00702874)
(0.142516 -0.000430419 -0.00822609)
(0.144144 -0.000929678 -0.0061724)
(0.146451 -0.00175994 -0.00695712)
(0.148019 -0.00250934 -0.00781563)
(0.14891 -0.00300426 -0.00872052)
(0.149441 -0.00310253 -0.00928096)
(0.149608 -0.00288905 -0.00932319)
(0.148992 -0.00274634 -0.00901108)
(0.147609 -0.00304014 -0.00848008)
(0.146351 -0.00376991 -0.00753215)
(0.14601 -0.00460018 -0.00595336)
(0.146313 -0.00509275 -0.00388725)
(0.146315 -0.00500571 -0.00179173)
(0.145358 -0.00436785 -6.2281e-05)
(0.143526 -0.00340335 0.00117694)
(0.141362 -0.00248752 0.00193123)
(0.139526 -0.00190419 0.00233106)
(0.138403 -0.00157846 0.00244021)
(0.137981 -0.00131607 0.00212469)
(0.138007 -0.00115481 0.00122277)
(0.138134 -0.00152333 -2.82036e-05)
(0.138214 -0.00252814 -0.000947541)
(0.138648 -0.00363573 -0.0010932)
(0.139564 -0.00415758 -0.000606492)
(0.140413 -0.00414707 0.000236736)
(0.140624 -0.00389448 0.0012464)
(0.140112 -0.00347619 0.0021329)
(0.139045 -0.00296859 0.00265549)
(0.137662 -0.0024974 0.002932)
(0.136304 -0.00204047 0.003236)
(0.135181 -0.00136931 0.00355532)
(0.134194 -0.000379906 0.00367528)
(0.133093 0.000595529 0.0035115)
(0.131976 0.00122945 0.00317515)
(0.13132 0.00158699 0.00278253)
(0.131372 0.00174875 0.00214606)
(0.132016 0.00160746 0.00106687)
(0.13328 0.00119918 -0.000389013)
(0.135351 0.000728826 -0.00203528)
(0.138201 0.00028895 -0.00368434)
(0.141302 -0.000213263 -0.00512874)
(0.142371 -0.000562847 -0.00294097)
(0.145527 -0.000723746 -0.0041413)
(0.148064 -0.000928656 -0.00544407)
(0.149753 -0.00117485 -0.00679933)
(0.150795 -0.00129833 -0.00783466)
(0.151531 -0.00116435 -0.00826438)
(0.151913 -0.000953966 -0.00814623)
(0.15165 -0.00108683 -0.00766146)
(0.15087 -0.00178287 -0.00687091)
(0.150077 -0.00277703 -0.00571317)
(0.149412 -0.00359578 -0.00415088)
(0.148426 -0.00381318 -0.00236381)
(0.146763 -0.00329848 -0.000663705)
(0.14466 -0.00232276 0.0006646)
(0.142661 -0.00140615 0.00146037)
(0.141199 -0.000921427 0.00180304)
(0.140342 -0.000830428 0.0018827)
(0.139916 -0.000869863 0.00168952)
(0.139805 -0.000878027 0.0010778)
(0.139918 -0.00111144 8.87195e-05)
(0.140124 -0.00184708 -0.000767439)
(0.140576 -0.00285558 -0.000996407)
(0.141429 -0.00356825 -0.000533489)
(0.142318 -0.00374557 0.000429118)
(0.142643 -0.00345773 0.00163158)
(0.142076 -0.00273898 0.00273656)
(0.140688 -0.0018568 0.00354516)
(0.138819 -0.00118891 0.00422565)
(0.136998 -0.000891124 0.00490545)
(0.135554 -0.000686107 0.00540888)
(0.134484 -0.000250562 0.00555605)
(0.133548 0.000382211 0.00542684)
(0.132517 0.00094213 0.00511284)
(0.131522 0.00139396 0.00470234)
(0.130872 0.0017271 0.00420471)
(0.130744 0.0017255 0.00349086)
(0.131289 0.00126761 0.0024576)
(0.132848 0.000583021 0.00114772)
(0.135545 -2.51845e-05 -0.000259112)
(0.138922 -0.000379143 -0.00165141)
(0.14107 0.000796726 0.000317672)
(0.144214 0.000871435 -0.00118309)
(0.147067 0.000997621 -0.00274686)
(0.14931 0.00104574 -0.00437574)
(0.150875 0.00102549 -0.00578282)
(0.152036 0.00100082 -0.00662576)
(0.152942 0.000959342 -0.00684139)
(0.153457 0.000745824 -0.00656755)
(0.153452 0.000223183 -0.00597616)
(0.152927 -0.000578494 -0.00514754)
(0.15186 -0.00142881 -0.00406602)
(0.150165 -0.00194037 -0.00276836)
(0.147946 -0.00178349 -0.00139444)
(0.14569 -0.0010687 -0.00010493)
(0.143902 -0.000363373 0.000919436)
(0.142725 -0.000138084 0.00158606)
(0.141923 -0.000358209 0.00198252)
(0.141241 -0.000647235 0.0021652)
(0.140755 -0.000762266 0.0020997)
(0.140648 -0.000904798 0.00178406)
(0.140932 -0.00150934 0.00148496)
(0.141608 -0.00251624 0.0015353)
(0.142623 -0.00336727 0.00201026)
(0.143496 -0.00358905 0.00278761)
(0.143518 -0.00313105 0.00376241)
(0.142397 -0.00213277 0.00471162)
(0.140533 -0.000972638 0.00546641)
(0.138615 -0.000159122 0.00611421)
(0.137059 0.000117768 0.00668576)
(0.135857 0.000185668 0.00697074)
(0.134864 0.000442221 0.00691893)
(0.133982 0.000959078 0.00672221)
(0.133018 0.00157915 0.00654474)
(0.131917 0.00217652 0.00635553)
(0.130942 0.00270489 0.00611038)
(0.130486 0.00296113 0.0057938)
(0.130889 0.00274031 0.00530671)
(0.132351 0.00211858 0.00449572)
(0.134801 0.00139573 0.00330003)
(0.137857 0.000923387 0.00183849)
(0.141578 0.00208771 0.0019393)
(0.144628 0.00210118 0.000474426)
(0.147269 0.00227655 -0.00094193)
(0.14935 0.00242261 -0.00237762)
(0.150998 0.0024604 -0.00379038)
(0.152449 0.00239599 -0.00496816)
(0.1537 0.0021853 -0.0057054)
(0.15453 0.00173827 -0.00592757)
(0.154822 0.00112505 -0.00569292)
(0.154578 0.000516181 -0.0051733)
(0.153779 1.39734e-05 -0.00447974)
(0.152424 -0.000359534 -0.00360185)
(0.150761 -0.000467879 -0.00250486)
(0.149295 -0.00022753 -0.00126982)
(0.148311 0.00010377 -7.52958e-05)
(0.147533 0.000165418 0.00098964)
(0.146597 -4.22244e-05 0.00198698)
(0.145466 -0.000236206 0.00288374)
(0.144543 -0.000240544 0.00351848)
(0.144261 -0.00019318 0.00367686)
(0.144641 -0.000468947 0.00353595)
(0.145431 -0.00122336 0.00351811)
(0.146336 -0.00204797 0.00382443)
(0.146863 -0.00231889 0.00427809)
(0.146358 -0.00176568 0.00480873)
(0.144572 -0.000552777 0.0053572)
(0.142107 0.000909186 0.00579051)
(0.139883 0.00203838 0.00602811)
(0.138278 0.0025118 0.00600386)
(0.137032 0.00253868 0.00568108)
(0.135842 0.002561 0.00526012)
(0.134663 0.00286115 0.00503483)
(0.133479 0.00346073 0.00507984)
(0.132305 0.00410254 0.00527605)
(0.13142 0.00454434 0.005511)
(0.131151 0.00467629 0.00576666)
(0.131747 0.00443509 0.0059037)
(0.133251 0.00383381 0.00561941)
(0.135555 0.00304885 0.00474907)
(0.138441 0.0023963 0.00342939)
(0.141536 0.00220054 0.00196243)
(0.144027 0.00178151 0.00101644)
(0.146204 0.00179313 1.44514e-06)
(0.147939 0.00197759 -0.00112532)
(0.149365 0.00212042 -0.00230539)
(0.150764 0.00216284 -0.00341246)
(0.152284 0.00204754 -0.00433403)
(0.153741 0.00172054 -0.0050007)
(0.154777 0.00120232 -0.00533942)
(0.155182 0.000646659 -0.00532296)
(0.154967 0.000147991 -0.00495578)
(0.154282 -0.000372346 -0.00426292)
(0.153331 -0.000941568 -0.00330302)
(0.152411 -0.00137879 -0.00221008)
(0.151786 -0.00157721 -0.0011165)
(0.151333 -0.00165482 -8.82817e-05)
(0.150634 -0.00171551 0.000922343)
(0.14949 -0.00168952 0.00187241)
(0.148118 -0.00152126 0.00252361)
(0.147001 -0.00136609 0.00269097)
(0.146442 -0.00145097 0.00246184)
(0.146472 -0.00184601 0.00223976)
(0.146796 -0.0023015 0.00229784)
(0.146907 -0.00232319 0.00257702)
(0.146346 -0.00151042 0.00295151)
(0.145048 0.000111592 0.00329653)
(0.143439 0.00214697 0.00338458)
(0.142049 0.00395297 0.00299714)
(0.14103 0.00496156 0.00227177)
(0.140215 0.00508374 0.00161116)
(0.139443 0.00480434 0.00138667)
(0.138651 0.00476341 0.00165577)
(0.137721 0.00527158 0.00215104)
(0.136514 0.00606234 0.00264475)
(0.135263 0.00661116 0.00310161)
(0.134456 0.00665231 0.00355795)
(0.134449 0.0062385 0.00391893)
(0.135295 0.00544282 0.00394765)
(0.136878 0.00433207 0.00355346)
(0.139044 0.0031271 0.00283642)
(0.143901 0.00154615 0.0018059)
(0.144723 0.00119803 0.00182597)
(0.145165 0.00125285 0.0016464)
(0.145344 0.0013842 0.00118205)
(0.145586 0.00139673 0.000435163)
(0.146186 0.00127647 -0.000535849)
(0.147232 0.00109696 -0.00168277)
(0.148581 0.000925761 -0.00291114)
(0.149969 0.000790215 -0.00404015)
(0.151101 0.000677009 -0.00487296)
(0.151713 0.000558064 -0.00527905)
(0.151709 0.000310245 -0.00515232)
(0.151253 -0.000182486 -0.00442897)
(0.150716 -0.000885357 -0.0032116)
(0.150453 -0.00161205 -0.00178584)
(0.150549 -0.0021692 -0.00048489)
(0.150762 -0.00244893 0.000541087)
(0.15078 -0.00238681 0.00130502)
(0.150412 -0.00205861 0.00180997)
(0.149728 -0.00172205 0.00202052)
(0.148931 -0.0017078 0.00200267)
(0.148271 -0.00210247 0.00200878)
(0.147853 -0.0026024 0.00227519)
(0.147521 -0.00266005 0.00278157)
(0.147037 -0.00189449 0.00329551)
(0.146357 -0.000400037 0.00351651)
(0.145609 0.00135723 0.00317212)
(0.145035 0.00285998 0.00217881)
(0.144769 0.00376016 0.000821084)
(0.14474 0.00394492 -0.000363707)
(0.144735 0.00373594 -0.00093364)
(0.144568 0.00372787 -0.000834697)
(0.144104 0.00434334 -0.000394435)
(0.143299 0.00547227 5.82805e-05)
(0.142297 0.00649392 0.00045227)
(0.14145 0.00683126 0.000882131)
(0.14106 0.00635367 0.00133251)
(0.141218 0.00524503 0.00162788)
(0.141871 0.00382258 0.00172474)