/*--------------------------------*- C++ -*----------------------------------*\
| =========                 |                                                 |
| \\      /  F ield         | OpenFOAM: The Open Source CFD Toolbox           |
|  \\    /   O peration     | Version:  2306                                  |
|   \\  /    A nd           | Website:  www.openfoam.com                      |
|    \\/     M anipulation  |                                                 |
\*---------------------------------------------------------------------------*/
FoamFile
{
    version     2.0;
    format      ascii;
    arch        "LSB;label=32;scalar=64";
    class       volScalarField;
    location    "1.5";
    object      p;
}
// * * * * * * * * * * * * * * * * * * * * * * * * * * * * * * * * * * * * * //

dimensions      [0 2 -2 0 0 0 0];

internalField   nonuniform List<scalar> 
60000
(
6.80837e-05
0.000130622
0.00018929
0.000220702
0.000238467
0.000254914
0.000255232
0.000223879
0.000183573
0.000180057
0.000227374
0.000295974
0.000342237
0.000339901
0.000295105
0.000243588
0.000201964
0.000161302
0.000117665
8.40627e-05
8.05431e-05
0.00012259
0.0001865
0.000233296
0.000251564
0.000242387
0.000218335
0.000227804
0.000288707
0.000345938
0.000358979
0.000343229
0.000328304
0.000317067
0.000298092
0.000272502
0.000238351
0.000183548
0.000100006
4.85619e-05
6.4807e-05
0.000127549
0.000187059
0.000219397
0.000237399
0.000253642
0.000253733
0.000222005
0.000181326
0.000177665
0.000225297
0.00029464
0.000341611
0.000339863
0.000295458
0.000244123
0.000202693
0.000161949
0.000118096
8.40457e-05
8.01699e-05
0.000122193
0.000186175
0.000232606
0.000250314
0.000240512
0.000216299
0.000225196
0.000286748
0.000345127
0.000359177
0.000344022
0.000329891
0.000319361
0.000300366
0.000274636
0.000240777
0.000185755
0.000100724
4.72789e-05
5.96692e-05
0.000123054
0.000184267
0.000217979
0.000236334
0.000252638
0.00025294
0.000221081
0.000179236
0.000174126
0.000221666
0.000292576
0.00034128
0.000340662
0.000296586
0.00024509
0.000203486
0.000162222
0.000117833
8.30917e-05
7.90703e-05
0.00012148
0.000185825
0.000231722
0.000248876
0.000238727
0.000213232
0.000221013
0.000283261
0.000343433
0.00035869
0.000344332
0.00033147
0.000321867
0.000302167
0.000275396
0.000241571
0.000186248
9.8763e-05
4.30412e-05
5.2146e-05
0.000117062
0.000180873
0.000216441
0.000235234
0.000251905
0.000252846
0.000221083
0.000177631
0.00016993
0.000216471
0.000289411
0.000341227
0.000342592
0.000298746
0.000246588
0.000204327
0.000162194
0.000116823
8.13169e-05
7.74089e-05
0.000120856
0.000186014
0.000231092
0.000247434
0.000236794
0.000209335
0.000215323
0.000278666
0.000341141
0.000357422
0.000343618
0.000332846
0.0003247
0.00030369
0.0002746
0.000240629
0.0001848
9.36505e-05
3.55381e-05
4.29114e-05
0.000109486
0.000176173
0.000214114
0.000233625
0.000250899
0.000252962
0.000221982
0.000177707
0.000166842
0.000210758
0.000284745
0.000340451
0.000345252
0.000302012
0.000248878
0.000205521
0.000161961
0.000115311
7.85335e-05
7.51139e-05
0.000120014
0.000185984
0.000230046
0.00024586
0.000234775
0.000204772
0.000208756
0.000273934
0.000339436
0.000356201
0.000341832
0.000333597
0.000328277
0.000306152
0.000274012
0.000240972
0.000183072
8.62621e-05
2.57647e-05
3.1765e-05
0.000100247
0.000169516
0.000209641
0.000230533
0.000249059
0.000252294
0.000222801
0.000179648
0.000166846
0.000207114
0.000279942
0.000338302
0.000347677
0.000306179
0.000252188
0.000207513
0.000162048
0.000113067
7.40786e-05
7.07706e-05
0.00011783
0.000184233
0.000224096
0.000238592
0.000230591
0.000199049
0.000201306
0.00026943
0.000339631
0.000357494
0.000340577
0.000333999
0.000332535
0.00031044
0.000276022
0.00024554
0.000186431
7.73619e-05
1.30595e-05
1.44721e-05
8.62127e-05
0.000160517
0.0002028
0.000224266
0.000245366
0.000250681
0.000221672
0.000180896
0.000170192
0.000207605
0.000278258
0.000336328
0.00034924
0.000310697
0.000256458
0.000210469
0.000162659
0.00011026
6.71048e-05
6.17935e-05
0.00011196
0.00018192
0.000218061
0.000223932
0.00021708
0.000186874
0.000190753
0.000263301
0.00034053
0.000363513
0.000343982
0.000336757
0.000337278
0.000315447
0.00028066
0.000256325
0.000200199
8.19882e-05
-1.52119e-06
-6.03031e-06
6.34711e-05
0.000147379
0.000195455
0.000215986
0.000238071
0.000247102
0.000219283
0.000178804
0.000169723
0.000210615
0.000281756
0.000338246
0.000351098
0.000315314
0.000261615
0.000214244
0.000163584
0.000107134
5.86169e-05
4.9878e-05
0.000103937
0.000183159
0.000221398
0.000216581
0.000199596
0.000165211
0.000173147
0.000253653
0.000338653
0.000366217
0.000348509
0.000346219
0.000344956
0.000317609
0.000279872
0.000268112
0.000225564
9.99286e-05
-9.10941e-06
-3.63877e-05
3.36113e-05
0.000128808
0.00018698
0.000207657
0.0002278
0.000240342
0.000216497
0.000177589
0.000167687
0.000204071
0.000280556
0.000343893
0.000354988
0.000320099
0.000267786
0.00021921
0.000164224
0.000103472
5.1971e-05
4.32659e-05
0.000103262
0.000195149
0.000240218
0.000224362
0.00018678
0.000136698
0.000148149
0.000240122
0.000336065
0.000368512
0.000343987
0.000344314
0.000350285
0.000318079
0.000271566
0.000270958
0.000255359
0.000131598
-7.8091e-06
-5.85659e-05
-5.07575e-06
0.00010124
0.000176822
0.000199017
0.000216448
0.000231559
0.000212751
0.000176347
0.000166057
0.000194566
0.000265068
0.000335638
0.000356446
0.000323745
0.000273826
0.000225958
0.000165119
9.85976e-05
4.62818e-05
4.46347e-05
0.000115811
0.000223557
0.000279664
0.00025158
0.00018606
0.000109377
0.0001205
0.000221256
0.000328042
0.000370337
0.000336819
0.000342313
0.000350858
0.000316669
0.000259206
0.00026453
0.000280988
0.000175594
7.61759e-06
-6.33605e-05
-3.63613e-05
7.43269e-05
0.00016156
0.000191255
0.000207705
0.000223129
0.000210369
0.000176617
0.00016102
0.000184966
0.000246605
0.000313283
0.000338759
0.000315747
0.000274208
0.000234076
0.000168214
9.5437e-05
4.11965e-05
4.98799e-05
0.000135123
0.000261221
0.000338322
0.000302107
0.000205554
0.000110756
9.99891e-05
0.000197783
0.000308676
0.000351125
0.000324162
0.000340427
0.000352497
0.000321715
0.000254185
0.00025856
0.000297734
0.00022653
4.36267e-05
-4.42283e-05
-4.85678e-05
4.33681e-05
0.000140625
0.000183162
0.000202492
0.000217181
0.000209667
0.000177538
0.000161602
0.000179446
0.000232458
0.000289368
0.000308622
0.000285099
0.000257314
0.000231712
0.000184377
0.000101879
4.59956e-05
6.01594e-05
0.000154399
0.000288018
0.000395357
0.000369919
0.000251393
0.000133762
9.89e-05
0.000176905
0.000278117
0.000316031
0.000309603
0.000339543
0.000363607
0.000334516
0.000263825
0.000260855
0.000307444
0.000272698
9.80344e-05
-1.67947e-06
-3.75757e-05
2.84545e-05
0.000117011
0.000171384
0.00019605
0.00021114
0.000209061
0.000180538
0.00016125
0.000176965
0.000224761
0.000274227
0.00028266
0.000247112
0.000221653
0.00021468
0.000180412
0.000115095
6.8404e-05
8.35367e-05
0.000166669
0.000286484
0.00042144
0.000430189
0.000313922
0.00018091
0.000124475
0.000168673
0.000246138
0.00028413
0.000297206
0.000339449
0.000370375
0.000350652
0.000299281
0.000269919
0.000310851
0.000302635
0.000159292
5.81034e-05
-2.47498e-06
3.49866e-05
0.000105866
0.000163207
0.000191643
0.000203512
0.000204597
0.000182116
0.00016088
0.000173915
0.000219548
0.000268859
0.000274423
0.000225279
0.000188953
0.000195481
0.000172298
0.000118825
9.00006e-05
0.000111377
0.000173755
0.000278622
0.000403268
0.000456111
0.000368557
0.000236911
0.000161819
0.000167653
0.00021777
0.00025879
0.000288773
0.000339062
0.000375782
0.000359008
0.000327659
0.000286619
0.000305708
0.000311851
0.000211898
0.000125946
5.54603e-05
6.23733e-05
0.000107368
0.00016295
0.000194049
0.000197709
0.000195486
0.00018127
0.000161868
0.000170314
0.000213213
0.000263136
0.000279063
0.000235771
0.000190689
0.000192393
0.000172572
0.000119486
9.87492e-05
0.000126923
0.000175626
0.000252805
0.000361819
0.000448869
0.000401676
0.000283453
0.000192704
0.000165059
0.000193045
0.000238343
0.000279477
0.000330723
0.000369866
0.000348572
0.000343849
0.000302264
0.000294032
0.00030154
0.000248604
0.000185344
0.000122422
0.000102547
0.000118661
0.000167927
0.000199292
0.000194716
0.000181881
0.000173326
0.000163607
0.00017105
0.000208022
0.000253076
0.000280075
0.000253405
0.000213766
0.00020121
0.000181667
0.00012183
8.6053e-05
0.000139764
0.000193194
0.000234433
0.000321613
0.000418003
0.000410422
0.000320924
0.00022417
0.000169218
0.000175154
0.000219419
0.000263387
0.000307194
0.000349814
0.000334496
0.000354431
0.000309241
0.000283183
0.000290134
0.000267807
0.000223537
0.000175137
0.000143431
0.000139981
0.00017724
0.000207026
0.000195639
0.000170399
0.000155634
0.000157071
0.000169023
0.000202751
0.000247616
0.00027442
0.000257523
0.000227538
0.000211025
0.000190686
0.000132879
9.57002e-05
0.000155537
0.000222103
0.000239898
0.000289907
0.000372414
0.00038948
0.000334997
0.000253233
0.000187361
0.000171264
0.000202857
0.000249516
0.000295118
0.000328886
0.000327855
0.00035541
0.000317745
0.000281044
0.000278826
0.000278254
0.000234241
0.000210178
0.000184743
0.000171231
0.000189759
0.000211662
0.000194512
0.000160125
0.00013803
0.000143485
0.000159737
0.000191515
0.000241789
0.000280339
0.000268619
0.000236177
0.000210289
0.000195232
0.000144844
0.000112772
0.000167856
0.000235336
0.000250068
0.000272475
0.000331757
0.000362687
0.000329947
0.000259762
0.000194472
0.000176001
0.00020216
0.000247169
0.000293668
0.000329483
0.00034741
0.000352021
0.000310195
0.000264975
0.000252312
0.000251122
0.0002266
0.00021326
0.000199584
0.0002063
0.000213495
0.000219112
0.000192878
0.000154595
0.000129313
0.000117029
0.00013531
0.000163702
0.000214714
0.000270155
0.000287954
0.000251571
0.00022848
0.000217963
0.000170611
0.000145222
0.000171286
0.00022814
0.000243529
0.000260456
0.000323039
0.000354074
0.000320053
0.000250015
0.000194966
0.000184454
0.000205929
0.000237867
0.000282758
0.000328776
0.000351385
0.000345037
0.000301596
0.000247426
0.00021608
0.000225617
0.00019995
0.000203307
0.000197302
0.000189264
0.000210543
0.00021715
0.000195748
0.000162875
0.000136876
0.000119849
0.000118324
0.000128705
0.000162044
0.000218632
0.000257657
0.000242995
0.000225175
0.000236031
0.000241075
0.000188467
0.000170068
0.000194313
0.000222022
0.000243568
0.000314047
0.000352257
0.000310102
0.000233792
0.00018233
0.000171798
0.000190728
0.000221209
0.000263393
0.000313605
0.000337715
0.000324594
0.000287298
0.000241704
0.000215431
0.000183544
0.00017318
0.000177684
0.000192001
0.000204007
0.000217121
0.000211281
0.000185619
0.000161513
0.000146701
0.000130743
0.000117968
0.000116625
0.00012962
0.0001642
0.000208043
0.000224553
0.000219846
0.000227668
0.000241484
0.000214501
0.000172861
0.000170717
0.000201734
0.000239517
0.000317742
0.000354978
0.000307715
0.000210748
0.000135541
0.00012315
0.000154109
0.000202557
0.000251596
0.000298358
0.000321345
0.000313264
0.000287817
0.000252107
0.000204776
0.00017679
0.000196101
0.000180702
0.000185692
0.000197569
0.000210826
0.000205891
0.00018623
0.000166507
0.000151454
0.000138883
0.000129915
0.000130962
0.000136997
0.000146689
0.000165683
0.000190778
0.000210234
0.000226142
0.000236486
0.00022121
0.000192122
0.000185091
0.00020349
0.000227296
0.000307286
0.000360591
0.000320464
0.000219734
0.000124859
8.93503e-05
0.0001167
0.00017673
0.000245253
0.000299611
0.000317468
0.000298243
0.000272379
0.000274202
0.000262931
0.000231806
0.00022401
0.000212134
0.000182243
0.000175714
0.000183032
0.000184926
0.000183471
0.00017915
0.000166084
0.000150328
0.000143984
0.000150981
0.000160717
0.000167438
0.000172372
0.00018117
0.00020589
0.000226349
0.00023536
0.00022779
0.000212424
0.000206475
0.000216131
0.000239258
0.000286779
0.000322319
0.00030725
0.000234077
0.000156756
0.00011773
0.000128479
0.0001744
0.000239653
0.000282217
0.000299043
0.000285209
0.000268591
0.00026848
0.000268069
0.000250794
0.000203329
0.000145292
0.000140068
0.00014482
0.000159552
0.00017626
0.000189845
0.000197158
0.000190425
0.000175062
0.000167381
0.000164097
0.000161646
0.000160035
0.000182907
0.000201806
0.000214613
0.000231673
0.000245603
0.000243498
0.000228941
0.000216675
0.000211571
0.000219255
0.000249573
0.000286391
0.000291462
0.000244897
0.00017907
0.000137206
0.000138641
0.000167953
0.000205066
0.000254206
0.000273831
0.000267024
0.000257658
0.000267867
0.000274314
0.000253034
0.000204264
0.000148471
0.000114666
0.00011326
0.000125612
0.000162119
0.000185565
0.00019871
0.00019578
0.000179442
0.00016752
0.000174711
0.000187438
0.000190098
0.00018715
0.00019682
0.000224177
0.000255028
0.000275781
0.000275701
0.00024961
0.000218966
0.00020104
0.000193926
0.000205912
0.000239177
0.00026661
0.000250823
0.000204444
0.000166738
0.000154682
0.000173422
0.000202366
0.000235278
0.000252542
0.000257407
0.000246244
0.000273378
0.000275014
0.000252365
-2.93782e-06
-4.38073e-08
5.12788e-05
0.000118192
0.000178347
0.00022114
0.000230918
0.000200757
0.000161806
0.000160822
0.000207401
0.000263013
0.000287328
0.000271815
0.000237005
0.000212384
0.000198954
0.000177856
0.000139508
0.000100196
9.07175e-05
0.000133145
0.000218295
0.000300994
0.000344069
0.000353755
0.000351177
0.000343754
0.000350817
0.000371748
0.000388937
0.000399728
0.0004062
0.000396717
0.000368843
0.000349153
0.000351965
0.000311088
0.000201107
7.13086e-05
-2.52076e-06
-1.26536e-06
4.90132e-05
0.0001153
0.000175854
0.00021931
0.000229324
0.000199352
0.000160149
0.00015889
0.00020598
0.000262216
0.000286899
0.000271495
0.000236674
0.000212161
0.00019903
0.000178127
0.000139793
0.000100002
8.95632e-05
0.000130753
0.000214867
0.000297092
0.000340181
0.000350187
0.000348523
0.000342064
0.000349541
0.000370215
0.000387225
0.000398381
0.000405877
0.000397464
0.000370278
0.000350768
0.000354329
0.000314651
0.000204885
7.37025e-05
-5.6855e-06
-5.46328e-06
4.48272e-05
0.000111711
0.000173333
0.000217964
0.000228684
0.000198331
0.000158025
0.000155903
0.000203523
0.000261001
0.000286336
0.000270936
0.000235911
0.000211571
0.000198998
0.000178566
0.000140159
9.95236e-05
8.79904e-05
0.000128235
0.000211925
0.000294222
0.000337318
0.000347187
0.000346376
0.000340994
0.000348675
0.000368351
0.000384409
0.000395777
0.00040533
0.000398856
0.000371879
0.000352479
0.000357446
0.000319303
0.00020866
7.40988e-05
-1.39084e-05
-1.33229e-05
3.87717e-05
0.000107303
0.000170514
0.000216828
0.000228563
0.000197836
0.000155703
0.000151951
0.000199843
0.000259089
0.000285576
0.00027009
0.000234533
0.00021041
0.000198869
0.000179012
0.000140567
9.88299e-05
8.64579e-05
0.000126637
0.00021094
0.000293907
0.000336787
0.000345622
0.000345077
0.000340498
0.00034837
0.000366713
0.00038109
0.000391748
0.00040358
0.000400081
0.000373283
0.00035417
0.000361324
0.000325067
0.000211707
7.10039e-05
-2.75217e-05
-2.50359e-05
3.04956e-05
0.000101439
0.000166523
0.000215047
0.000228488
0.000198093
0.000154853
0.00014879
0.000195636
0.000256063
0.000284204
0.000268936
0.000232487
0.000208468
0.000198398
0.000179441
0.00014061
9.7859e-05
8.48791e-05
0.000125802
0.000211543
0.000295472
0.000337965
0.000345333
0.000344764
0.000340372
0.000348614
0.000366033
0.000378666
0.000387046
0.000399555
0.000399126
0.000373123
0.000355092
0.000364952
0.000332565
0.00021478
6.4628e-05
-4.63459e-05
-4.04243e-05
1.99905e-05
9.31718e-05
0.000159558
0.000210859
0.00022707
0.000198453
0.000155893
0.00014899
0.000193944
0.000252919
0.000281819
0.000267518
0.000230277
0.000206043
0.00019765
0.000179899
0.000140443
9.61168e-05
8.19775e-05
0.000123275
0.000210494
0.000294998
0.000336053
0.000342235
0.000343839
0.000340174
0.000349298
0.000366671
0.000378931
0.000383917
0.000394151
0.000394515
0.000368805
0.000353644
0.000370729
0.000341904
0.000220372
5.74715e-05
-6.76858e-05
-5.93822e-05
7.74792e-06
8.36329e-05
0.000149054
0.000202331
0.000222374
0.000196437
0.000156018
0.000151041
0.0001966
0.000253102
0.000279639
0.000265739
0.000228405
0.000203925
0.000197152
0.000180657
0.000140266
9.25973e-05
7.39693e-05
0.000113514
0.000203027
0.000288419
0.000327224
0.000329012
0.000334222
0.000335553
0.000348763
0.000367668
0.000382396
0.00038452
0.000390036
0.000387348
0.000358315
0.000346257
0.000378068
0.000358739
0.000230015
5.4621e-05
-7.58374e-05
-7.88722e-05
-6.94397e-06
7.37152e-05
0.000138196
0.000190845
0.000215035
0.000193177
0.000155243
0.000149055
0.00019408
0.00025373
0.000279703
0.000264603
0.000226956
0.000202343
0.000197165
0.000181664
0.000139973
8.69531e-05
5.93082e-05
9.22548e-05
0.00018461
0.000275755
0.000311474
0.000307681
0.000313404
0.000319564
0.000339846
0.000364469
0.000384113
0.000387716
0.000389323
0.000381589
0.000343911
0.000330193
0.000380993
0.000385729
0.000252818
6.16767e-05
-6.53965e-05
-9.41463e-05
-2.24148e-05
6.22605e-05
0.000127466
0.000179023
0.000206861
0.000190334
0.000155964
0.000147379
0.000185507
0.000244763
0.000276314
0.000263861
0.000226301
0.000201328
0.00019743
0.000182117
0.000138812
8.07071e-05
4.35884e-05
6.58911e-05
0.000157689
0.00025745
0.000296218
0.000283827
0.000287595
0.000292715
0.000319998
0.000357975
0.00038369
0.000383447
0.000384372
0.000379082
0.000333486
0.000310596
0.00037527
0.000413431
0.000290941
8.37207e-05
-4.83557e-05
-9.2586e-05
-3.80989e-05
4.90639e-05
0.000116786
0.000168019
0.000199068
0.000187607
0.000155933
0.000146334
0.000178201
0.0002319
0.00026392
0.000257908
0.000225002
0.00020087
0.000198027
0.00018145
0.000135708
7.68939e-05
3.78453e-05
5.2123e-05
0.000138432
0.000240955
0.00028369
0.000266329
0.000263996
0.000258532
0.00029221
0.000346913
0.000383675
0.000380212
0.000377899
0.000373534
0.000331781
0.000299512
0.000364138
0.000436352
0.000338522
0.000121185
-2.19282e-05
-8.96574e-05
-5.44074e-05
3.22759e-05
0.00010577
0.000159872
0.00019389
0.00018588
0.000155885
0.000144762
0.000171984
0.000220241
0.000248038
0.000242465
0.000215136
0.000196566
0.000197986
0.000180093
0.000130378
7.31212e-05
4.15088e-05
5.88728e-05
0.00014112
0.000240081
0.000280751
0.000257261
0.000234703
0.000225334
0.000258517
0.000328442
0.00037844
0.000379273
0.000377214
0.000379217
0.000344783
0.00030701
0.000359275
0.000451007
0.000387912
0.000172188
2.10626e-05
-7.60911e-05
-6.22908e-05
1.23409e-05
9.16234e-05
0.00015542
0.000191995
0.000186568
0.000155593
0.000139663
0.000165124
0.000211024
0.000234908
0.000224461
0.00019701
0.000182809
0.000187689
0.000177492
0.000125707
6.89218e-05
4.91456e-05
7.91969e-05
0.00016269
0.000254836
0.000292186
0.000261828
0.000226931
0.000205657
0.000225477
0.000300058
0.000360212
0.000373912
0.00037681
0.000385878
0.000367437
0.000329931
0.000364
0.00046069
0.000429564
0.000231867
7.73446e-05
-4.43939e-05
-5.96807e-05
-1.84764e-06
7.64837e-05
0.000146831
0.000188713
0.000186952
0.00015362
0.000132514
0.000158242
0.000207088
0.000230714
0.000212791
0.000178762
0.000165287
0.000177349
0.000172939
0.000125323
6.98485e-05
5.81802e-05
9.98381e-05
0.000183862
0.000265372
0.000309262
0.000278954
0.000237903
0.000205034
0.00020643
0.000266167
0.000329463
0.000356661
0.000372025
0.000390946
0.000384672
0.000348531
0.000368355
0.000459177
0.000454989
0.00028823
0.0001371
4.80151e-06
-3.58556e-05
-3.11825e-06
6.74604e-05
0.00013722
0.000183297
0.000183774
0.000153165
0.000127514
0.000155096
0.00020867
0.000235807
0.00021429
0.000173556
0.000156613
0.000172721
0.000171144
0.000130364
8.01769e-05
7.84229e-05
0.000115861
0.000178442
0.000254664
0.000315524
0.000300489
0.000259117
0.000219065
0.000206587
0.000239766
0.000293085
0.000326452
0.00035339
0.000386149
0.000394838
0.000360553
0.000366343
0.0004352
0.000455264
0.00032901
0.000194427
6.67892e-05
8.36499e-06
1.45215e-05
6.81724e-05
0.000130326
0.000175901
0.000179608
0.000152621
0.0001323
0.000156087
0.000210737
0.000241602
0.000227433
0.000195395
0.000174387
0.000177703
0.000163157
0.000122132
8.67289e-05
9.96922e-05
0.000134849
0.000173291
0.000238485
0.000315195
0.000322855
0.000281139
0.000231483
0.00021312
0.000223583
0.000261904
0.00029984
0.000330558
0.000367554
0.000394158
0.000365423
0.000354957
0.000392768
0.000426774
0.000350078
0.000241866
0.000136938
7.29128e-05
5.52933e-05
8.15871e-05
0.000128801
0.000164473
0.000167651
0.000154918
0.000138524
0.000160574
0.000212841
0.000247376
0.000238286
0.000216111
0.000194994
0.000187791
0.000158361
0.000103844
7.75152e-05
0.000114207
0.00016205
0.000179396
0.00022923
0.00030957
0.000342721
0.000307305
0.000247212
0.000206654
0.000213481
0.000242941
0.000279628
0.000311582
0.000350079
0.000392175
0.000375843
0.000349151
0.000355779
0.000383571
0.000347736
0.000270276
0.000189642
0.000140921
0.000123169
0.000127119
0.000140066
0.000152032
0.000149532
0.000140271
0.000135568
0.000160243
0.000213447
0.000253127
0.000253041
0.000231062
0.000210061
0.000196175
0.000170263
0.000112306
8.01324e-05
0.000124292
0.000192966
0.00020447
0.000231817
0.000298207
0.000343761
0.000318625
0.000256781
0.00021338
0.000205896
0.000227763
0.000268867
0.000304524
0.000337925
0.00037933
0.000383592
0.000343409
0.000324519
0.000346926
0.000340919
0.000285885
0.000231607
0.000194209
0.000184957
0.000180984
0.000168068
0.000148605
0.000134445
0.000122293
0.000120171
0.000151744
0.000210273
0.00025519
0.000264759
0.000247643
0.000220839
0.000197709
0.000179011
0.000138491
9.90466e-05
0.000128589
0.000205951
0.000230155
0.000243263
0.000293727
0.000335455
0.000318965
0.000260318
0.00021467
0.000203806
0.000220928
0.000257601
0.000297424
0.000338221
0.000370309
0.000375372
0.000331718
0.00029175
0.000305341
0.000315227
0.000277904
0.000244013
0.000218923
0.000229073
0.00023323
0.00020653
0.000159078
0.000126404
0.000113113
0.000104892
0.000123016
0.000166349
0.000226636
0.0002695
0.000275222
0.000240587
0.00020565
0.000191866
0.000168072
0.000131405
0.000136619
0.000204598
0.000227247
0.000254733
0.000305136
0.000334106
0.000309217
0.000254143
0.000215618
0.000206475
0.000218735
0.00024566
0.000283303
0.000326978
0.000356326
0.000360568
0.000319855
0.000267884
0.000266548
0.000274959
0.000249949
0.000244485
0.000230983
0.000224215
0.000227196
0.000218087
0.00018546
0.000145867
0.000119474
0.000100227
9.82006e-05
0.000125286
0.000168167
0.000214663
0.000249476
0.000247451
0.000222666
0.000212262
0.000208179
0.00017182
0.000141093
0.000137839
0.000193299
0.000239823
0.000305155
0.000331827
0.000296435
0.000239271
0.000208423
0.000206225
0.000221016
0.000242568
0.000270892
0.000307372
0.000330702
0.000328707
0.000302642
0.000259077
0.000228705
0.000229588
0.000216551
0.000224518
0.000224336
0.000231457
0.000241522
0.000224926
0.000184047
0.000150226
0.000131696
0.000107143
8.71834e-05
9.37152e-05
0.000117623
0.000153122
0.000191116
0.000216672
0.000222751
0.000223847
0.00022
0.000193109
0.000158499
0.00015188
0.000186727
0.000237722
0.000297032
0.000322077
0.000285242
0.000220876
0.000182929
0.000177479
0.000203768
0.000242315
0.000275577
0.00029981
0.000309284
0.000307275
0.000298435
0.00027047
0.000226375
0.000204575
0.000220048
0.000215993
0.000221892
0.000230651
0.000240049
0.000223232
0.000186954
0.0001572
0.00014298
0.000134452
0.000118285
0.000111168
0.000110092
0.000120818
0.000135087
0.000162295
0.000191616
0.000211813
0.000217386
0.000204703
0.000186895
0.000184015
0.000203099
0.000244379
0.000285763
0.000313099
0.000288074
0.0002262
0.000168935
0.00014516
0.000170316
0.000221441
0.000271876
0.000303631
0.000307551
0.000289438
0.000274588
0.00028285
0.000271636
0.000239145
0.000229588
0.00021802
0.000210583
0.000205999
0.000213852
0.000201754
0.000184152
0.000171594
0.000161064
0.000152734
0.000152148
0.000161164
0.00016457
0.000161895
0.000153349
0.000155047
0.000176293
0.000200957
0.000210446
0.000200907
0.000188483
0.00019115
0.000209163
0.000237048
0.000269368
0.000292948
0.000281976
0.000232219
0.000174358
0.000143823
0.000155639
0.00019908
0.000252276
0.000288116
0.000295257
0.000279175
0.00026818
0.000275183
0.000275527
0.000253955
0.000218535
0.00018201
0.000171854
0.000171029
0.000175285
0.000177483
0.000181437
0.000189591
0.000188781
0.000175809
0.000164439
0.000158782
0.000165042
0.000172013
0.00018362
0.000192402
0.000202021
0.000214084
0.00022137
0.000218414
0.000208492
0.00020176
0.000204662
0.000219235
0.000243164
0.00026687
0.000270965
0.000238098
0.000184965
0.000150651
0.00015309
0.000185863
0.000224102
0.000261617
0.000275383
0.000265612
0.000255357
0.000269967
0.000277771
0.000257269
0.000210361
0.000159979
0.000126346
0.000116625
0.000131
0.000155326
0.000178825
0.000196325
0.000199147
0.000184965
0.000167569
0.000173979
0.000184017
0.000189501
0.000189085
0.000198951
0.000223295
0.000247642
0.000261266
0.000257676
0.000234212
0.000206697
0.000193237
0.000196287
0.000211146
0.000235952
0.000256871
0.000244362
0.000205574
0.000178474
0.000177385
0.000196251
0.000215833
0.000240847
0.000249608
0.000255119
0.000256912
0.000276587
0.000280536
0.000257462
0.000113119
6.48571e-05
5.68261e-05
8.11828e-05
0.000122098
0.000171295
0.000205186
0.000199246
0.000165812
0.000149326
0.000172019
0.000207513
0.000220698
0.000208521
0.000191999
0.000188302
0.000188318
0.000174793
0.000148763
0.000128028
0.000127569
0.000160353
0.000228455
0.000302471
0.000345976
0.000361175
0.000358062
0.000346141
0.000352606
0.000382278
0.000417353
0.000454221
0.000475396
0.000465505
0.000424636
0.000386755
0.000364732
0.000325805
0.000260982
0.000185454
0.000114872
6.55187e-05
5.68911e-05
8.09665e-05
0.00012166
0.000170766
0.000204914
0.000199377
0.000166146
0.000149585
0.000172263
0.000207848
0.000220998
0.000208657
0.000191788
0.000188055
0.000188199
0.000174554
0.000148164
0.000127077
0.000126333
0.00015874
0.000226574
0.00030038
0.000343573
0.000358475
0.000355233
0.000342742
0.000348151
0.000377288
0.000412408
0.000450436
0.00047372
0.000465768
0.000425398
0.000388043
0.0003672
0.000328807
0.000263899
0.000188066
0.000115196
6.43501e-05
5.51551e-05
7.94168e-05
0.000120208
0.000169591
0.000204516
0.000199628
0.000166257
0.000149047
0.000171602
0.000207509
0.000220631
0.000208023
0.000191013
0.000187653
0.000188396
0.000174651
0.000147639
0.000126051
0.000124931
0.000156853
0.000224722
0.000298835
0.000341895
0.000356576
0.000353446
0.000340313
0.000344004
0.000371434
0.000405261
0.000444915
0.000472526
0.000468624
0.000428088
0.000391147
0.000370874
0.000332533
0.000266728
0.000189631
0.000113299
6.05295e-05
5.08611e-05
7.57204e-05
0.000116879
0.000167003
0.000203342
0.000199314
0.000165406
0.000146903
0.00016916
0.000205711
0.000218936
0.000206042
0.000189109
0.000186859
0.000188966
0.000175309
0.000147313
0.000125076
0.000123742
0.000155465
0.000224032
0.000299118
0.000342065
0.000356196
0.000353213
0.00033947
0.000341393
0.000366587
0.000397212
0.000437586
0.000471341
0.000472611
0.000433255
0.000396541
0.000376543
0.000337353
0.000269312
0.000189643
0.000109537
5.42501e-05
4.40586e-05
6.96711e-05
0.000111185
0.000162299
0.000200685
0.000197867
0.000163216
0.000142841
0.000164306
0.000201401
0.000214874
0.000202128
0.00018521
0.000184928
0.00018951
0.000176261
0.000146984
0.000123741
0.000122413
0.00015441
0.000224556
0.000301779
0.000344848
0.000357656
0.000354099
0.000339798
0.00034088
0.000365166
0.000390863
0.000428916
0.000468645
0.000476621
0.000440815
0.000404734
0.000384941
0.00034389
0.000272052
0.000188396
0.000104915
4.61317e-05
3.49519e-05
6.1179e-05
0.000102775
0.000154997
0.000195998
0.000194989
0.000159999
0.000137551
0.00015739
0.000193971
0.00020717
0.00019471
0.000178418
0.000180951
0.000189459
0.000177399
0.000146581
0.000121718
0.000119663
0.000150819
0.000222647
0.000304159
0.000349231
0.000361431
0.000355675
0.000339687
0.00034135
0.000368553
0.000389938
0.000421246
0.000463727
0.000477314
0.000449945
0.000416258
0.000397356
0.00035334
0.000275738
0.000185967
0.000100866
3.79015e-05
2.4067e-05
5.0379e-05
9.09927e-05
0.000143817
0.000188242
0.00019013
0.000156268
0.000132852
0.000150706
0.000184944
0.000195609
0.000183552
0.000168285
0.000174551
0.000188586
0.000178866
0.000146612
0.000119472
0.000114809
0.000141543
0.000212135
0.000297832
0.000347505
0.000363621
0.000357691
0.000336836
0.000337657
0.00037422
0.000396019
0.000417909
0.000457679
0.000476864
0.000458113
0.000431004
0.000415899
0.000368204
0.000281897
0.000184923
9.24579e-05
3.10626e-05
1.2486e-05
3.90332e-05
7.72341e-05
0.000128508
0.000175764
0.000181562
0.000150638
0.000129533
0.000145293
0.000177082
0.000183174
0.000170549
0.000155436
0.000166572
0.000187522
0.000181112
0.000147468
0.000117394
0.000107307
0.000124562
0.000190558
0.000280878
0.000335049
0.000355778
0.000355876
0.000332044
0.000328734
0.00036923
0.000399779
0.00041877
0.000452168
0.000473571
0.000460306
0.000446144
0.00044265
0.000392338
0.000293536
0.000186529
8.92658e-05
2.8499e-05
4.00775e-06
2.95001e-05
6.51336e-05
0.000112111
0.000160107
0.000169435
0.000141144
0.000121226
0.00013604
0.000163573
0.000174915
0.000157259
0.000143887
0.00015846
0.000186975
0.000184074
0.000148746
0.000115391
9.77119e-05
0.000100337
0.000156935
0.000253624
0.000315603
0.000338483
0.000344604
0.00032386
0.00031994
0.000356307
0.000384063
0.00040656
0.000443655
0.000467796
0.000453191
0.00045477
0.000473456
0.000428309
0.00031547
0.000193508
9.33381e-05
2.08962e-05
-1.41485e-06
2.40365e-05
5.88346e-05
0.000100315
0.000145983
0.000156841
0.000128667
0.000108317
0.000121607
0.000143599
0.000147707
0.000133421
0.000126885
0.00015342
0.000185848
0.000186514
0.000149158
0.000114172
9.10888e-05
7.70008e-05
0.000117165
0.000217157
0.000292452
0.000318929
0.000325618
0.000308765
0.000305965
0.000342205
0.000364816
0.000375062
0.00042083
0.000456741
0.000445186
0.000450159
0.000499563
0.000473379
0.000351417
0.00021117
0.000111038
2.25516e-05
-5.4658e-06
1.89877e-05
5.99664e-05
0.000100025
0.000142061
0.000148865
0.000117409
9.50121e-05
0.00010529
0.000122733
0.000123654
0.000110615
0.00010468
0.000138149
0.000180542
0.000187554
0.000148925
0.000113888
9.31658e-05
7.02127e-05
8.89443e-05
0.000180286
0.00026972
0.000305411
0.000309606
0.000289557
0.000287818
0.000324992
0.000353269
0.000348523
0.000378869
0.000431368
0.000439155
0.000443399
0.000510823
0.000515537
0.000399196
0.000244537
0.000145332
4.03693e-05
-2.49118e-06
1.23367e-05
5.34385e-05