/*--------------------------------*- C++ -*----------------------------------*\
| =========                 |                                                 |
| \\      /  F ield         | OpenFOAM: The Open Source CFD Toolbox           |
|  \\    /   O peration     | Version:  2306                                  |
|   \\  /    A nd           | Website:  www.openfoam.com                      |
|    \\/     M anipulation  |                                                 |
\*---------------------------------------------------------------------------*/
FoamFile
{
    version     2.0;
    format      ascii;
    arch        "LSB;label=32;scalar=64";
    class       volVectorField;
    location    "1.5";
    object      U_0;
}
// * * * * * * * * * * * * * * * * * * * * * * * * * * * * * * * * * * * * * //

dimensions      [0 1 -1 0 0 0 0];

internalField   nonuniform List<vector> 
60000
(
(0.0104557 1.25514e-05 0.00261939)
(0.0103743 -1.29255e-05 0.0022966)
(0.0102475 -2.05669e-05 0.00194148)
(0.0101149 -1.48008e-05 0.00175079)
(0.00996955 -9.51635e-06 0.00164734)
(0.00972524 -1.06323e-05 0.00147387)
(0.00927204 -1.27461e-05 0.00122641)
(0.00849893 -1.15206e-05 0.0010379)
(0.0074466 -1.0849e-05 0.00100421)
(0.00644473 -1.30915e-05 0.0010763)
(0.00585818 -1.97082e-05 0.00117731)
(0.00573479 -2.56372e-05 0.00123693)
(0.00585534 -2.75755e-05 0.00112683)
(0.00599726 -2.33901e-05 0.000820564)
(0.00608897 -1.21473e-05 0.000472523)
(0.00619116 -1.2254e-06 0.000192889)
(0.00639441 1.08193e-05 -1.29779e-05)
(0.0066994 1.87478e-05 -0.000200305)
(0.00704533 2.22441e-05 -0.000441093)
(0.00740633 2.0213e-05 -0.000791497)
(0.00782971 1.38022e-05 -0.0012525)
(0.00836613 5.04872e-06 -0.00177007)
(0.00895339 8.35227e-07 -0.00222886)
(0.00941195 -1.7257e-06 -0.00249712)
(0.00952838 -4.85984e-06 -0.00252817)
(0.00916457 -3.40108e-06 -0.00243111)
(0.00838866 5.73037e-06 -0.00229414)
(0.00749559 4.41054e-06 -0.0021279)
(0.00678862 -8.08726e-06 -0.00204173)
(0.00635868 -7.87235e-06 -0.00207214)
(0.00619536 1.79504e-06 -0.00206417)
(0.00630394 7.49752e-06 -0.00179698)
(0.00666893 1.86337e-05 -0.00116912)
(0.00720935 3.2916e-05 -0.000363135)
(0.00783 4.70055e-05 0.000285562)
(0.00848731 5.28906e-05 0.00067994)
(0.00917215 5.28395e-05 0.00104568)
(0.00979684 6.04444e-05 0.00156808)
(0.0102309 6.23879e-05 0.0021871)
(0.0104337 4.34617e-05 0.00261248)
(0.0322838 -3.07478e-05 0.00668901)
(0.0320559 -0.000154516 0.00571817)
(0.0315225 -0.000182799 0.00480764)
(0.0310036 -0.000143059 0.00446717)
(0.0305428 -9.29904e-05 0.00440627)
(0.0297908 -5.47676e-05 0.00409207)
(0.028387 -2.0586e-05 0.0034451)
(0.0261331 -2.76005e-06 0.00286873)
(0.0232294 -4.01601e-05 0.00272332)
(0.0204388 -0.000140171 0.00296543)
(0.0185916 -0.000242141 0.00328256)
(0.0178744 -0.000283252 0.00332422)
(0.0178041 -0.000258639 0.00285996)
(0.0178912 -0.000187488 0.00202589)
(0.0180309 -9.34221e-05 0.00120811)
(0.0183411 -1.22608e-05 0.000572739)
(0.0189658 4.28672e-05 6.65331e-05)
(0.0199048 6.83241e-05 -0.000453009)
(0.0210422 6.66187e-05 -0.00114728)
(0.0223332 2.78273e-05 -0.00213182)
(0.0238677 -3.29397e-05 -0.00341448)
(0.025657 -8.00545e-05 -0.00484825)
(0.0274534 -7.82872e-05 -0.00610125)
(0.0288156 -5.05272e-05 -0.00679732)
(0.0291987 -2.20958e-05 -0.00678841)
(0.0282298 5.53204e-06 -0.00632822)
(0.026152 1.56785e-05 -0.00575912)
(0.0237151 -4.42062e-05 -0.00531955)
(0.0215169 -0.000131315 -0.00526445)
(0.0198024 -0.000148483 -0.00550989)
(0.0188541 -0.000100764 -0.00552653)
(0.0189202 -3.2561e-05 -0.00471798)
(0.0199118 7.01384e-05 -0.00296614)
(0.0214793 0.000194462 -0.000869906)
(0.0233302 0.000305115 0.000811866)
(0.0253296 0.000344032 0.00196881)
(0.0273876 0.000341364 0.00308697)
(0.0293205 0.000333505 0.00448925)
(0.030889 0.000284769 0.00598084)
(0.0319175 0.000150046 0.0068737)
(0.0553499 -0.000214409 0.0100592)
(0.054969 -0.000454904 0.00855832)
(0.0538668 -0.000490688 0.0069706)
(0.0528371 -0.000390183 0.00636414)
(0.0520703 -0.000270389 0.00647806)
(0.0509461 -0.000167836 0.00634213)
(0.0488626 -7.52648e-05 0.00551653)
(0.0455905 -3.45964e-05 0.00449598)
(0.0413204 -0.00012351 0.00403274)
(0.0367677 -0.000362875 0.00435552)
(0.0330608 -0.000607057 0.00498122)
(0.0310176 -0.000700962 0.00510728)
(0.030259 -0.000635451 0.00437379)
(0.0299979 -0.000459965 0.00314952)
(0.030005 -0.000236783 0.00203183)
(0.0304097 -4.1671e-05 0.00120034)
(0.0313858 7.25021e-05 0.000532763)
(0.0329326 0.000109024 -0.000175509)
(0.0348899 7.85573e-05 -0.00114186)
(0.0371972 -4.85486e-05 -0.00254726)
(0.0399786 -0.000218512 -0.00446522)
(0.0431809 -0.000333085 -0.00675228)
(0.0463633 -0.000318063 -0.00891514)
(0.0488811 -0.000235392 -0.0102741)
(0.0499375 -0.000147317 -0.0104193)
(0.0489075 -7.13639e-05 -0.00959837)
(0.0460333 -6.12544e-05 -0.00843361)
(0.0422964 -0.000190742 -0.00753549)
(0.0384996 -0.0003544 -0.00742045)
(0.0350357 -0.000381836 -0.00803126)
(0.0325225 -0.000284072 -0.00851398)
(0.0317335 -0.000127396 -0.00772041)
(0.0328408 0.00010865 -0.00529369)
(0.0352588 0.00040767 -0.00214843)
(0.0383593 0.000673612 0.000523715)
(0.0418286 0.000767132 0.00248893)
(0.0454464 0.000769898 0.00434029)
(0.0489706 0.000710051 0.00649789)
(0.0520836 0.000530406 0.00875175)
(0.0543714 0.000189963 0.0101968)
(0.0788688 -0.000541222 0.0127785)
(0.0783858 -0.000883837 0.0112164)
(0.0765372 -0.00090963 0.00880017)
(0.0748493 -0.00073405 0.00745342)
(0.0738171 -0.000528666 0.00758282)
(0.0725871 -0.000337496 0.00797027)
(0.0703021 -0.000155878 0.00742881)
(0.0667342 -6.43091e-05 0.00606012)
(0.061929 -0.000183178 0.00497572)
(0.0560381 -0.000558041 0.00507289)
(0.0499499 -0.00100053 0.00610372)
(0.0454755 -0.00121971 0.00666649)
(0.0431904 -0.00114538 0.00587324)
(0.0421369 -0.000859372 0.00432418)
(0.0417253 -0.000482505 0.00299188)
(0.0419836 -0.000151582 0.00213025)
(0.0430996 3.89748e-05 0.0015316)
(0.0450587 7.4229e-05 0.000921497)
(0.0476673 -2.38317e-05 3.66601e-05)
(0.0508557 -0.000293284 -0.00138177)
(0.0548405 -0.000652841 -0.00355637)
(0.0595637 -0.000887977 -0.00652873)
(0.0643995 -0.000851753 -0.00980734)
(0.0685039 -0.000668138 -0.0123728)
(0.0708999 -0.000451365 -0.0133024)
(0.0706876 -0.000258205 -0.0125303)
(0.0678561 -0.00021252 -0.0108004)
(0.0633415 -0.000404905 -0.0091467)
(0.0581456 -0.000637068 -0.00855793)
(0.0528178 -0.000667138 -0.00934063)
(0.0480569 -0.000541224 -0.0106593)
(0.0451078 -0.000348969 -0.0108021)
(0.0450603 -1.38418e-05 -0.00864081)
(0.0476598 0.000471098 -0.00497351)
(0.0518437 0.000926836 -0.0014655)
(0.056898 0.00112256 0.00129826)
(0.0623211 0.00113786 0.00388202)
(0.0677757 0.00103522 0.00676751)
(0.0728697 0.000691507 0.00984554)
(0.0769083 9.47773e-05 0.0122148)
(0.101311 -0.00101036 0.0141039)
(0.100989 -0.00138527 0.0136456)
(0.098182 -0.00136904 0.0108546)
(0.095611 -0.00111432 0.00820983)
(0.0943788 -0.000823512 0.0076735)
(0.0934244 -0.000541666 0.00860628)
(0.0915074 -0.000258038 0.00899909)
(0.0883958 -9.90957e-05 0.00777337)
(0.0841038 -0.000186265 0.00587675)
(0.0779988 -0.000601826 0.0051688)
(0.0699167 -0.00122142 0.00639794)
(0.062065 -0.00168167 0.00788362)
(0.0569251 -0.0017198 0.00748527)
(0.0542827 -0.00137806 0.00561547)
(0.0530205 -0.000857941 0.0039669)
(0.0527672 -0.000388892 0.00314362)
(0.0536152 -0.000115021 0.00286315)
(0.0555105 -8.73245e-05 0.00272711)
(0.0581933 -0.000295437 0.00241863)
(0.0616056 -0.000792722 0.00162988)
(0.0661989 -0.00149668 -4.49771e-05)
(0.0722346 -0.00201202 -0.00307657)
(0.0790632 -0.0019686 -0.00739736)
(0.0854755 -0.00154424 -0.0118489)
(0.0901798 -0.00104183 -0.0146906)
(0.091985 -0.000608389 -0.0150082)
(0.0903747 -0.000435944 -0.0132698)
(0.0859371 -0.000661882 -0.0108241)
(0.0799223 -0.00094416 -0.00927118)
(0.0732283 -0.00093909 -0.00958129)
(0.0664446 -0.000769755 -0.0114165)
(0.060585 -0.000617109 -0.0130259)
(0.0575026 -0.00034005 -0.0124139)
(0.0583909 0.00018136 -0.0094424)
(0.0625598 0.000754198 -0.00583007)
(0.0688364 0.00103445 -0.00262085)
(0.0762051 0.00107463 0.0005927)
(0.0838883 0.00102997 0.00421735)
(0.0913525 0.000623862 0.0082056)
(0.0977182 -0.000198389 0.0118971)
(0.119928 -0.00172995 0.0120847)
(0.120817 -0.00191748 0.0145278)
(0.116934 -0.00177725 0.0131871)
(0.112991 -0.00148015 0.00954741)
(0.111594 -0.00110945 0.00732925)
(0.111474 -0.000743339 0.00802069)
(0.110561 -0.000377755 0.0097248)
(0.108416 -0.000148033 0.00963258)
(0.10551 -0.000161449 0.00723915)
(0.100821 -0.000469428 0.00508269)
(0.0925994 -0.00109197 0.00573732)
(0.0818691 -0.00181701 0.00828137)
(0.0725243 -0.00218001 0.00907291)
(0.0668167 -0.00194662 0.00714787)
(0.0639571 -0.00133803 0.00491732)
(0.0627824 -0.000738221 0.00390275)
(0.0629187 -0.000382789 0.00394142)
(0.0641168 -0.000355114 0.00445654)
(0.0659512 -0.000706682 0.00504903)
(0.0682325 -0.00156361 0.00545259)
(0.071674 -0.00284634 0.00522014)
(0.0774001 -0.00395208 0.00349846)
(0.0855452 -0.00420987 -0.000490792)
(0.0951188 -0.00357525 -0.00650454)
(0.104081 -0.00241516 -0.0125119)
(0.109846 -0.00129985 -0.0157483)
(0.111123 -0.000759682 -0.0154376)
(0.107938 -0.000955797 -0.0129294)
(0.101902 -0.00128338 -0.0103769)
(0.0947391 -0.00118626 -0.00953112)
(0.0871761 -0.000884519 -0.0109081)
(0.0794768 -0.000732519 -0.0133535)
(0.0728993 -0.000623189 -0.0147981)
(0.0697637 -0.000312444 -0.0140851)
(0.0711795 6.26525e-05 -0.0119626)
(0.0766458 0.000182001 -0.0094165)
(0.0847667 0.00013755 -0.0062493)
(0.0941457 0.00013409 -0.0022735)
(0.103872 -0.000180363 0.00231642)
(0.113276 -0.000987115 0.00735571)
(0.129412 -0.00335199 0.00470548)
(0.134727 -0.00270671 0.0112632)
(0.13085 -0.00195339 0.0140623)
(0.124313 -0.00170475 0.0118232)
(0.122283 -0.00147225 0.00781872)
(0.123952 -0.000975573 0.0067155)
(0.125109 -0.000473892 0.00896631)
(0.124094 -0.000244027 0.0109978)
(0.122649 -0.000233489 0.00935831)
(0.120744 -0.00027509 0.00558756)
(0.115246 -0.000637511 0.00451887)
(0.104637 -0.00138595 0.00740636)
(0.0916439 -0.00216636 0.00999831)
(0.0810831 -0.00233841 0.00889963)
(0.0750485 -0.00182217 0.00612677)
(0.0723597 -0.00112468 0.00450189)
(0.071612 -0.000665144 0.00443755)
(0.0719661 -0.000601391 0.00521708)
(0.0726895 -0.0010848 0.00626653)
(0.0732623 -0.00241771 0.00750093)
(0.0741708 -0.00455372 0.00891851)
(0.0772521 -0.00650291 0.00962167)
(0.0838522 -0.00725674 0.00802749)
(0.0938146 -0.00672267 0.00318954)
(0.106606 -0.0051935 -0.00444495)
(0.119086 -0.00301282 -0.0118453)
(0.126157 -0.00148306 -0.0152645)
(0.125937 -0.00139043 -0.0145717)
(0.120691 -0.00178973 -0.0120749)
(0.113985 -0.00150689 -0.0100598)
(0.107195 -0.000832771 -0.0100309)
(0.10001 -0.000557134 -0.0119136)
(0.0922863 -0.000535725 -0.0143349)
(0.0854831 -0.000482596 -0.0162139)
(0.0819732 -0.000658374 -0.0173395)
(0.0834596 -0.00118588 -0.017277)
(0.0895991 -0.00166323 -0.0152582)
(0.098267 -0.00176431 -0.0116201)
(0.107523 -0.00202596 -0.00730996)
(0.118085 -0.00292906 -0.00211299)
(0.128258 -0.00629746 -0.00490402)
(0.139303 -0.00450772 0.00401944)
(0.139502 -0.00205565 0.0112093)
(0.130715 -0.00128209 0.0129887)
(0.124906 -0.00175637 0.00956116)
(0.127763 -0.00158835 0.00601487)
(0.13322 -0.000686005 0.00677866)
(0.134121 -0.000215155 0.0103272)
(0.131669 -0.000495716 0.0112539)
(0.131669 -0.000608109 0.00719617)
(0.131987 -0.000315924 0.00362395)
(0.126599 -0.000531261 0.00548423)
(0.114322 -0.00138947 0.00954978)
(0.0994044 -0.00209862 0.0102576)
(0.0879807 -0.00204832 0.00776305)
(0.0821571 -0.00146493 0.00556608)
(0.0802604 -0.000924883 0.00498137)
(0.0803014 -0.000750727 0.00537008)
(0.0809833 -0.00124115 0.00603781)
(0.0814486 -0.00288332 0.00707178)
(0.0811417 -0.00579079 0.00916001)
(0.0809231 -0.00877805 0.0121592)
(0.0834807 -0.0102153 0.0139095)
(0.0905076 -0.00988362 0.0120485)
(0.102193 -0.00836719 0.00594006)
(0.117959 -0.00566079 -0.00298956)
(0.13191 -0.0029546 -0.0104715)
(0.1362 -0.0020615 -0.0134434)
(0.130764 -0.00240141 -0.0128666)
(0.123049 -0.00222718 -0.0107717)
(0.118564 -0.00130101 -0.00906556)
(0.115964 -0.000423195 -0.00921493)
(0.111625 3.55206e-05 -0.0111341)
(0.10502 0.000163397 -0.0142318)
(0.0982049 -0.000519028 -0.0186031)
(0.0941918 -0.0021695 -0.0227791)
(0.0955132 -0.00366466 -0.0237181)
(0.101607 -0.00407677 -0.0209099)
(0.108948 -0.00429234 -0.0166318)
(0.116702 -0.00559637 -0.0117689)
(0.126191 -0.00946684 -0.0113763)
(0.137679 -0.00760698 -0.00265222)
(0.14365 -0.00302735 0.00631706)
(0.137835 -0.000397673 0.0111864)
(0.127851 -0.00118632 0.0100862)
(0.125806 -0.00240597 0.00591533)
(0.13352 -0.00154757 0.00431665)
(0.140128 -5.60437e-05 0.00716919)
(0.137574 -0.000215164 0.0102587)
(0.132049 -0.00152945 0.00848576)
(0.133938 -0.0017094 0.00370405)
(0.139036 -0.000716795 0.00338458)
(0.13556 -0.000395861 0.00778412)
(0.121858 -0.000977842 0.010442)
(0.105493 -0.00146684 0.00923873)
(0.094133 -0.00143527 0.00726591)
(0.0894002 -0.00115916 0.00644161)
(0.089018 -0.000999662 0.00628084)
(0.0906248 -0.00141013 0.00614204)
(0.0925264 -0.00301244 0.00631356)
(0.0931626 -0.00608378 0.00788439)
(0.0917641 -0.00972021 0.0114939)
(0.0902743 -0.0120871 0.0156869)
(0.0923508 -0.0123378 0.0172524)
(0.100211 -0.0110755 0.0137794)
(0.114317 -0.00849636 0.00552)
(0.130924 -0.00502996 -0.00403298)
(0.138487 -0.00265154 -0.0102988)
(0.130995 -0.00196287 -0.0116306)
(0.117868 -0.00192646 -0.00936511)
(0.111015 -0.00176231 -0.00610636)
(0.113594 -0.00120863 -0.00424749)
(0.11961 -2.12426e-05 -0.00500373)
(0.120834 0.00115629 -0.00837998)
(0.116428 0.000834862 -0.0145512)
(0.110046 -0.00171855 -0.0224189)
(0.105926 -0.00472706 -0.0278215)
(0.107266 -0.00605943 -0.0276012)
(0.112663 -0.00632821 -0.0234287)
(0.118493 -0.0078213 -0.0180042)
(0.127438 -0.0117124 -0.0147739)
(0.135748 -0.0110462 -0.00693584)
(0.144308 -0.00554023 0.00132857)
(0.144557 -0.000370768 0.00741821)
(0.13615 0.000211393 0.0085004)
(0.12765 -0.00219261 0.00534194)
(0.129132 -0.00297671 0.00235511)
(0.138885 -0.000853178 0.0034657)
(0.143784 0.000753603 0.0071575)
(0.138047 -0.000956228 0.00807386)
(0.131391 -0.00394138 0.00457593)
(0.136407 -0.00410615 0.00241538)
(0.145587 -0.00175158 0.00566753)
(0.142208 -0.00011061 0.00947544)
(0.126935 3.16647e-05 0.00975806)
(0.110751 -0.000424818 0.00862402)
(0.100988 -0.000890916 0.00838824)
(0.0980748 -0.00134213 0.00847825)
(0.0998264 -0.00200486 0.00788544)
(0.103725 -0.00344339 0.0067856)
(0.106555 -0.00611561 0.0067533)
(0.105679 -0.00958155 0.00951506)
(0.10203 -0.0124328 0.0144964)
(0.0996523 -0.0135007 0.0185347)
(0.102485 -0.0129321 0.0179696)
(0.112419 -0.0109243 0.011252)
(0.126975 -0.00721236 0.000907286)
(0.135398 -0.00311064 -0.00758546)
(0.128749 -0.000448414 -0.010449)
(0.113666 3.89297e-05 -0.00771015)
(0.103274 -0.00108784 -0.00239432)
(0.10356 -0.00212008 0.00200503)
(0.113197 -0.00116762 0.00320706)
(0.124164 0.00128652 0.000381444)
(0.128277 0.00245368 -0.00660579)
(0.125501 0.000219366 -0.0165543)
(0.120128 -0.00395744 -0.0255939)
(0.116805 -0.00666251 -0.029343)
(0.117994 -0.00751086 -0.0272318)
(0.122133 -0.00915812 -0.0217318)
(0.129714 -0.0125208 -0.0174075)
(0.135738 -0.0136493 -0.00951059)
(0.143341 -0.00918412 -0.00265117)
(0.147678 -0.00233144 0.00274385)
(0.144471 0.000825984 0.00536696)
(0.135664 -0.000754045 0.00423679)
(0.129164 -0.00319815 0.00136629)
(0.132604 -0.00256724 0.000827941)
(0.142141 0.000208013 0.00376717)
(0.146011 0.000567967 0.00648518)
(0.13985 -0.00327016 0.00533702)
(0.134621 -0.00721508 0.00281012)
(0.142391 -0.00634763 0.00437657)
(0.150885 -0.00208807 0.00826498)
(0.145101 0.000938069 0.00947503)
(0.130051 0.00154192 0.00885625)
(0.116511 0.000680681 0.0093256)
(0.109126 -0.000918583 0.0104479)
(0.108276 -0.00288386 0.0102812)
(0.113054 -0.00481305 0.00820034)
(0.119269 -0.00675921 0.00593515)
(0.120831 -0.0091542 0.00668733)
(0.116404 -0.0116377 0.0113316)
(0.110479 -0.0131022 0.0168958)
(0.108134 -0.0132723 0.0190083)
(0.11249 -0.0121092 0.0146417)
(0.122662 -0.0086946 0.00493743)
(0.130504 -0.00342473 -0.00472952)
(0.127126 0.00109981 -0.00932598)
(0.115601 0.00258659 -0.00767732)
(0.105365 0.000811858 -0.00181714)
(0.102063 -0.00190332 0.00465722)
(0.107548 -0.00232441 0.00835937)
(0.119346 0.000340908 0.00774323)
(0.130305 0.00318691 0.00214488)
(0.134878 0.00252765 -0.00784374)
(0.133464 -0.00170636 -0.0188478)
(0.129554 -0.00550399 -0.0261967)
(0.126511 -0.00717125 -0.0278241)
(0.126312 -0.00915659 -0.0243961)
(0.133021 -0.0118838 -0.0202142)
(0.137845 -0.014612 -0.0121553)
(0.143681 -0.012396 -0.0054078)
(0.147846 -0.00593499 -0.00111974)
(0.147814 -0.000617404 0.00181145)
(0.142588 0.00023029 0.00280055)
(0.134549 -0.00185108 0.00124677)
(0.130606 -0.00311105 -0.000129608)
(0.135963 -0.00174892 0.0015002)
(0.145319 -0.000274344 0.00462126)
(0.147589 -0.0022977 0.005291)
(0.141102 -0.00719007 0.00329736)
(0.139077 -0.00957935 0.00340774)
(0.147512 -0.0061616 0.00682809)
(0.152225 -0.000561709 0.0087359)
(0.144999 0.00270681 0.00825591)
(0.132486 0.00305101 0.00883228)
(0.122149 0.00118227 0.0106393)
(0.117041 -0.00252343 0.0105653)
(0.119451 -0.00654419 0.00750842)
(0.128394 -0.00851252 0.00363358)
(0.135114 -0.00910369 0.00263874)
(0.13262 -0.0102564 0.00654772)
(0.1243 -0.011592 0.0129937)
(0.117013 -0.0119949 0.0174483)
(0.115195 -0.0113509 0.0160649)
(0.119889 -0.00883018 0.00853342)
(0.126188 -0.00359553 -0.00116352)
(0.126348 0.00203409 -0.00777213)
(0.119947 0.00452045 -0.00869386)
(0.112784 0.00282141 -0.00470917)
(0.108771 -0.00060704 0.00162935)
(0.109669 -0.00226151 0.00712923)
(0.116432 -0.000536308 0.00942928)
(0.126805 0.00265235 0.00724801)
(0.136712 0.00366343 3.87978e-05)
(0.142252 0.000778489 -0.0105445)
(0.141672 -0.00315799 -0.0200497)
(0.137339 -0.00548786 -0.0250977)
(0.132961 -0.00791639 -0.0252463)
(0.138765 -0.0106362 -0.0216284)
(0.142168 -0.0143542 -0.0149801)
(0.146466 -0.0141018 -0.00822919)
(0.147825 -0.00949348 -0.00399966)
(0.146718 -0.00357923 -0.000924594)
(0.144132 -0.000102428 0.00165673)
(0.13942 -0.000177037 0.00187446)
(0.134293 -0.00205033 0.000359569)
(0.134624 -0.00306205 0.000585064)
(0.142041 -0.00268991 0.00332538)
(0.148419 -0.00328535 0.00514152)
(0.146277 -0.00668041 0.00363702)
(0.14057 -0.0103058 0.00213046)
(0.142023 -0.00937215 0.00417311)
(0.148053 -0.00374791 0.00696666)
(0.147545 0.00189565 0.00781037)
(0.139186 0.00465288 0.00862174)
(0.12984 0.00405027 0.00966263)
(0.124013 2.59771e-05 0.00768295)
(0.12306 -0.00625791 0.0025609)
(0.130353 -0.0103935 -0.00208967)
(0.142685 -0.00999401 -0.00312566)
(0.146703 -0.00873576 0.000956165)
(0.138922 -0.00919161 0.00811176)
(0.127539 -0.00973329 0.0142682)
(0.120251 -0.00901408 0.0156413)
(0.119821 -0.00691819 0.0110249)
(0.123742 -0.00255411 0.00276057)
(0.125983 0.00288867 -0.00511939)
(0.124004 0.00583477 -0.00932052)
(0.120472 0.00441754 -0.00866683)
(0.118 0.000825574 -0.00435117)
(0.117437 -0.00132695 0.000909295)
(0.119498 -0.000530436 0.00487342)
(0.124886 0.00163255 0.006172)
(0.134179 0.00252021 0.00341588)
(0.145071 0.00131346 -0.00412281)
(0.150016 -0.00085542 -0.0137799)
(0.146823 -0.00282192 -0.0209561)
(0.14098 -0.00588753 -0.0238451)
(0.146224 -0.00906478 -0.0214279)
(0.148413 -0.0131056 -0.0166656)
(0.150931 -0.0137465 -0.0112747)
(0.149124 -0.0109945 -0.00743759)
(0.144896 -0.00620207 -0.00358024)
(0.142176 -0.00159851 0.000898858)
(0.140407 0.000584401 0.0029598)
(0.138001 -0.000342246 0.00160931)
(0.13739 -0.00293699 0.00056863)
(0.141807 -0.0044851 0.00272218)
(0.148103 -0.00462465 0.00546482)
(0.149099 -0.00592124 0.00446707)
(0.143573 -0.00896191 0.0011926)
(0.13831 -0.00991516 0.00117707)
(0.137378 -0.00611455 0.00480009)
(0.135877 -0.000283223 0.00841519)
(0.131584 0.00383331 0.0100173)
(0.128511 0.00504198 0.00823414)
(0.128203 0.00268751 0.00247665)
(0.127661 -0.00366808 -0.00419898)
(0.129553 -0.0107919 -0.00747667)
(0.140843 -0.0123216 -0.0067558)
(0.152526 -0.00896633 -0.00245139)
(0.150409 -0.00688311 0.00437954)
(0.137542 -0.00683436 0.0109204)
(0.125612 -0.00596164 0.0141067)
(0.1213 -0.00368495 0.0122079)
(0.123825 -0.000242199 0.00601657)
(0.128116 0.00380171 -0.00187492)
(0.12975 0.0060841 -0.00849127)
(0.129089 0.00480682 -0.0112577)
(0.128504 0.00164703 -0.00999662)
(0.128484 -6.11686e-05 -0.00669902)
(0.128733 0.000552651 -0.00290552)
(0.130113 0.0011938 0.000735957)
(0.135029 8.60413e-06 0.00209848)
(0.144854 -0.00106672 -0.0015314)
(0.153372 -0.00053149 -0.00933499)
(0.153559 -0.000497004 -0.0171103)
(0.148775 -0.003635 -0.021699)
(0.153671 -0.00685134 -0.0196454)
(0.154775 -0.0106674 -0.0168227)
(0.15654 -0.0115195 -0.0132564)
(0.153499 -0.0104591 -0.0105416)
(0.146639 -0.00757818 -0.00650015)
(0.141585 -0.00312085 -0.000531136)
(0.139772 0.000769007 0.00352561)
(0.139312 0.00136718 0.00338381)
(0.140004 -0.00163137 0.00193782)
(0.143232 -0.00503982 0.0029752)
(0.148154 -0.00578075 0.00571576)
(0.150023 -0.00527805 0.00542561)
(0.145224 -0.00616766 0.00132767)
(0.136001 -0.00726258 -0.00115821)
(0.128139 -0.00568502 0.00126678)
(0.123819 -0.00172613 0.00524616)
(0.123049 0.00192885 0.00628198)
(0.126396 0.00399868 0.00278375)
(0.131417 0.00371672 -0.00349406)
(0.133638 -0.000658526 -0.00829725)
(0.1337 -0.00883885 -0.00837985)
(0.1394 -0.0144641 -0.0047399)
(0.151202 -0.0122294 -5.56164e-05)
(0.154724 -0.00711507 0.00504199)
(0.144304 -0.00449175 0.0100422)
(0.130454 -0.0030981 0.0129137)
(0.123473 -0.000810395 0.011981)
(0.124546 0.00207742 0.00725249)
(0.128925 0.0045301 0.00054549)
(0.131359 0.0053079 -0.00541107)
(0.131205 0.00364882 -0.00838341)
(0.131697 0.000877427 -0.00886137)
(0.134026 -0.000382905 -0.00816864)
(0.136474 0.000621734 -0.005793)
(0.137834 0.00101134 -0.00133805)
(0.139011 -0.00122826 0.00196012)
(0.143154 -0.00304979 -4.88686e-06)
(0.150444 -0.00135928 -0.00655212)
(0.155324 0.000708113 -0.0137133)
(0.155229 -0.00152071 -0.0186066)
(0.159095 -0.0044626 -0.0163216)
(0.159806 -0.00756869 -0.0156902)
(0.161831 -0.00856607 -0.0139426)
(0.160139 -0.0086764 -0.0125009)
(0.152206 -0.00753847 -0.00958564)
(0.143923 -0.00385578 -0.00363725)
(0.140061 0.000821318 0.00249704)
(0.139962 0.00276145 0.00525097)
(0.141643 0.000285803 0.00485667)
(0.144219 -0.00388164 0.00418527)
(0.147279 -0.00565821 0.00520413)
(0.148834 -0.00484357 0.00582788)
(0.145875 -0.00418225 0.00326293)
(0.138188 -0.00411729 -0.000852091)
(0.129775 -0.00297699 -0.00260294)
(0.125144 -0.000760928 -0.00151748)
(0.125456 0.000970876 -0.00038794)
(0.129535 0.00206479 -0.00153397)
(0.135125 0.00275877 -0.00515213)
(0.139236 0.00103646 -0.0084448)
(0.141151 -0.0054046 -0.0080394)
(0.144081 -0.0134193 -0.00357713)
(0.150798 -0.0150078 0.00200137)
(0.154512 -0.00946263 0.00628645)
(0.147465 -0.00357077 0.00976044)
(0.134988 -0.000300987 0.0124606)
(0.126666 0.00177504 0.0124716)
(0.124971 0.00366478 0.00874344)
(0.126045 0.00518283 0.00347266)
(0.126073 0.00537686 -0.000186575)
(0.12546 0.00334354 -0.00131993)
(0.127036 8.9244e-05 -0.00196074)
(0.131567 -0.00157131 -0.00316816)
(0.13662 -0.00038305 -0.00227301)
(0.139108 0.000767597 0.00197735)
(0.138842 -0.000549014 0.00510915)
(0.13903 -0.00236612 0.00238667)
(0.143188 -0.00164178 -0.00437356)
(0.150803 0.000188079 -0.0105945)
(0.157166 -0.000723642 -0.0145443)
(0.160139 -0.0024526 -0.0120018)
(0.163244 -0.00426195 -0.0128294)
(0.1664 -0.00533336 -0.013046)
(0.166227 -0.00622087 -0.0133562)
(0.158536 -0.00605708 -0.0122555)
(0.147948 -0.00328236 -0.00725265)
(0.141358 0.00113075 -4.27286e-05)
(0.140227 0.0035953 0.00510605)
(0.142134 0.0018305 0.00653634)
(0.144433 -0.00219965 0.00574522)
(0.14592 -0.00470073 0.00529051)
(0.145906 -0.00452243 0.00551984)
(0.143212 -0.00336926 0.00431733)
(0.138076 -0.00227837 0.000904339)
(0.133365 -0.000873529 -0.00261173)
(0.131881 0.000479628 -0.00390022)
(0.133238 0.000724358 -0.00281644)
(0.135509 0.000383455 -0.00147451)
(0.138432 0.00089578 -0.00252575)
(0.141338 0.00115231 -0.00526303)
(0.143279 -0.002058 -0.00596017)
(0.145554 -0.00906326 -0.00319528)
(0.14974 -0.0136776 0.00135379)
(0.153245 -0.0105781 0.00561707)
(0.150051 -0.00340717 0.00894372)
(0.140962 0.00224993 0.0111001)
(0.132448 0.00518516 0.0113857)
(0.127306 0.00605024 0.00953591)
(0.124259 0.0056483 0.00671692)
(0.12247 0.0043473 0.00440658)
(0.122897 0.00170938 0.00327497)
(0.12622 -0.00190198 0.00249342)
(0.131323 -0.00422577 0.00112544)
(0.136048 -0.00315873 0.000733274)
(0.138346 -0.000155794 0.00322403)
(0.138101 0.00134634 0.00621597)
(0.137502 0.000743315 0.0047968)
(0.139472 0.000219831 -0.0011691)
(0.145833 0.000328004 -0.00702497)
(0.154294 -0.000463915 -0.0103002)
(0.15827 -0.0013798 -0.00907466)
(0.163376 -0.00217716 -0.010303)
(0.167844 -0.00268987 -0.0110384)
(0.169003 -0.00356164 -0.0122438)
(0.162987 -0.00353711 -0.0132634)
(0.15297 -0.00116853 -0.0109035)
(0.145321 0.00236929 -0.0044299)
(0.142084 0.00395299 0.00248487)
(0.141662 0.00220496 0.00621476)
(0.142169 -0.000957895 0.00653045)
(0.142592 -0.00271254 0.0058669)
(0.142243 -0.00255397 0.00567301)
(0.140602 -0.00182183 0.00464699)
(0.138557 -0.00107276 0.00172439)
(0.138124 -0.000169455 -0.00151862)
(0.139881 6.10166e-05 -0.00289526)
(0.141394 -0.0010812 -0.00189394)
(0.140386 -0.00242566 0.000267142)
(0.13848 -0.00163798 0.00138293)
(0.13831 0.000595988 0.000934542)
(0.140494 -0.000124946 0.000958924)
(0.144404 -0.00588085 0.00268037)
(0.148493 -0.0117141 0.00526118)
(0.150771 -0.0104426 0.00684298)
(0.148336 -0.0028055 0.00764734)
(0.141085 0.00467396 0.00890767)
(0.13305 0.00806354 0.00971369)
(0.127082 0.0075338 0.00896186)
(0.123384 0.00550698 0.007581)
(0.121822 0.00400242 0.00696841)
(0.122862 0.00265117 0.00700065)
(0.126434 0.00024155 0.00637589)
(0.131244 -0.00251164 0.00480764)
(0.135396 -0.0029125 0.00392115)
(0.137374 -1.87175e-05 0.00519901)
(0.137621 0.00309735 0.00722212)
(0.1381 0.00406877 0.00657652)
(0.140151 0.00348981 0.00223124)
(0.144724 0.00221365 -0.00307136)
(0.151624 0.000327701 -0.0068821)
(0.155742 -0.0023796 -0.00757882)
(0.162164 -0.00240561 -0.00905152)
(0.166715 -0.000954618 -0.00959337)
(0.16758 -0.00011292 -0.0103715)
(0.16409 -0.000160415 -0.0116521)
(0.158632 0.000790454 -0.0116388)
(0.154049 0.00323836 -0.00826282)
(0.150454 0.00459852 -0.00265847)
(0.146682 0.0029494 0.00199062)
(0.142761 -0.000235639 0.00406445)
(0.13985 -0.00226941 0.00464305)
(0.139009 -0.00244615 0.0051674)
(0.140332 -0.00171218 0.00535447)
(0.143642 -0.000714063 0.00407942)
(0.148382 0.000242592 0.00164967)
(0.152161 0.000145511 -0.00021968)
(0.151703 -0.00132989 0.000322788)
(0.146595 -0.00246766 0.00367564)
(0.140872 -0.00123344 0.00730717)
(0.138912 0.00173444 0.0073541)
(0.141061 0.0027147 0.00368995)
(0.144924 -0.00128901 0.000784804)
(0.148389 -0.00765285 0.00258671)
(0.149748 -0.00878159 0.00648723)
(0.14725 -0.00202763 0.00780584)
(0.140743 0.0066464 0.00716171)
(0.133447 0.0112033 0.00691811)
(0.128558 0.010979 0.00713747)
(0.126505 0.00834501 0.00675659)
(0.126301 0.00566605 0.00557842)
(0.127237 0.00373322 0.00438522)
(0.129292 0.00200604 0.00396653)
(0.132288 0.000474149 0.00412217)
(0.135724 0.000204318 0.00433065)
(0.138778 0.00189895 0.00513773)
(0.140462 0.00425539 0.00680944)
(0.141037 0.00544293 0.00764547)
(0.141775 0.00487566 0.00555663)
(0.144163 0.00278849 0.000841475)
(0.149102 -0.000175878 -0.00420594)
(0.154117 -0.00493742 -0.00567875)
(0.159703 -0.00596856 -0.00819306)
(0.163729 -0.00337475 -0.00848349)
(0.164607 0.000264779 -0.00824099)
(0.161498 0.00230765 -0.00866109)
(0.156564 0.0030445 -0.00910253)
(0.153226 0.00407604 -0.00817571)
(0.152441 0.00511012 -0.00559893)
(0.152223 0.00454177 -0.00247352)
(0.15024 0.00212208 -2.71354e-05)
(0.146218 -0.000931465 0.00162619)
(0.142179 -0.00388323 0.00315795)
(0.140564 -0.0067002 0.00467788)
(0.142769 -0.00859259 0.00539986)
(0.148714 -0.00833035 0.0046134)
(0.155159 -0.00588378 0.0025647)
(0.156781 -0.0030841 0.00123163)
(0.151888 -0.000954405 0.00261921)
(0.144636 0.00148927 0.00525959)
(0.140218 0.00446481 0.00494653)
(0.139609 0.00586129 0.000428149)
(0.141061 0.00351589 -0.00438999)
(0.14386 -0.00195372 -0.00441745)
(0.14662 -0.00600816 0.000481433)
(0.146584 -0.00371717 0.00514323)
(0.143318 0.00377474 0.00659035)
(0.139628 0.0106987 0.00598065)
(0.138148 0.0134553 0.00432457)
(0.138406 0.0122688 0.00176628)
(0.138544 0.00924092 -0.00067269)
(0.13786 0.0061558 -0.00153311)
(0.137165 0.00370269 -0.000349857)
(0.137253 0.002194 0.00194252)
(0.137902 0.00197879 0.00388756)
(0.138557 0.00285411 0.00513764)
(0.138839 0.00385575 0.00635261)
(0.139012 0.00427515 0.00735776)
(0.140058 0.00392175 0.00682851)
(0.143062 0.00225464 0.00385059)
(0.148125 -0.00118155 -0.00101177)
(0.155591 -0.00513716 -0.00225527)
(0.157837 -0.00379331 -0.00671303)
(0.155985 -0.000165023 -0.0085446)
(0.151887 0.00371652 -0.00866092)
(0.147764 0.00565019 -0.00809288)
(0.144983 0.00545699 -0.00741696)
(0.14402 0.00436528 -0.00705183)
(0.1449 0.00328943 -0.00695473)
(0.147425 0.00222783 -0.00642248)
(0.151007 0.00102198 -0.00479504)
(0.154051 -0.000246716 -0.00234964)
(0.154667 -0.00183559 0.000126131)
(0.15262 -0.00445637 0.00229911)
(0.149782 -0.00792697 0.0045724)
(0.148785 -0.01049 0.00683803)
(0.150494 -0.0104301 0.00799042)
(0.152476 -0.00753721 0.00710968)
(0.151335 -0.00271129 0.00506224)
(0.146977 0.00226478 0.00330389)
(0.142531 0.00517878 0.00159479)
(0.140137 0.00457813 -0.0010952)
(0.14 0.000984937 -0.00389471)
(0.142112 -0.00322195 -0.00415869)
(0.145547 -0.00536045 -0.000583876)
(0.147606 -0.00362581 0.0044966)
(0.147147 0.00160888 0.00761458)
(0.146329 0.00737511 0.00714762)
(0.146991 0.0109256 0.00327179)
(0.148078 0.0115937 -0.00244717)
(0.148006 0.00982636 -0.00740809)
(0.146814 0.00642126 -0.00952363)
(0.145229 0.00298901 -0.00818387)
(0.14372 0.00154243 -0.00418627)
(0.142473 0.0025318 0.000745719)
(0.141278 0.00420339 0.00508676)
(0.139938 0.00437762 0.00852414)
(0.139003 0.0024685 0.0110996)
(0.139871 -0.000260893 0.0119277)
(0.143728 -0.00265955 0.00958377)
(0.149887 -0.00439545 0.00407109)
(0.156205 -0.00170723 0.0076228)
(0.159477 0.000851723 0.00262805)
(0.161831 0.00486027 -0.00207686)
(0.161558 0.00839298 -0.00601426)
(0.158357 0.00944869 -0.00904861)
(0.153687 0.00793261 -0.0107743)
(0.149769 0.00515994 -0.0110874)