/*--------------------------------*- C++ -*----------------------------------*\
| =========                 |                                                 |
| \\      /  F ield         | OpenFOAM: The Open Source CFD Toolbox           |
|  \\    /   O peration     | Version:  2306                                  |
|   \\  /    A nd           | Website:  www.openfoam.com                      |
|    \\/     M anipulation  |                                                 |
\*---------------------------------------------------------------------------*/
FoamFile
{
    version     2.0;
    format      ascii;
    arch        "LSB;label=32;scalar=64";
    class       volScalarField;
    location    "1";
    object      p;
}
// * * * * * * * * * * * * * * * * * * * * * * * * * * * * * * * * * * * * * //

dimensions      [0 2 -2 0 0 0 0];

internalField   nonuniform List<scalar> 
60000
(
6.87399e-05
0.000137679
0.000184295
0.000207542
0.000226784
0.00023871
0.000222436
0.000179344
0.000149752
0.000172807
0.000238442
0.000301672
0.00032174
0.000292186
0.000240778
0.000194323
0.000152962
0.000110545
7.21971e-05
5.36655e-05
7.3847e-05
0.000129105
0.00018343
0.000212521
0.000213494
0.000194373
0.000186866
0.000227446
0.000292596
0.00032483
0.000318697
0.000304295
0.000297069
0.000286639
0.000261503
0.000227062
0.00018286
0.000107482
3.43204e-05
1.94546e-05
6.52719e-05
0.000134765
0.000182364
0.000206221
0.000225421
0.000237147
0.000220629
0.000177109
0.00014719
0.000170279
0.000236612
0.000300756
0.000321469
0.000292319
0.000241194
0.000195054
0.000153689
0.000111144
7.24373e-05
5.35627e-05
7.3645e-05
0.00012899
0.000183184
0.000211762
0.000211843
0.000192278
0.000183889
0.000224915
0.000291102
0.000324481
0.000319166
0.0003058
0.000299037
0.000289058
0.000263977
0.000229567
0.000185636
0.000109391
3.40325e-05
1.71456e-05
5.97785e-05
0.000130986
0.000180231
0.000204841
0.000224168
0.000236156
0.000219866
0.000175695
0.000144024
0.00016604
0.000233444
0.000299733
0.000321901
0.000293272
0.000242156
0.000195864
0.0001542
0.000111513
7.19223e-05
5.27469e-05
7.30831e-05
0.000128825
0.000182821
0.000210825
0.000210313
0.000189876
0.000180032
0.000220544
0.000288283
0.000323197
0.000318772
0.000306645
0.000301195
0.000291517
0.000265716
0.000230993
0.000186917
0.000109313
3.10405e-05
1.18571e-05
5.22155e-05
0.000126377
0.000177949
0.000203449
0.000223021
0.000235739
0.000220057
0.000175218
0.000140899
0.000160471
0.000228618
0.000298312
0.000323228
0.000295355
0.000243814
0.000196834
0.000155021
0.00011128
7.0503e-05
5.12689e-05
7.25129e-05
0.000129144
0.000182833
0.000210053
0.00020877
0.000187205
0.000175182
0.000214856
0.0002846
0.000321057
0.00031712
0.000306662
0.00030352
0.000294537
0.000266815
0.00023169
0.000186521
0.000106957
2.50745e-05
3.78846e-06
4.28079e-05
0.000120482
0.00017466
0.000201447
0.000221455
0.000235159
0.00022076
0.000176208
0.000139729
0.000155437
0.000222524
0.000295425
0.000324675
0.000298494
0.000246371
0.000198345
0.000155772
0.000110548
6.85563e-05
4.90329e-05
7.192e-05
0.000129643
0.000182587
0.000209222
0.000207165
0.000184362
0.000169926
0.000208821
0.000281257
0.000319203
0.000314634
0.000305484
0.000305789
0.000298608
0.000269047
0.000232058
0.000186585
0.000103708
1.71754e-05
-6.35921e-06
3.11497e-05
0.000113134
0.000169298
0.000197302
0.000218638
0.000233591
0.000220455
0.000178222
0.000141527
0.000153919
0.000217641
0.000291285
0.00032503
0.000302118
0.00024991
0.000200658
0.000157001
0.000109618
6.54849e-05
4.50671e-05
6.89474e-05
0.000129531
0.000179556
0.000203429
0.000201747
0.000180159
0.000164051
0.00020265
0.000279047
0.000319622
0.000313733
0.000304185
0.000307798
0.000304067
0.000273678
0.000235817
0.000190137
0.000101769
7.5001e-06
-1.9425e-05
1.22789e-05
0.000103092
0.000162426
0.000190229
0.000212641
0.000230331
0.000218461
0.000177688
0.000144661
0.000157007
0.000217385
0.000288686
0.000324442
0.000305349
0.000254185
0.000203828
0.000158845
0.000108682
6.09725e-05
3.76966e-05
6.19155e-05
0.000126543
0.000177644
0.000194775
0.000187753
0.000167933
0.000153976
0.000194317
0.000276042
0.000322131
0.000317788
0.000307126
0.000311143
0.000309182
0.000279808
0.000243915
0.000203335
0.000110039
7.37533e-07
-3.8019e-05
-1.73062e-05
8.73896e-05
0.00015434
0.000182856
0.000203305
0.000223488
0.000214843
0.000175168
0.000144166
0.000158202
0.000221739
0.000290993
0.000325625
0.000308274
0.000259015
0.000207809
0.000161101
0.000107677
5.54374e-05
2.78981e-05
5.17296e-05
0.000123887
0.000182321
0.000192681
0.000174379
0.000148204
0.00013558
0.000181023
0.000270515
0.000320859
0.000318428
0.000314848
0.000320374
0.00031445
0.000280947
0.000248749
0.000223626
0.000132803
4.28731e-06
-5.45402e-05
-4.16691e-05
6.50015e-05
0.000144503
0.000175399
0.000192561
0.000213121
0.000209385
0.000172833
0.00014374
0.000154428
0.000215695
0.000293059
0.000330015
0.000311927
0.000264336
0.000213073
0.000163936
0.000106131
4.98646e-05
2.07305e-05
4.64957e-05
0.000128531
0.000199372
0.000206399
0.000172009
0.000127366
0.000110037
0.000162211
0.000263318
0.00031813
0.000313762
0.00031185
0.000323455
0.000318355
0.000277853
0.000243693
0.000241027
0.000166529
2.06844e-05
-6.64293e-05
-6.70742e-05
3.62661e-05
0.000131551
0.000167548
0.000181988
0.00020095
0.000202386
0.00017054
0.000142659
0.000149895
0.000202335
0.000279074
0.000326526
0.000314134
0.000268944
0.000219272
0.00016851
0.000104497
4.3642e-05
1.7538e-05
5.13914e-05
0.000146883
0.000233578
0.000239838
0.000185163
0.000118213
8.35979e-05
0.000139833
0.000251175
0.000310662
0.00030455
0.000307156
0.000321853
0.00031796
0.000274218
0.000231618
0.000249004
0.000204962
5.17353e-05
-6.86145e-05
-8.30284e-05
1.45322e-06
0.000111877
0.000159254
0.000173696
0.000190293
0.000196187
0.000169657
0.000142469
0.000144731
0.000188121
0.000257644
0.000306275
0.000303565
0.00026508
0.000222948
0.000174835
0.000106209
3.8816e-05
1.67311e-05
6.2659e-05
0.00017353
0.000282038
0.000294953
0.000218891
0.000123385
6.76983e-05
0.000119777
0.000230929
0.000293965
0.000287713
0.000299874
0.000323294
0.000320545
0.000275229
0.000219736
0.000250847
0.000240687
9.80074e-05
-5.36479e-05
-8.04061e-05
-2.21232e-05
8.84722e-05
0.000148031
0.000167486
0.000182881
0.000191556
0.000170296
0.000143432
0.000142595
0.000178526
0.000238169
0.000279765
0.000273805
0.000242475
0.000213451
0.000177286
0.000113159
4.46799e-05
2.41373e-05
7.8311e-05
0.000197046
0.000325984
0.000360857
0.000275372
0.000153386
8.05127e-05
0.000109183
0.000205
0.000267233
0.000261956
0.000292291
0.000327347
0.000330341
0.000285328
0.000210193
0.000254292
0.000267323
0.000152779
-1.76651e-05
-5.68785e-05
-2.66287e-05
6.48545e-05
0.000134519
0.000160737
0.000175965
0.000186931
0.000171101
0.000143717
0.000141089
0.000173342
0.00022656
0.000259289
0.000241245
0.00020232
0.000188044
0.00017073
0.000119352
6.17732e-05
5.10554e-05
9.83942e-05
0.000208226
0.000344249
0.000411207
0.000340509
0.000205589
0.000114364
0.000119187
0.000183312
0.000237762
0.000252398
0.000285798
0.00033168
0.000342209
0.000303112
0.000230338
0.00026102
0.000281225
0.000202724
3.58624e-05
-1.27415e-05
-8.65608e-06
5.77697e-05
0.000123637
0.000156326
0.000169187
0.000179022
0.000170286
0.000144765
0.000139044
0.000169629
0.000221485
0.000252685
0.000226791
0.000176703
0.000165436
0.000159393
0.000118406
7.43492e-05
7.78784e-05
0.000114892
0.000203102
0.00033108
0.000422895
0.000388943
0.000261966
0.000158633
0.000133618
0.000165754
0.000210903
0.000242382
0.000288666
0.000333088
0.000350707
0.000320687
0.000270586
0.000266607
0.000280942
0.000235522
9.61429e-05
4.89059e-05
3.09613e-05
6.75711e-05
0.000121721
0.00015758
0.000166845
0.000169028
0.000165007
0.000145612
0.00013734
0.000165615
0.000216186
0.000253441
0.00023369
0.000184663
0.00016351
0.000157075
0.000118919
7.48639e-05
8.56358e-05
0.00012547
0.000187113
0.000293522
0.000398644
0.000409031
0.000305651
0.000197926
0.000145956
0.000149036
0.000187773
0.000231114
0.000281185
0.000326841
0.000350264
0.00033117
0.000292969
0.000268532
0.000267423
0.000249735
0.000151978
0.000113642
8.19017e-05
8.83681e-05
0.000126214
0.000164215
0.000171261
0.000158087
0.00014986
0.000142038
0.000139308
0.000163433
0.000209287
0.000249982
0.000241677
0.000205751
0.000177035
0.000163635
0.000122044
7.04307e-05
8.59009e-05
0.000143931
0.000184496
0.000254704
0.000357165
0.000401786
0.000333127
0.000234003
0.000160892
0.000137294
0.000168909
0.000214798
0.000259739
0.00030577
0.000341404
0.000338885
0.000304387
0.000266551
0.000252672
0.000250652
0.000192767
0.000162476
0.000126947
0.000114964
0.00013729
0.000172228
0.000172829
0.000150677
0.000132211
0.000128371
0.000136283
0.000159419
0.000203323
0.000241351
0.000243132
0.000216538
0.000186651
0.000170938
0.000130652
7.56145e-05
9.2767e-05
0.000167311
0.000203479
0.000236609
0.000314298
0.000367725
0.000334296
0.00025791
0.000183659
0.000144148
0.000156671
0.00019658
0.00024897
0.00028969
0.00032082
0.000332443
0.000309897
0.000263751
0.000231187
0.000246141
0.000217281
0.000188624
0.000165295
0.000146714
0.000153156
0.000178824
0.000175035
0.000143767
0.000114826
0.000108908
0.000124031
0.000149138
0.000193471
0.000241582
0.000255172
0.000225835
0.000191334
0.000174561
0.00014049
8.73402e-05
0.000107563
0.00017637
0.00021628
0.000232189
0.000286421
0.00033115
0.000321392
0.000261825
0.000191271
0.000150465
0.000159505
0.000196181
0.00024464
0.000289098
0.000318081
0.000327877
0.000301583
0.000251446
0.000220966
0.000223905
0.000216073
0.000189127
0.000174499
0.000168475
0.000177728
0.000190446
0.000176503
0.000139904
0.000103675
9.0038e-05
9.83836e-05
0.000123339
0.000165917
0.000223551
0.000257292
0.000239136
0.000208478
0.000190919
0.000168568
0.000131222
0.000123578
0.000172139
0.000208931
0.000223284
0.000275225
0.000322002
0.000314359
0.000251867
0.000187833
0.000156699
0.00016546
0.000192979
0.000232585
0.000282188
0.000316355
0.000320165
0.000291079
0.000238703
0.000197497
0.000189645
0.000200483
0.000173701
0.000170926
0.00016842
0.000177538
0.000188383
0.000176862
0.000144989
0.000114223
9.38165e-05
8.53191e-05
9.51016e-05
0.000121501
0.000171198
0.000221099
0.000227618
0.000204716
0.000196544
0.000199895
0.000171438
0.000138904
0.000153104
0.000186165
0.000204457
0.000260833
0.000318232
0.000306204
0.000235706
0.000170625
0.00014346
0.00015204
0.000177301
0.000214158
0.0002634
0.000302139
0.000303058
0.000273618
0.000230643
0.00018749
0.000159499
0.000170665
0.000143159
0.000157503
0.000173098
0.000184393
0.00018586
0.00016781
0.000141301
0.000121784
0.00010636
9.49771e-05
8.62719e-05
9.64858e-05
0.000124396
0.000166881
0.000196916
0.000196594
0.000190053
0.000196978
0.000189979
0.000155759
0.000139441
0.000163702
0.000205263
0.000262213
0.000314808
0.000303264
0.000220749
0.000131236
9.77588e-05
0.00011295
0.000154389
0.000202599
0.000249612
0.000284063
0.000289246
0.000269354
0.000241647
0.000202547
0.000163058
0.000143025
0.000145561
0.000148724
0.000162882
0.000177582
0.000179183
0.000164935
0.000144937
0.000127719
0.000113867
0.000103096
9.99258e-05
0.000105534
0.00011492
0.000131537
0.000156945
0.000179575
0.000191872
0.000197897
0.000193137
0.000168569
0.000154217
0.000169418
0.000202341
0.000254401
0.000310426
0.000307581
0.000229501
0.000129947
7.25373e-05
7.90582e-05
0.000127917
0.000190441
0.000248144
0.000281752
0.000279462
0.000253304
0.000242304
0.000240226
0.000215966
0.000174155
0.00017185
0.000148776
0.000145602
0.000152594
0.000156972
0.000156472
0.000153125
0.000142394
0.000125083
0.000112965
0.000117361
0.000126404
0.000134794
0.000141224
0.000152011
0.000171463
0.000191331
0.000200089
0.000196452
0.000183498
0.00017468
0.000181612
0.000203838
0.000240617
0.00028232
0.00028745
0.000232883
0.000153978
0.000100772
9.53298e-05
0.000130124
0.000182615
0.000234836
0.000264617
0.000262664
0.000244825
0.000240635
0.000241929
0.000227011
0.000198037
0.000147105
0.000116263
0.000116149
0.000129281
0.000145073
0.000157905
0.000166222
0.000163291
0.000148525
0.000136422
0.000134148
0.000134054
0.000134948
0.000146683
0.000165522
0.000175755
0.000195299
0.000209015
0.000211259
0.000199803
0.000187239
0.000182277
0.000187753
0.000209162
0.000243283
0.000261763
0.000233606
0.00017294
0.000122911
0.000111714
0.000131425
0.000169764
0.000211458
0.000240231
0.000243997
0.000236904
0.00023851
0.000244844
0.000233015
0.00019431
0.000139759
9.52671e-05
8.62503e-05
0.000103227
0.000129337
0.000152262
0.000166758
0.00016798
0.000155481
0.000141692
0.000141439
0.000152001
0.000158065
0.000156358
0.000161345
0.000183335
0.000214563
0.000237348
0.000242446
0.000226178
0.000195569
0.000174217
0.00016766
0.000171956
0.000193064
0.00022833
0.000228258
0.000191231
0.00015059
0.000134419
0.00014286
0.000167089
0.0001961
0.000219301
0.000231031
0.000239721
0.000246679
0.000249128
0.00023253
0.000193056
-3.7918e-05
-4.35356e-08
6.46746e-05
0.0001283
0.000180322
0.000207963
0.000197031
0.000157898
0.000132074
0.000155054
0.000211873
0.000255142
0.000256902
0.000226552
0.000195016
0.000177426
0.000160721
0.000129046
8.91178e-05
6.49197e-05
8.14295e-05
0.00014849
0.000233421
0.000292689
0.000313177
0.00031446
0.000309276
0.000310105
0.000328578
0.000348808
0.000362427
0.000373426
0.000377045
0.000363542
0.000335784
0.000323033
0.000300519
0.00021784
8.71407e-05
-9.71467e-06
-3.84913e-05
-1.86313e-06
6.16573e-05
0.00012532
0.00017797
0.00020629
0.000195513
0.00015636
0.000130275
0.000153346
0.000210804
0.000254624
0.0002566
0.000226239
0.000194721
0.000177337
0.000160977
0.000129347
8.92814e-05
6.44151e-05
7.97378e-05
0.000145626
0.000229709
0.000288634
0.000309232
0.000311207
0.000307089
0.000308681
0.000327229
0.000347181
0.000360843
0.000372575
0.000377321
0.000364644
0.000337352
0.000325071
0.000303449
0.00022156
9.00076e-05
-8.12434e-06
-4.2314e-05
-5.91662e-06
5.77796e-05
0.000122107
0.00017595
0.000205302
0.000194716
0.000154859
0.000127539
0.000150341
0.000208928
0.000253853
0.000256103
0.000225519
0.000193958
0.000177033
0.000161381
0.000129775
8.9335e-05
6.35724e-05
7.77278e-05
0.000142984
0.000226811
0.000285627
0.000306031
0.000308396
0.000305402
0.000307702
0.000325822
0.00034468
0.000357823
0.000370813
0.000377969
0.000366522
0.000339084
0.000327147
0.000307191
0.000225705
9.10995e-05
-9.58933e-06
-5.0383e-05
-1.22202e-05
5.30132e-05
0.000118537
0.000173909
0.000204674
0.000194444
0.000153682
0.000124193
0.000146051
0.000205892
0.000252593
0.000255329
0.000224231
0.000192499
0.000176349
0.000161284
0.000130203
8.92385e-05
6.26093e-05
7.61355e-05
0.000141916
0.000226298
0.000285118
0.000304735
0.000306677
0.000304317
0.000307149
0.000324731
0.000341967
0.000353632
0.000367393
0.00037803
0.000369335
0.000340689
0.000328761
0.000311691
0.000229755
9.04867e-05
-1.55844e-05
-6.2872e-05
-2.10176e-05
4.68249e-05
0.000113774
0.000170855
0.000203579
0.000195342
0.000153654
0.000122415
0.00014197
0.000201777
0.000250189
0.000254054
0.000222383
0.00019019
0.000175041
0.000161074
0.000130493
8.88228e-05
6.14343e-05
7.4786e-05
0.000142232
0.000227729
0.000286396
0.000304995
0.000306215
0.000303882
0.000306824
0.000324248
0.000340249
0.000349601
0.000362305
0.000375649
0.000369543
0.000341291
0.000331358
0.000316926
0.000234386
8.90535e-05
-2.61447e-05
-7.96061e-05
-3.21093e-05
3.87858e-05
0.000106223
0.00016475
0.000200194
0.00019425
0.000154571
0.000123706
0.000141614
0.000198908
0.000246633
0.000251892
0.000220421
0.000187548
0.000173291
0.000160784
0.000130683
8.78756e-05
5.92542e-05
7.31146e-05
0.000141283
0.000227942
0.000285295
0.000302182
0.0003042
0.000303425
0.000306508
0.000324329
0.000340593
0.000348086
0.000357545
0.000370627
0.000365577
0.000339471
0.000333749
0.000326229
0.000240992
8.70707e-05
-4.00144e-05
-9.9613e-05
-4.54031e-05
3.00873e-05
9.6605e-05
0.000154255
0.000192488
0.000189765
0.000153232
0.00012524
0.000144775
0.000200586
0.000244525
0.000248948
0.000218451
0.00018545
0.000171908
0.000160835
0.000131056
8.62835e-05
5.41579e-05
6.56868e-05
0.000134169
0.000222577
0.000278659
0.000291355
0.000292568
0.000296627
0.000303279
0.000323697
0.000342776
0.00035049
0.000355973
0.000365298
0.000357067
0.000330598
0.000333638
0.00033991
0.000256151
9.06441e-05
-5.0988e-05
-0.000116914
-6.03405e-05
2.02734e-05
8.76714e-05
0.000142456
0.000181818
0.000183349
0.000150538
0.000124275
0.000142261
0.00019939
0.000244241
0.000247001
0.000216666
0.000183963
0.000171233
0.000161436
0.000131552
8.3949e-05
4.54257e-05
4.96026e-05
0.0001164
0.000209904
0.000267574
0.000273519
0.00027175
0.000278399
0.000291335
0.000318062
0.00034202
0.000353709
0.000358255
0.000363201
0.000347676
0.000315405
0.000326037
0.000356003
0.000281751
0.000106203
-5.20495e-05
-0.00011702
-7.38231e-05
9.11622e-06
7.89105e-05
0.000131459
0.000170985
0.000176947
0.000148604
0.000123862
0.000136843
0.000189324
0.000236718
0.000243785
0.000215289
0.000182987
0.00017101
0.000162103
0.000131409
8.08896e-05
3.60639e-05
3.01762e-05
9.09353e-05
0.000190036
0.000254668
0.000256478
0.000248339
0.000252044
0.000269082
0.000306234
0.000339211
0.000352352
0.000353861
0.000361716
0.000342959
0.000300626
0.000311051
0.000368607
0.000317383
0.00013556
-4.06984e-05
-0.000110141
-8.54701e-05
-3.60138e-06
6.98042e-05
0.000121781
0.000161067
0.000171493
0.000146573
0.000123198
0.000132346
0.000178296
0.000222782
0.00023362
0.000211402
0.000181716
0.000170945
0.000162515
0.000129855
7.71067e-05
3.17436e-05
2.07319e-05
7.30332e-05
0.000172241
0.000243173
0.000244062
0.000223323
0.000222807
0.000238836
0.000287745
0.000334244
0.000352712
0.000350215
0.000357818
0.000342042
0.000295306
0.000296862
0.000373538
0.000356509
0.000178548
-1.79717e-05
-0.000100358
-9.42258e-05
-2.00791e-05
5.90598e-05
0.000113741
0.000154683
0.000168038
0.000145109
0.000122227
0.000128525
0.000168391
0.000208589
0.00021741
0.000198974
0.000174612
0.000168763
0.000162324
0.000127165
7.19009e-05
3.14882e-05
2.68129e-05
7.56985e-05
0.00017032
0.000241952
0.000240115
0.000208797
0.000198176
0.000206043
0.000262541
0.00032407
0.000353667
0.000350771
0.00035571
0.00035038
0.000303867
0.000295451
0.000375872
0.000391211
0.000231687
1.82443e-05
-7.63725e-05
-9.67481e-05
-3.86284e-05
4.33165e-05
0.000104703
0.000150626
0.000167791
0.000145131
0.000119344
0.000122633
0.000160185
0.000197844
0.00020211
0.000181199
0.00015887
0.000159007
0.000158459
0.000125298
6.73642e-05
3.2697e-05
4.28582e-05
9.63752e-05
0.000184816
0.000254738
0.000249495
0.000209113
0.000181732
0.000180406
0.000232177
0.000303104
0.000351674
0.000350436
0.000355944
0.000357837
0.000323877
0.000308273
0.000381126
0.000417981
0.00028701
6.91229e-05
-3.49428e-05
-8.4263e-05
-4.68384e-05
2.76903e-05
9.56737e-05
0.000145178
0.000167633
0.000146129
0.000116186
0.000115937
0.000155425
0.000194773
0.000195218
0.000166636
0.000141493
0.000143216
0.000151664
0.000125238
6.71094e-05
3.69156e-05
6.00195e-05
0.000116644
0.000196934
0.000270274
0.000269347
0.000224091
0.000186101
0.000173577
0.00020498
0.000270817
0.000321946
0.000348168
0.000355277
0.000364514
0.000339367
0.000329045
0.000380226
0.000431097
0.00033296
0.000127859
1.90275e-05
-5.09367e-05
-3.83453e-05
2.18919e-05
8.56025e-05
0.000137789
0.000165188
0.00014748
0.000115166
0.000112766
0.000155939
0.00019937
0.000200223
0.000165834
0.000135304
0.000137782
0.000148434
0.00012696
7.48628e-05
5.379e-05
7.79691e-05
0.000124277
0.000191321
0.000270327
0.00028769
0.00024785
0.000201968
0.00018312
0.000190365
0.000237882
0.000286038
0.000318838
0.000344229
0.000364134
0.000348537
0.000324493
0.000364154
0.000419556
0.000358073
0.000182408
8.07123e-05
6.91969e-07
-1.00952e-05
2.90481e-05
8.51048e-05
0.000130188
0.000158568
0.000146014
0.000118525
0.000114754
0.000158844
0.00020474
0.000210866
0.00018434
0.000156122
0.000148484
0.000146849
0.000119702
7.37723e-05
6.7471e-05
9.67768e-05
0.000129995
0.000182035
0.000260669
0.000301916
0.000273771
0.000225831
0.000194216
0.000185085
0.000211572
0.000254768
0.000291919
0.000322493
0.000351726
0.000347465
0.000323606
0.000338431
0.000381842
0.000358109
0.000227017
0.000144054
6.88763e-05
4.03975e-05
5.26373e-05
8.90369e-05
0.000117822
0.000145045
0.000136083
0.000119448
0.000122689
0.000162976
0.000209301
0.000222639
0.000202916
0.000176947
0.000162929
0.000146725
9.68545e-05
5.88458e-05
6.93064e-05
0.000117778
0.000145542
0.000180641
0.000249563
0.000309528
0.000300043
0.000246406
0.000198743
0.000178132
0.000196614
0.000234578
0.000270359
0.00030444
0.000340796
0.000352348
0.00032646
0.000316344
0.000340197
0.000337644
0.000255782
0.000189905
0.000131424
0.000106773
0.000104141
0.000113491
0.00011855
0.00012315
0.000119406
0.000111402
0.000122832
0.000163793
0.00021215
0.000231679
0.000216373
0.000192882
0.000173131
0.000152739
0.000107023
6.16542e-05
7.217e-05
0.000136778
0.000173561
0.000185763
0.000239813
0.000303758
0.000308325
0.000255957
0.000203346
0.000176837
0.000185893
0.000222832
0.000260598
0.00029578
0.000328773
0.000352215
0.000330844
0.000299561
0.000303502
0.000315823
0.000272407
0.000224359
0.000180375
0.00016244
0.00015609
0.000148485
0.000128545
0.000113315
0.000102129
9.24582e-05
0.00011022
0.000157982
0.000210946
0.000239357
0.000232282
0.000207748
0.000177172
0.000157425
0.000127191
8.19121e-05
8.02745e-05
0.000140359
0.000192044
0.00020701
0.00024463
0.0002941
0.000304381
0.000258555
0.000204008
0.000176068
0.000181501
0.000210644
0.000250421
0.000291921
0.000327664
0.000343921
0.000321342
0.000275692
0.000270789
0.000281264
0.000271666
0.000230116
0.000198866
0.000194299
0.000204018
0.000190209
0.000149103
0.00010845
9.06417e-05
7.9488e-05
8.74701e-05
0.000121704
0.000177125
0.000227839
0.00025133
0.000230228
0.000185892
0.000164735
0.000148692
0.000116702
9.87179e-05
0.000130819
0.000184195
0.000215768
0.00026024
0.000296763
0.000295082
0.0002489
0.000201266
0.00017866
0.000181363
0.000201653
0.000236105
0.000278257
0.000315698
0.000327346
0.00030514
0.000254236
0.000214639
0.000230519
0.000249866
0.000218737
0.000207415
0.000199766
0.000199338
0.00019405
0.000170235
0.000129464
9.74032e-05
7.74133e-05
6.9917e-05
8.62286e-05
0.000124703
0.00017206
0.00021269
0.000226196
0.000209959
0.000181535
0.000174684
0.000154131
0.000118925
0.000116397
0.000153333
0.000196704
0.000251988
0.000295599
0.000285748
0.000232517
0.000190086
0.000176111
0.000182509
0.000201195
0.000227671
0.000260639
0.000292689
0.000300612
0.000282588
0.00024486
0.000203568
0.000201059
0.000213497
0.000192741
0.000196495
0.000200338
0.000209265
0.000203863
0.00017138
0.00013212
0.000107464
8.85629e-05
7.06428e-05
6.44652e-05
8.19283e-05
0.000114494
0.000152328
0.000184149
0.000195928
0.000190987
0.00018575
0.000170551
0.000139767
0.000124324
0.000147922
0.000193488
0.000247826
0.00028566
0.000271776
0.000217454
0.000168311
0.000148237
0.000162473
0.000195445
0.000230815
0.000258042
0.000275303
0.000278123
0.000272014
0.000254666
0.00021608
0.000183251
0.00018084
0.000181031
0.000189051
0.000198039
0.00020752
0.000200431
0.000170908
0.000138087
0.000118334
0.000109058
9.74692e-05
8.65275e-05
8.29464e-05
8.91285e-05
0.000103706
0.00012847
0.000157164
0.000176928
0.000183765
0.000176681
0.000160132
0.00015279
0.000166717
0.000197499
0.000239476
0.000274502
0.000270771
0.000220152
0.00015947
0.000124366
0.000131368
0.000172959
0.000222402
0.00025915
0.000275444
0.000267668
0.000250482
0.000250723
0.000248589
0.000220546
0.000191353
0.000185519
0.000179094
0.000182588
0.000183778
0.000176355
0.000160694
0.000147347
0.000136416
0.000125072
0.000119819
0.000128374
0.000131951
0.000132306
0.000126846
0.000126715
0.000141441
0.000164419
0.000177401
0.000172834
0.000160326
0.000158587
0.000173292
0.000198121
0.000227974
0.000255772
0.000258225
0.000221483
0.000165509
0.000124684
0.000121636
0.000154545
0.000202303
0.000245092
0.000263745
0.000256755
0.000244016
0.00024501
0.000249133
0.000232488
0.000204019
0.000167483
0.000149164
0.000145787
0.000146105
0.000149234
0.00015174
0.000158182
0.000160251
0.000149495
0.000136176
0.000128448
0.00013462
0.000141749
0.000150531
0.000159259
0.000167023
0.000179308
0.000187517
0.000187135
0.000178678
0.000171996
0.000172794
0.000184648
0.000205579
0.000228974
0.000240456
0.000221607
0.000175077
0.000133212
0.00012599
0.000148977
0.000184156
0.000218639
0.000241869
0.00024264
0.000235083
0.000239544
0.000248623
0.000236736
0.000202043
0.000146776
0.000108603
9.14802e-05
0.000102561
0.000122925
0.000145357
0.000163053
0.000169481
0.000160394
0.000145185
0.000141481
0.000150386
0.000157692
0.000158731
0.000164715
0.000184097
0.000209328
0.000222117
0.000225236
0.000209555
0.00018291
0.000165052
0.000164932
0.000176844
0.00019774
0.000220596
0.000220279
0.000189303
0.000157417
0.000152239
0.000165598
0.000182058
0.000199792
0.000216744
0.000227345
0.000236856
0.000247833
0.000252808
0.000236698
0.000196371
4.58334e-05
2.60256e-05
4.22607e-05
7.4743e-05
0.000119619
0.000164275
0.000180861
0.000160414
0.000131828
0.000133976
0.000166132
0.000192224
0.00019015
0.000171521
0.00016096
0.000160762
0.000153308
0.000130281
0.000106248
9.71343e-05
0.000114628
0.000168715
0.000243231
0.000300996
0.00032293
0.000324254
0.000313447
0.00031178
0.000335134
0.000368007
0.00040383
0.000435054
0.000439776
0.000415425
0.000372031
0.000345237
0.000316444
0.000261852
0.000190852
0.000111913
4.65188e-05
2.64212e-05
4.22279e-05
7.44553e-05
0.000119109
0.000163809
0.000180761
0.000160681
0.000132176
0.000134238
0.00016644
0.000192603
0.000190342
0.000171443
0.000160717
0.000160605
0.000153117
0.000129886
0.000105435
9.59691e-05
0.000113125
0.000166854
0.000241136
0.000298764
0.000320277
0.000321427
0.000310314
0.000307767
0.000330297
0.000362938
0.00039918
0.000432192
0.000438794
0.000416306
0.000372874
0.000346932
0.000319213
0.000264797
0.000193819
0.000113801
4.66644e-05
2.50218e-05
4.08109e-05
7.30611e-05
0.000117739
0.000162907
0.000180664
0.00016097
0.000132037
0.000133553
0.000165882
0.000192309
0.00018984
0.000170611
0.000160027
0.000160519
0.00015322
0.000129694
0.000104628
9.47409e-05
0.000111467
0.00016485
0.000239344
0.00029724
0.000318319
0.000319542
0.000308296
0.000304499
0.000325131
0.00035602
0.000392018
0.000428485
0.00043892
0.000418849
0.000375481
0.000349726
0.000322922
0.000268015
0.000196689
0.000114505
4.43249e-05
2.10844e-05
3.72472e-05
6.96684e-05
0.000114616
0.00016081
0.000179858
0.000160525
0.000130636
0.000131067
0.00016358
0.000190595
0.000187981
0.000168404
0.000158456
0.000160406
0.000153858
0.000129899
0.000103948
9.36895e-05
0.000110289
0.000163787
0.000239165
0.000297692
0.000317929
0.000319132
0.000307888
0.000302934
0.00032147
0.000349118
0.000382998
0.000423446
0.000440491
0.000423767
0.000380372
0.000354902
0.000328107
0.00027146
0.000197591
0.00011328
3.98128e-05
1.47923e-05
3.14861e-05
6.39368e-05
0.000109123
0.000156752
0.000177605
0.000158782
0.000127646
0.000126364
0.000158652
0.000186369
0.000183836
0.000163995
0.000155184
0.000159648
0.000154657
0.000130349
0.000103056
9.23376e-05
0.000109289
0.000163652
0.000240951
0.000300633
0.000319673
0.000320023
0.000308548
0.000303088
0.000321017
0.000345277
0.000373952
0.000416328
0.000442238
0.000430579
0.000387819
0.000362679
0.000335511
0.00027558
0.000196278
0.000110436
3.47939e-05
6.56747e-06
2.36347e-05
5.56941e-05
0.000100866
0.000150192
0.000173334
0.000155606
0.000123581
0.000120132
0.000151023
0.000178565
0.000176211
0.000156467
0.000149303
0.000157463
0.000155227
0.000130856
0.00010182
9.00321e-05
0.000106489
0.00016102
0.000241487
0.000303734
0.000323281
0.000322427
0.000309101
0.000303412
0.000323777
0.000347473
0.000368715
0.000408256
0.000442153
0.000437585
0.000397754
0.000373984
0.000346454
0.000281349
0.000195481
0.000106612
2.93414e-05
-3.06979e-06
1.40774e-05
4.48641e-05
8.90175e-05
0.000139893
0.000166087
0.000150737
0.00011946
0.000114579
0.000142966
0.000167894
0.000164541
0.000145266
0.000140468
0.000153495
0.000155492
0.000131724
0.000100748
8.67557e-05
0.000100159
0.000151573
0.000233688
0.000299924
0.000322873
0.000325027
0.000308619
0.000300336
0.000325257
0.000355132
0.000370664
0.000402154
0.000439176
0.000440929
0.00040888
0.000390035
0.000363364
0.000290833
0.000196227
0.000101626
2.5785e-05
-1.23384e-05
3.97705e-06
3.3248e-05
7.45504e-05
0.000124133
0.000154419
0.000142391
0.000114038
0.000111005
0.000136441
0.000157476
0.000151348
0.000131816
0.000129722
0.000148533
0.000155959
0.000133368
0.000100275
8.26468e-05
8.91429e-05
0.000133231
0.000215749
0.000286805
0.000313593
0.000320758
0.000305974
0.000292793
0.000317542
0.000354853
0.000376166
0.000399673
0.000434369
0.000436185
0.000417225
0.000410046
0.000389167
0.000307659
0.000200652
9.91137e-05
1.76744e-05
-1.97293e-05
-4.53006e-06
2.27596e-05
6.10845e-05
0.000107941
0.000139686
0.000130176
0.000104419
0.000102196
0.000125464
0.000142408
0.000136277
0.000118608
0.000119336
0.000143984
0.000157047
0.000135546
0.000100146
7.80061e-05
7.39994e-05
0.000105388
0.000186832
0.000266498
0.0002975
0.000306971
0.000297624
0.000282755
0.000305172
0.000341194
0.000363692
0.000392571
0.000426662
0.000429354
0.000417813
0.000428505
0.000424133
0.000336172
0.000212638
0.000100294
1.58239e-05
-2.42409e-05
-7.85823e-06
1.57342e-05
5.28529e-05
9.51504e-05
0.000126093
0.000116943
9.09199e-05
8.82454e-05
0.000108947
0.000120079
0.00011187
9.93958e-05
0.000106899
0.000139069
0.00015804
0.000137174
9.97697e-05
7.49924e-05
6.05393e-05
7.43116e-05
0.000148737
0.000239776
0.00027925
0.000289373
0.000282043
0.000268123
0.00028926
0.000326214
0.000339586
0.000363381
0.000407994
0.000419184
0.00040558
0.000437713
0.000461813
0.000377357
0.000237399
0.000109687
2.46705e-05
-2.54613e-05
-1.23244e-05
2.66917e-05
5.30617e-05
9.34901e-05
0.000120128
0.000106561
7.78142e-05
7.32054e-05
9.0699e-05
9.86103e-05
8.9367e-05
7.8436e-05
8.95055e-05
0.000129754
0.000157122
0.000138434
9.91249e-05
7.50105e-05
5.83032e-05
5.61664e-05
0.00011363
0.000210483
0.000263753
0.000276828
0.000266193
0.000249736
0.000270486
0.000311009
0.00032306
0.000327024
0.000373615
0.000401363
0.000393623
0.000431733
0.000488293
0.000425247
0.000276827
0.000133805
4.95267e-05