/*--------------------------------*- C++ -*----------------------------------*\
| =========                 |                                                 |
| \\      /  F ield         | OpenFOAM: The Open Source CFD Toolbox           |
|  \\    /   O peration     | Version:  2306                                  |
|   \\  /    A nd           | Website:  www.openfoam.com                      |
|    \\/     M anipulation  |                                                 |
\*---------------------------------------------------------------------------*/
FoamFile
{
    version     2.0;
    format      ascii;
    arch        "LSB;label=32;scalar=64";
    class       volScalarField;
    location    "1";
    object      pPrime2Mean;
}
// * * * * * * * * * * * * * * * * * * * * * * * * * * * * * * * * * * * * * //

dimensions      [0 4 -4 0 0 0 0];

internalField   nonuniform List<scalar> 
60000
(
1.32175e-10
2.54942e-10
2.95441e-10
2.95191e-10
4.23504e-10
7.40277e-10
1.15888e-09
1.00622e-09
3.71212e-10
2.88867e-10
3.81483e-10
6.10364e-10
1.3622e-09
1.77948e-09
1.57262e-09
1.32816e-09
1.31887e-09
1.18961e-09
8.03465e-10
3.51307e-10
2.56057e-10
4.20346e-10
6.06828e-10
8.41172e-10
9.60294e-10
6.57315e-10
1.82673e-10
6.19273e-10
7.35129e-10
9.06366e-10
9.67877e-10
8.33587e-10
6.35984e-10
7.1086e-10
1.07227e-09
1.48155e-09
2.63901e-09
2.62313e-09
8.82446e-10
6.59239e-11
1.34413e-10
2.48409e-10
2.90045e-10
2.94082e-10
4.2178e-10
7.48986e-10
1.17596e-09
1.01354e-09
3.7208e-10
2.81464e-10
3.7274e-10
5.97686e-10
1.35409e-09
1.78236e-09
1.58214e-09
1.33336e-09
1.32003e-09
1.19443e-09
8.05178e-10
3.48167e-10
2.54475e-10
4.20415e-10
6.11075e-10
8.51654e-10
9.63106e-10
6.70514e-10
1.76384e-10
6.15681e-10
7.31673e-10
9.02396e-10
9.68231e-10
8.46099e-10
6.4638e-10
7.12564e-10
1.07074e-09
1.44962e-09
2.64342e-09
2.67311e-09
9.19794e-10
6.71427e-11
1.50671e-10
2.54392e-10
2.91722e-10
2.98354e-10
4.23567e-10
7.47864e-10
1.19092e-09
1.05387e-09
3.93228e-10
2.90316e-10
3.80364e-10
5.84537e-10
1.34824e-09
1.79781e-09
1.60333e-09
1.33982e-09
1.32137e-09
1.20204e-09
8.01622e-10
3.40512e-10
2.5085e-10
4.21965e-10
6.20359e-10
8.63949e-10
9.74575e-10
6.92806e-10
1.77733e-10
6.2489e-10
7.40777e-10
9.04203e-10
9.61785e-10
8.38345e-10
6.3674e-10
7.08331e-10
1.05242e-09
1.44047e-09
2.68148e-09
2.7492e-09
9.59059e-10
6.6607e-11
1.63027e-10
2.57695e-10
2.90691e-10
2.99829e-10
4.17774e-10
7.36554e-10
1.19767e-09
1.10677e-09
4.27375e-10
2.93388e-10
3.86353e-10
5.5577e-10
1.33669e-09
1.82753e-09
1.64187e-09
1.35774e-09
1.34305e-09
1.21724e-09
7.93532e-10
3.26651e-10
2.42941e-10
4.21044e-10
6.33148e-10
8.81895e-10
9.87355e-10
7.21846e-10
1.75233e-10
6.29053e-10
7.49104e-10
9.15902e-10
9.59662e-10
8.32616e-10
6.34581e-10
7.25974e-10
1.03234e-09
1.47478e-09
2.75609e-09
2.84539e-09
9.93842e-10
5.96438e-11
1.75957e-10
2.66504e-10
2.88944e-10
2.99405e-10
4.10374e-10
7.19371e-10
1.18322e-09
1.13858e-09
4.72795e-10
2.93227e-10
3.98093e-10
5.15582e-10
1.30488e-09
1.86369e-09
1.69565e-09
1.39121e-09
1.37614e-09
1.24298e-09
7.8844e-10
3.07283e-10
2.32714e-10
4.20873e-10
6.46323e-10
9.03221e-10
1.00143e-09
7.44622e-10
1.69674e-10
6.43503e-10
7.65592e-10
9.44313e-10
9.67148e-10
8.26438e-10
6.25232e-10
7.45304e-10
1.04325e-09
1.52221e-09
2.8959e-09
2.97182e-09
1.02787e-09
4.90046e-11
1.84557e-10
2.67991e-10
2.9123e-10
2.94814e-10
3.99713e-10
7.08449e-10
1.15079e-09
1.12227e-09
4.97992e-10
2.91732e-10
4.00332e-10
4.80925e-10
1.24032e-09
1.88754e-09
1.76126e-09
1.43981e-09
1.42784e-09
1.28501e-09
7.89636e-10
2.85549e-10
2.15662e-10
4.15322e-10
6.63102e-10
9.05816e-10
9.75083e-10
7.50129e-10
1.62053e-10
6.80494e-10
7.7722e-10
9.77216e-10
9.91981e-10
8.38466e-10
6.1482e-10
7.56776e-10
1.05101e-09
1.57609e-09
3.23786e-09
3.17424e-09
1.07144e-09
3.5203e-11
2.21036e-10
2.66473e-10
2.9496e-10
2.92333e-10
3.80601e-10
7.03139e-10
1.14029e-09
1.0549e-09
4.81463e-10
2.98569e-10
4.04838e-10
4.69884e-10
1.17049e-09
1.88387e-09
1.83354e-09
1.50174e-09
1.50018e-09
1.35789e-09
8.15939e-10
2.6212e-10
1.90412e-10
3.82317e-10
6.92645e-10
9.37391e-10
9.16327e-10
6.90695e-10
1.45032e-10
7.41715e-10
8.30712e-10
1.00233e-09
1.01832e-09
8.58147e-10
6.34383e-10
7.55262e-10
1.00309e-09
1.50463e-09
3.57955e-09
3.91743e-09
1.31108e-09
2.6102e-11
2.97722e-10
2.72665e-10
2.99554e-10
3.18884e-10
3.57767e-10
6.71249e-10
1.14156e-09
1.01318e-09
4.43732e-10
3.0699e-10
4.24587e-10
4.95233e-10
1.15584e-09
1.86036e-09
1.90222e-09
1.58135e-09
1.5926e-09
1.46083e-09
8.75641e-10
2.42041e-10
1.56879e-10
3.28535e-10
7.59327e-10
1.09837e-09
9.99364e-10
6.40425e-10
1.16995e-10
7.59115e-10
7.79381e-10
9.92837e-10
9.89621e-10
8.95687e-10
7.08389e-10
8.10612e-10
8.8779e-10
1.18134e-09
3.64272e-09
4.89966e-09
1.78133e-09
3.6635e-11
3.35934e-10
2.86583e-10
2.88563e-10
3.65485e-10
3.52142e-10
6.19762e-10
1.10991e-09
1.00016e-09
4.59543e-10
2.90901e-10
4.71765e-10
5.16531e-10
1.19989e-09
1.86143e-09
1.97126e-09
1.68014e-09
1.71591e-09
1.55724e-09
9.24564e-10
2.37866e-10
1.43564e-10
2.98711e-10
8.0903e-10
1.4083e-09
1.29611e-09
6.74623e-10
1.16459e-10
9.09621e-10
7.94715e-10
9.87754e-10
9.09306e-10
8.15701e-10
7.14102e-10
9.17378e-10
8.5459e-10
7.51693e-10
3.22723e-09
5.95919e-09
2.60257e-09
7.49249e-11
3.39907e-10
3.94338e-10
2.51146e-10
4.04205e-10
3.58348e-10
5.52498e-10
1.04632e-09
1.0147e-09
5.06574e-10
2.5529e-10
4.37507e-10
4.71437e-10
1.15195e-09
1.85223e-09
2.02368e-09
1.76351e-09
1.88732e-09
1.647e-09
9.0841e-10
2.36848e-10
1.77936e-10
3.2759e-10
9.13334e-10
1.93227e-09
1.87428e-09
9.14867e-10
1.28088e-10
1.03855e-09
7.88258e-10
9.89535e-10
8.17912e-10
7.48457e-10
7.0975e-10
9.58427e-10
8.91266e-10
4.44954e-10
2.37828e-09
6.70875e-09
3.86268e-09
2.52604e-10
2.00519e-10
5.17198e-10
1.88881e-10
4.23453e-10
3.87749e-10
5.04115e-10
9.70964e-10
1.04345e-09
5.77563e-10
2.48799e-10
3.80494e-10
4.3333e-10
1.00931e-09
1.67874e-09
1.87101e-09
1.90385e-09
2.02588e-09
1.76402e-09
8.69892e-10
2.45804e-10
2.79861e-10
4.43968e-10
9.82635e-10
2.69365e-09
2.7999e-09
1.24886e-09
1.46435e-10
1.01971e-09
6.79739e-10
8.04428e-10
6.06353e-10
6.09261e-10
6.86856e-10
1.11042e-09
9.87021e-10
3.03385e-10
1.47582e-09
6.52721e-09
5.38563e-09
6.90487e-10
6.14006e-11
5.74003e-10
1.69087e-10
3.72121e-10
4.13672e-10
4.85033e-10
8.94972e-10
1.07811e-09
6.40749e-10
2.65953e-10
3.13224e-10
4.49438e-10
9.88972e-10
1.40576e-09
1.54243e-09
1.69468e-09
1.95258e-09
1.73629e-09
8.67297e-10
2.75018e-10
3.52605e-10
6.69673e-10
9.67749e-10
3.28502e-09
3.92879e-09
1.73639e-09
1.91196e-10
7.08979e-10
5.616e-10
6.10108e-10
3.88065e-10
4.96907e-10
6.61096e-10
1.22331e-09
1.17601e-09
2.56337e-10
9.07221e-10
5.3022e-09
6.6028e-09
1.41554e-09
7.1709e-11
3.68667e-10
2.03229e-10
2.90686e-10
4.30614e-10
4.76406e-10
8.48292e-10
1.14328e-09
6.7455e-10
2.83058e-10
3.23137e-10
4.89058e-10
1.1485e-09
1.39012e-09
1.14435e-09
1.31865e-09
1.68315e-09
1.63771e-09
8.62745e-10
4.29753e-10
3.65512e-10
7.94129e-10
9.90975e-10
3.05077e-09
4.72071e-09
2.39653e-09
4.01579e-10
4.70488e-10
4.34756e-10
4.08551e-10
3.07322e-10
3.76692e-10
6.16049e-10
1.22263e-09
1.31161e-09
3.1416e-10
6.26515e-10
3.56986e-09
6.69803e-09
2.39893e-09
2.84698e-10
1.9327e-10
1.91074e-10
2.25839e-10
4.68858e-10
4.95097e-10
7.32849e-10
1.10205e-09
7.23444e-10
2.65586e-10
3.0871e-10
4.75977e-10
1.34151e-09
1.57884e-09
8.25383e-10
9.9385e-10
1.43926e-09
1.3518e-09
8.4598e-10
6.18357e-10
2.78203e-10
5.90187e-10
1.20814e-09
2.25505e-09
4.59858e-09
3.02577e-09
8.61633e-10
4.17141e-10
4.00388e-10
3.10937e-10
2.70327e-10
4.46149e-10
6.0379e-10
1.12362e-09
1.34615e-09
6.33081e-10
5.7084e-10
2.1835e-09
5.44852e-09
3.17472e-09
6.66879e-10
1.85953e-10
2.21754e-10
2.31896e-10
5.70209e-10
5.99251e-10
6.60052e-10
9.75781e-10
7.80056e-10
2.6671e-10
3.25887e-10
5.27318e-10
1.19842e-09
1.63002e-09
1.02965e-09
9.81929e-10
1.43009e-09
1.32981e-09
6.53448e-10
4.82001e-10
1.87513e-10
2.95338e-10
9.62954e-10
1.4643e-09
3.79086e-09
3.41612e-09
1.366e-09
5.32407e-10
3.95737e-10
3.22943e-10
2.80679e-10
3.76534e-10
5.28576e-10
9.24026e-10
1.36133e-09
9.6884e-10
6.64002e-10
1.2572e-09
3.61428e-09
3.18255e-09
1.07054e-09
3.11481e-10
2.10168e-10
2.37598e-10
6.58209e-10
8.46125e-10
7.28526e-10
7.28071e-10
6.71999e-10
2.8722e-10
2.39559e-10
4.20994e-10
9.28371e-10
1.37601e-09
1.20447e-09
1.08175e-09
1.5699e-09
1.48029e-09
5.08929e-10
3.46559e-10
2.18081e-10
1.16696e-10
7.96165e-10
1.20487e-09
2.86425e-09
3.28859e-09
2.07016e-09
7.89247e-10
3.20479e-10
2.70869e-10
2.50861e-10
3.78851e-10
4.15266e-10
6.93922e-10
1.41955e-09
1.30711e-09
7.81389e-10
8.27792e-10
2.21251e-09
2.56972e-09
1.26256e-09
5.59427e-10
2.44099e-10
2.59656e-10
7.41754e-10
1.08159e-09
9.09152e-10
6.53042e-10
5.1478e-10
2.84446e-10
1.91113e-10
3.0931e-10
7.0464e-10
1.16596e-09
1.24935e-09
1.11418e-09
1.64546e-09
1.61837e-09
6.16832e-10
6.18583e-10
3.06266e-10
1.83222e-10
3.46182e-10
7.69177e-10
1.81148e-09
2.66339e-09
2.30347e-09
1.18399e-09
3.74394e-10
2.40075e-10
2.28425e-10
2.82163e-10
3.10921e-10
5.08787e-10
1.11864e-09
1.52624e-09
9.6791e-10
6.09736e-10
1.43847e-09
1.95373e-09
1.10908e-09
7.92878e-10
3.70503e-10
2.71611e-10
7.87636e-10
1.34199e-09
1.15842e-09
6.79992e-10
4.35147e-10
2.49122e-10
1.92321e-10
3.16189e-10
5.67127e-10
1.21673e-09
1.31986e-09
1.10496e-09
1.42902e-09
1.5346e-09
4.93708e-10
5.21124e-10
2.841e-10
3.53185e-10
1.2347e-10
4.87719e-10
1.28179e-09
2.09901e-09
2.18697e-09
1.25327e-09
5.03445e-10
3.67804e-10
4.698e-10
5.59813e-10
4.54192e-10
5.38373e-10
1.23868e-09
1.71105e-09
1.11231e-09
6.40613e-10
9.70326e-10
1.37607e-09
9.18018e-10
5.79462e-10
4.58873e-10
4.26526e-10
1.00358e-09
1.56141e-09
1.47537e-09
9.20981e-10
4.17378e-10
2.41787e-10
1.53235e-10
2.91882e-10
4.43727e-10
1.21238e-09
1.25175e-09
1.11469e-09
1.26715e-09
1.46294e-09
7.83311e-10
4.89608e-10
3.00005e-10
3.36044e-10
1.78419e-10
3.80282e-10
1.19021e-09
2.16313e-09
1.94956e-09
1.11824e-09
5.93878e-10
4.33186e-10
4.25051e-10
5.67086e-10
6.23783e-10
8.77358e-10
1.41427e-09
1.79898e-09
1.29684e-09
6.43433e-10
5.70853e-10
9.32204e-10
6.54215e-10
6.19747e-10
3.28745e-10
4.35871e-10
8.96084e-10
1.36594e-09
1.32808e-09
1.11572e-09
7.87121e-10
4.79465e-10
1.78401e-10
1.02429e-10
1.73151e-10
5.79485e-10
1.03807e-09
9.20354e-10
9.19869e-10
1.4648e-09
1.25378e-09
5.26383e-10
2.16043e-10
2.07088e-10
6.72336e-11
2.18041e-10
1.1459e-09
2.45258e-09
2.04774e-09
1.13231e-09
6.61315e-10
5.09262e-10
4.84013e-10
5.8254e-10
5.4028e-10
7.5425e-10
1.32311e-09
1.6057e-09
1.38907e-09
9.3533e-10
5.20508e-10
6.26186e-10
3.56202e-10
3.45438e-10
4.17259e-10
6.73316e-10
1.10168e-09
1.22375e-09
1.06585e-09
1.0605e-09
1.02742e-09
8.03893e-10
4.04343e-10
1.83546e-10
1.90675e-10
2.66591e-10
6.11923e-10
6.89394e-10
6.83415e-10
1.00653e-09
1.43446e-09
7.90712e-10
2.36689e-10
9.98689e-11
9.93594e-11
1.64038e-10
1.19145e-09
3.1447e-09
2.78426e-09
1.05874e-09
5.09276e-10
4.66497e-10
4.96858e-10
6.19727e-10
8.92987e-10
1.19929e-09
1.41375e-09
1.37695e-09
1.41085e-09
1.34112e-09
8.28308e-10
5.11668e-10
4.72867e-10
3.72676e-10
3.88825e-10
6.51026e-10
9.58108e-10
1.05744e-09
1.00878e-09
9.68763e-10
8.98086e-10
7.12594e-10
5.52183e-10
4.52261e-10
3.23748e-10
2.64862e-10
3.40136e-10
5.12691e-10
6.76862e-10
8.96958e-10
1.21222e-09
8.77759e-10
3.4349e-10
1.23963e-10
9.56755e-11
2.62082e-10
1.12105e-09
3.12854e-09
3.42251e-09
1.5941e-09
3.9864e-10
3.79609e-10
6.93837e-10
9.76997e-10
1.0168e-09
1.1261e-09
1.35423e-09
1.33789e-09
1.46737e-09
1.59715e-09
1.66407e-09
1.05067e-09
1.11274e-09
6.83165e-10
5.333e-10
6.28791e-10
7.0541e-10
7.79623e-10
9.89489e-10
1.09926e-09
8.55088e-10
5.87267e-10
5.85397e-10
6.21895e-10
5.79173e-10
4.44211e-10
3.32058e-10
3.81963e-10
5.77278e-10
8.13164e-10
9.40321e-10
8.12712e-10
5.08641e-10
2.67701e-10
9.45172e-11
1.37536e-10
7.37238e-10
2.23279e-09
2.77022e-09
1.80531e-09
8.78816e-10
6.83895e-10
8.59541e-10
1.0917e-09
1.2871e-09
1.45445e-09
1.32841e-09
9.22161e-10
8.05072e-10
1.13188e-09
1.47463e-09
1.30007e-09
1.10609e-09
5.48663e-10
3.27126e-10
3.04828e-10
3.90118e-10
5.53372e-10
8.69359e-10
1.12057e-09
9.47576e-10
7.15348e-10
6.4669e-10
5.90738e-10
5.6232e-10
5.44591e-10
5.00846e-10
4.04206e-10
4.70508e-10
7.01612e-10
9.79547e-10
9.74617e-10
8.02744e-10
5.26188e-10
2.1675e-10
1.68078e-10
4.4888e-10
1.47452e-09
2.23769e-09
1.68013e-09
8.76045e-10
6.16952e-10
6.96406e-10
8.73563e-10
1.00781e-09
1.20745e-09
1.28365e-09
1.14446e-09
9.50248e-10
1.1154e-09
1.75136e-09
1.89741e-09
1.71219e-09
8.1061e-10
4.08861e-10
3.74079e-10
5.55887e-10
8.17776e-10
1.13114e-09
1.29452e-09
9.81621e-10
5.48892e-10
5.10635e-10
6.62276e-10
7.70182e-10
6.88494e-10
5.87736e-10
4.92789e-10
4.77282e-10
6.68562e-10
1.22286e-09
1.59278e-09
1.31173e-09
1.02133e-09
7.63342e-10
3.25606e-10
2.16773e-10
8.34437e-10
1.62416e-09
1.46376e-09
8.85278e-10
5.59747e-10
7.37212e-10
1.12893e-09
1.40443e-09
1.33871e-09
1.07692e-09
8.53486e-10
8.69377e-10
1.22576e-09
1.87582e-09
2.27429e-09
8.46501e-11
2.47564e-15
5.94864e-11
2.04815e-10
3.86082e-10
7.04275e-10
1.10971e-09
9.00832e-10
3.16115e-10
1.22346e-10
2.37854e-10
6.76907e-10
1.26184e-09
1.29769e-09
9.87849e-10
1.03467e-09
1.35446e-09
1.41763e-09
9.6686e-10
3.63173e-10
1.68848e-10
3.72861e-10
5.4724e-10
1.01467e-09
1.51752e-09
1.49711e-09
1.07572e-09
7.33464e-10
6.90069e-10
5.68525e-10
3.91054e-10
4.38332e-10
7.16984e-10
1.08701e-09
1.18345e-09
2.06155e-09
3.68509e-09
4.48104e-09
2.8339e-09
8.60325e-10
9.13826e-11
1.20491e-13
5.60145e-11
1.99469e-10
3.82013e-10
7.00706e-10
1.1063e-09
9.0456e-10
3.13457e-10
1.18867e-10
2.33303e-10
6.73925e-10
1.26089e-09
1.29369e-09
9.76134e-10
1.0273e-09
1.35438e-09
1.41931e-09
9.72359e-10
3.66237e-10
1.5978e-10
3.52321e-10
5.23495e-10
9.88116e-10
1.49183e-09
1.47917e-09
1.06324e-09
7.28969e-10
6.90151e-10
5.69076e-10
3.81003e-10
4.19016e-10
6.98471e-10
1.08064e-09
1.17849e-09
2.11818e-09
3.72933e-09
4.53215e-09
2.86976e-09
8.92393e-10
9.01173e-11
3.96202e-13
5.94249e-11
2.04075e-10
3.83142e-10
7.0179e-10
1.11921e-09
9.26006e-10
3.19788e-10
1.18001e-10
2.28868e-10
6.72692e-10
1.26623e-09
1.29135e-09
9.58339e-10
1.01353e-09
1.35311e-09
1.42711e-09
9.79119e-10
3.69225e-10
1.59487e-10
3.56435e-10
5.30398e-10
9.97991e-10
1.50707e-09
1.49113e-09
1.06806e-09
7.36934e-10
7.01784e-10
5.83295e-10
3.7083e-10
3.87198e-10
6.65722e-10
1.05765e-09
1.16847e-09
2.12012e-09
3.75864e-09
4.64164e-09
2.9636e-09
9.27974e-10
7.85291e-11
2.27049e-12
6.07146e-11
2.0597e-10
3.83014e-10
7.01481e-10
1.13626e-09
9.70614e-10
3.33661e-10
1.18101e-10
2.22113e-10
6.73656e-10
1.28554e-09
1.29674e-09
9.34591e-10
9.91361e-10
1.34195e-09
1.44359e-09
9.88332e-10
3.65167e-10
1.53503e-10
3.53917e-10
5.24703e-10
9.98361e-10
1.52228e-09
1.50645e-09
1.07087e-09
7.4144e-10
7.12015e-10
6.0535e-10
3.67962e-10
3.47868e-10
6.19689e-10
1.03442e-09
1.1756e-09
2.09764e-09
3.85598e-09
4.88852e-09
3.15706e-09
9.54516e-10
6.06865e-11
8.32839e-12
6.44606e-11
2.07298e-10
3.80773e-10
6.95485e-10
1.15406e-09
9.97706e-10
3.59711e-10
1.24301e-10
2.19303e-10
6.71344e-10
1.3161e-09
1.31657e-09
9.09762e-10
9.60981e-10
1.3386e-09
1.46166e-09
1.00166e-09
3.58052e-10
1.48402e-10
3.58031e-10
5.27961e-10
9.96682e-10
1.52274e-09
1.52811e-09
1.08193e-09
7.46134e-10
7.18992e-10
6.34737e-10
3.83316e-10
3.19781e-10
5.59905e-10
9.79697e-10
1.13044e-09
2.04283e-09
3.97929e-09
5.29429e-09
3.48698e-09
9.73913e-10
4.26092e-11
1.87589e-11
6.28821e-11
2.08214e-10
3.79137e-10
6.86205e-10
1.12917e-09
9.79584e-10
3.7235e-10
1.38031e-10
2.34562e-10
6.73702e-10
1.33593e-09
1.34811e-09
8.911e-10
9.27116e-10
1.33383e-09
1.491e-09
1.02722e-09
3.54485e-10
1.50827e-10
3.61848e-10
5.21417e-10
1.00485e-09
1.52175e-09
1.52473e-09
1.07351e-09
7.386e-10
7.16174e-10
6.66542e-10
4.17654e-10
3.19767e-10
5.18507e-10
8.68818e-10
1.01755e-09
1.94098e-09
4.04732e-09
5.86687e-09
3.97638e-09
9.99672e-10
3.15563e-11
4.29224e-11
5.42003e-11
1.87895e-10
3.56472e-10
6.66774e-10
1.0954e-09
9.16227e-10
3.50525e-10
1.52186e-10
2.71035e-10
7.22797e-10
1.34444e-09
1.36284e-09
8.74706e-10
8.93786e-10
1.33024e-09
1.5353e-09
1.08172e-09
3.6358e-10
1.51901e-10
3.72104e-10
4.81943e-10
9.71046e-10
1.44285e-09
1.45129e-09
1.05341e-09
7.31728e-10
7.02388e-10
6.8129e-10
4.58399e-10
3.49598e-10
5.25205e-10
7.9073e-10
8.26729e-10
1.73473e-09
4.09852e-09
6.52929e-09
4.66211e-09
1.13983e-09
3.4349e-11
9.05878e-11
6.57542e-11
1.88366e-10
3.51729e-10
6.38125e-10
1.07609e-09
9.09847e-10
3.62671e-10
1.66164e-10
2.86851e-10
8.01081e-10
1.38797e-09
1.37107e-09
8.53023e-10
8.58486e-10
1.33022e-09
1.59524e-09
1.17867e-09
4.04273e-10
1.37487e-10
3.85367e-10
4.19484e-10
9.55616e-10
1.36842e-09
1.27971e-09
9.10294e-10
6.52047e-10
6.87091e-10
6.94856e-10
4.79326e-10
3.92134e-10
5.95021e-10
7.88002e-10
6.41394e-10
1.40149e-09
3.93095e-09
7.25103e-09
5.5157e-09
1.44263e-09
4.34095e-11
1.43256e-10
8.95407e-11
1.99095e-10
3.62691e-10
6.15002e-10
1.05196e-09
9.36993e-10
4.31196e-10
1.8165e-10
2.73272e-10
7.83896e-10
1.4042e-09
1.37795e-09
8.33495e-10
8.21194e-10
1.32523e-09
1.64839e-09
1.28719e-09
4.94451e-10
9.9268e-11
4.157e-10
3.49047e-10
9.18632e-10
1.35014e-09
1.18414e-09
7.58647e-10
5.13451e-10
6.02435e-10
7.02918e-10
5.20177e-10
3.59612e-10
6.63536e-10
9.00453e-10
5.21323e-10
1.13756e-09
3.33285e-09
7.93778e-09
6.5658e-09
1.85372e-09
8.60197e-11
1.90975e-10
1.13382e-10
1.7227e-10
3.433e-10
5.70363e-10
1.03616e-09
9.56307e-10
5.07951e-10
2.43369e-10
3.03684e-10
7.49976e-10
1.31191e-09
1.33921e-09
8.15746e-10
7.95752e-10
1.33263e-09
1.67638e-09
1.31993e-09
6.00621e-10
6.92455e-11
3.56643e-10
2.79908e-10
8.35405e-10
1.39413e-09
1.07501e-09
6.31573e-10
4.16674e-10
5.8752e-10
7.48629e-10
6.18327e-10
3.91251e-10
6.90977e-10
1.02689e-09
4.84644e-10
9.35343e-10
2.50173e-09
8.06037e-09
7.9641e-09
2.50625e-09
2.22428e-10
2.13129e-10
1.70675e-10
1.51645e-10
2.99693e-10
5.32674e-10
1.04205e-09
9.83666e-10
5.69434e-10
3.21283e-10
3.61465e-10
7.88655e-10
1.23449e-09
1.21567e-09
7.40891e-10
7.59417e-10
1.33556e-09
1.66974e-09
1.21187e-09
5.57631e-10
7.81648e-11
2.6044e-10
2.20455e-10
7.72107e-10
1.44554e-09
1.0569e-09
5.95876e-10
3.59757e-10
6.21347e-10
8.32685e-10
7.85292e-10
4.89359e-10
6.51978e-10
1.194e-09
5.92544e-10
7.47985e-10
1.81228e-09
7.33104e-09
9.40984e-09
3.6115e-09
5.82359e-10
9.84086e-11
1.91152e-10
1.12509e-10
2.41697e-10
4.72658e-10
1.07818e-09
1.06036e-09
6.05628e-10
3.39502e-10
3.86964e-10
8.48839e-10
1.26633e-09
1.14737e-09
6.50635e-10
6.45402e-10
1.26104e-09
1.65634e-09
1.03667e-09
3.62616e-10
7.95515e-11
2.21484e-10
1.97063e-10
7.80884e-10
1.5336e-09
1.18931e-09
6.16865e-10
2.77451e-10
6.63804e-10
8.04119e-10
8.87182e-10
6.04414e-10
7.03258e-10
1.16691e-09
8.11639e-10
7.28343e-10
1.44763e-09
5.98658e-09
1.01265e-08
5.0302e-09
1.22691e-09
3.01664e-11
1.65473e-10
8.08072e-11
1.54622e-10
3.75336e-10
1.03258e-09
1.14469e-09
6.24415e-10
3.01199e-10
3.75698e-10
9.05304e-10
1.39698e-09
1.1534e-09
5.79787e-10
5.13062e-10
1.12414e-09
1.65615e-09
8.86779e-10
2.15283e-10
9.31634e-11
3.03259e-10
2.21399e-10
6.8834e-10
1.55072e-09
1.3624e-09
7.0333e-10
2.68006e-10
5.66344e-10
8.58778e-10
8.28047e-10
7.44624e-10
7.6711e-10
1.21215e-09
1.00605e-09
8.52316e-10
1.26973e-09
4.45584e-09
9.60575e-09
6.23548e-09
1.86518e-09
1.17023e-10
7.00218e-11
4.75049e-11
9.76241e-11
2.96726e-10
8.81648e-10
1.16592e-09
6.18116e-10
2.50225e-10
3.2176e-10
8.83966e-10
1.5014e-09
1.2271e-09
5.56772e-10
4.9153e-10
1.05893e-09
1.55197e-09
7.54086e-10
2.26916e-10
1.13285e-10
2.11734e-10
2.30204e-10
4.20171e-10
1.35418e-09
1.39442e-09
8.21939e-10
4.63435e-10
4.96667e-10
6.97167e-10
7.11795e-10
7.57176e-10
8.88106e-10
1.23098e-09
1.15507e-09
8.61987e-10
1.12013e-09
2.95131e-09
7.9903e-09
6.58627e-09
2.33129e-09
3.70333e-10
7.19918e-11
3.67872e-11
7.41595e-11
2.66365e-10
7.44206e-10
1.04122e-09
5.84348e-10
2.31345e-10
3.1078e-10
7.49309e-10
1.30323e-09
1.20283e-09
7.56709e-10
7.33458e-10
1.27863e-09
1.41079e-09
5.53663e-10
2.16596e-10
2.15539e-10
1.8654e-10
2.22456e-10
1.85557e-10
1.0911e-09
1.46225e-09
1.00017e-09
7.03287e-10
4.81491e-10
6.15262e-10
5.93437e-10
5.23619e-10
6.50207e-10
1.09551e-09
1.26826e-09
8.31542e-10
8.35685e-10
1.74768e-09
5.66654e-09
6.04558e-09
2.25005e-09
7.04424e-10
1.48505e-10
4.8565e-11
1.32324e-10
2.72771e-10
7.41361e-10
8.08189e-10
4.9405e-10
2.39846e-10
2.49865e-10
5.95558e-10
1.10215e-09
1.15772e-09
9.19852e-10
1.08992e-09
1.79962e-09
1.36294e-09
3.26728e-10
1.18167e-10
3.36645e-10
3.63789e-10
4.12387e-10
2.28514e-10
8.29445e-10
1.64113e-09
1.4133e-09
8.38281e-10
6.57159e-10
6.28811e-10
6.7347e-10
7.3459e-10
8.84485e-10
1.03318e-09
1.38605e-09
1.07081e-09
8.06856e-10
9.6124e-10
3.34925e-09
4.32939e-09
1.7726e-09
9.46069e-10
5.49651e-10
2.84216e-10
4.18968e-10
5.17668e-10
6.4497e-10
6.64779e-10
3.58214e-10
2.02954e-10
2.51853e-10
5.13716e-10
1.00593e-09
1.09746e-09
1.01926e-09
1.16563e-09
1.78151e-09
1.52724e-09
3.12472e-10
1.28585e-10
3.23519e-10
5.85918e-10
4.95902e-10
2.38093e-10
6.09871e-10
1.67922e-09
1.59729e-09
1.00472e-09
6.8504e-10
6.36264e-10
7.3177e-10
6.81797e-10
8.17387e-10
1.20528e-09
1.54798e-09
1.45998e-09
1.00977e-09
8.97828e-10
1.87195e-09
3.08025e-09
1.43527e-09
8.96466e-10
8.72027e-10
6.64771e-10
9.10059e-10
8.546e-10
7.79853e-10
7.29762e-10
3.41015e-10
2.92892e-10
2.99609e-10
4.13408e-10
8.10977e-10
1.12459e-09
1.18647e-09
1.09966e-09
1.36178e-09
1.60089e-09
4.60105e-10
1.58915e-10
2.48684e-10
5.83375e-10
4.98e-10
3.7661e-10
6.25753e-10
1.56507e-09
1.66419e-09
1.09318e-09
7.94377e-10
7.78437e-10
8.47687e-10
9.14644e-10
9.88278e-10
1.05038e-09
1.4951e-09
1.75176e-09
1.06575e-09
7.62542e-10
9.7837e-10
1.81797e-09
1.22877e-09
1.03108e-09
9.13039e-10
1.05243e-09
1.49761e-09
1.4653e-09
9.82257e-10
8.55804e-10
4.02067e-10
1.73306e-10
2.89636e-10
4.88852e-10
7.017e-10
1.23094e-09
1.47834e-09
1.10421e-09
1.06465e-09
1.37324e-09
8.09785e-10
2.83799e-10
3.31743e-10
5.52135e-10
6.23929e-10
4.85028e-10
8.29572e-10
1.61056e-09
1.52564e-09
1.06301e-09
8.3683e-10
8.02999e-10
8.10429e-10
9.14773e-10
1.07689e-09
1.325e-09
1.68958e-09
1.88416e-09
1.20261e-09
5.78828e-10
4.64277e-10
1.10659e-09
8.57651e-10
6.70255e-10
5.33619e-10
7.74095e-10
1.21477e-09
1.58223e-09
1.35083e-09
1.10332e-09
7.54632e-10
3.34755e-10
1.67081e-10
1.50535e-10
3.14313e-10
6.89578e-10
1.13438e-09
1.21082e-09
9.33145e-10
1.23908e-09
1.31921e-09
5.10496e-10
1.01161e-10
1.47423e-10
4.58921e-10
6.53937e-10
1.12067e-09
1.86438e-09
1.50101e-09
1.03594e-09
8.41661e-10
7.61113e-10
6.85854e-10
7.21358e-10
7.47471e-10
8.83687e-10
1.29597e-09
1.66011e-09
1.44173e-09
8.29094e-10
5.27321e-10
6.19581e-10
5.59543e-10
5.95265e-10
5.44486e-10
7.79206e-10
1.40649e-09
1.51957e-09
1.20552e-09
1.22123e-09
1.12355e-09
7.04245e-10
3.09403e-10
2.51354e-10
3.44105e-10
4.776e-10
6.34065e-10
7.94934e-10
8.28981e-10
1.08707e-09
1.30914e-09
7.9671e-10
2.45564e-10
1.61728e-10
2.55096e-10
4.03752e-10
1.17955e-09
1.96534e-09
1.61052e-09
1.04306e-09
7.29216e-10
7.84891e-10
7.99849e-10
7.77482e-10
9.05667e-10
1.15478e-09
1.26058e-09
1.24289e-09
1.52862e-09
1.19479e-09
5.45328e-10
4.04715e-10
4.58692e-10
5.01639e-10
6.0125e-10
9.14941e-10
1.31242e-09
1.31319e-09
1.01434e-09
8.88135e-10
1.05021e-09
9.85489e-10
7.47414e-10
4.7834e-10
2.95799e-10
2.24948e-10
2.83287e-10
4.33324e-10
6.38553e-10
8.6421e-10
1.00284e-09
7.76582e-10
3.93288e-10
2.01124e-10
2.75171e-10
4.75263e-10
9.92164e-10
2.01899e-09
2.05238e-09
1.23588e-09
6.0552e-10
6.03052e-10
7.08927e-10
8.1694e-10
9.18102e-10
9.8769e-10
1.0795e-09
1.13366e-09
1.27025e-09
1.53807e-09
1.27136e-09
7.26425e-10
7.48299e-10
5.87518e-10
5.68643e-10
8.4888e-10
1.01091e-09
9.6391e-10
9.49813e-10
9.2271e-10
7.55705e-10
6.35032e-10
7.64119e-10
8.49533e-10
8.13939e-10
5.87202e-10
3.53819e-10
3.29549e-10
4.91366e-10
7.70083e-10
8.50584e-10
6.04169e-10
3.67458e-10
2.25619e-10
2.03469e-10
3.04525e-10
7.43584e-10
1.64543e-09
2.03703e-09
1.43996e-09
7.57942e-10
6.24504e-10
7.11847e-10
8.09025e-10
1.04212e-09
1.2923e-09
1.15939e-09
8.4882e-10
8.04016e-10
1.18111e-09
1.37724e-09
1.04732e-09
1.04159e-09
7.1744e-10
5.79824e-10
5.26977e-10
5.3295e-10
5.40189e-10
7.58082e-10
1.08571e-09
1.03732e-09
7.72375e-10
5.41766e-10
5.69001e-10
7.48696e-10
7.94081e-10
6.74501e-10
5.33234e-10
5.48344e-10
6.90821e-10
8.14288e-10
7.62609e-10
5.96402e-10
3.8632e-10
2.59916e-10
2.7943e-10
5.18282e-10
1.18612e-09
1.79804e-09
1.46474e-09
8.58237e-10
6.93294e-10
7.37039e-10
8.14862e-10
9.06341e-10
1.08688e-09
1.12968e-09
9.79403e-10
8.59088e-10
1.11647e-09
1.6012e-09
1.5137e-09
1.48743e-09
8.28062e-10
3.74448e-10
3.11785e-10
4.14487e-10
6.29567e-10
9.28904e-10
1.21113e-09
1.07082e-09
6.24429e-10
5.29891e-10
6.38429e-10
7.83381e-10
8.37749e-10
8.52344e-10
7.42507e-10
6.44804e-10
7.29343e-10
1.09132e-09
1.35576e-09
1.08296e-09
7.02564e-10
4.94071e-10
3.05574e-10
3.09539e-10
8.09624e-10
1.43208e-09
1.29437e-09
9.21159e-10
8.25579e-10
9.67312e-10
1.23507e-09
1.42659e-09
1.35625e-09
1.10704e-09
9.00223e-10
9.13698e-10
1.29225e-09
1.90182e-09
2.03759e-09
6.6283e-10
2.0921e-10
1.72237e-10
1.45807e-10
1.57862e-10
4.62186e-10
8.6769e-10
9.19261e-10
4.97078e-10
2.73589e-10
3.88905e-10
7.43107e-10
1.00843e-09
9.26965e-10
8.46225e-10
8.6251e-10
1.11057e-09
1.08855e-09
7.61218e-10
3.61475e-10
1.65254e-10
4.16026e-10
6.06053e-10
7.70675e-10
9.70991e-10
1.09965e-09
8.79633e-10
5.69282e-10
4.19218e-10
4.5981e-10
1.21985e-09
2.39872e-09
2.55502e-09
2.49604e-09
2.05516e-09
1.98007e-09
2.39996e-09
2.79208e-09
2.60359e-09
1.8076e-09
6.63349e-10
2.09938e-10
1.70287e-10
1.46492e-10
1.58414e-10
4.62085e-10
8.66417e-10
9.19982e-10
5.00311e-10
2.77305e-10
3.92673e-10
7.46974e-10
1.01634e-09
9.32958e-10
8.5129e-10
8.63294e-10
1.11059e-09
1.09162e-09
7.6401e-10
3.61848e-10
1.59202e-10
4.00781e-10
5.89522e-10
7.57491e-10
9.58133e-10
1.09183e-09
8.81379e-10
5.62607e-10
4.02518e-10
4.30579e-10
1.16765e-09
2.36023e-09
2.53613e-09
2.53476e-09
2.06001e-09
1.98396e-09
2.42949e-09
2.83487e-09
2.66492e-09
1.83414e-09
6.76961e-10
2.0416e-10
1.6554e-10
1.45862e-10
1.57091e-10
4.59867e-10
8.64915e-10
9.27727e-10
5.07653e-10
2.78422e-10
3.93209e-10
7.51616e-10
1.02579e-09
9.39541e-10
8.60197e-10
8.73728e-10
1.11423e-09
1.09705e-09
7.68655e-10
3.65198e-10
1.59227e-10
4.03651e-10
5.99782e-10
7.73552e-10
9.65989e-10
1.09496e-09
9.0788e-10
5.88851e-10
4.1971e-10
4.34196e-10
1.16382e-09
2.38682e-09
2.61597e-09
2.59594e-09
2.08484e-09
1.99356e-09
2.4473e-09
2.86988e-09
2.72843e-09
1.87317e-09
6.86966e-10
1.92374e-10
1.58871e-10
1.45174e-10
1.54014e-10
4.56496e-10
8.67083e-10
9.45423e-10
5.22772e-10
2.81888e-10
3.95164e-10
7.59676e-10
1.03791e-09
9.41372e-10
8.63e-10
8.78499e-10
1.12006e-09
1.10503e-09
7.70917e-10
3.63247e-10
1.53957e-10
4.01253e-10
6.18555e-10
7.84622e-10
9.73041e-10
1.09206e-09
9.29179e-10
6.10137e-10
4.3435e-10
4.27157e-10
1.1213e-09
2.39702e-09
2.67672e-09
2.66956e-09
2.13972e-09
2.0439e-09
2.5155e-09
2.96117e-09
2.81067e-09
1.91853e-09
6.95849e-10
1.76513e-10
1.5169e-10
1.45851e-10
1.49498e-10
4.51646e-10
8.71371e-10
9.70232e-10
5.45409e-10
2.88588e-10
3.9909e-10
7.68276e-10
1.05114e-09
9.39185e-10
8.59467e-10
8.76422e-10
1.12652e-09
1.13007e-09
7.7875e-10
3.60064e-10
1.4803e-10
4.01961e-10
6.36969e-10
8.00622e-10
1.00415e-09
1.09868e-09
9.46285e-10
6.32325e-10
4.62203e-10
4.40401e-10
1.07834e-09
2.44387e-09
2.7e-09
2.74993e-09
2.21698e-09
2.11983e-09
2.62757e-09
3.10319e-09
2.89522e-09
1.98248e-09
7.24997e-10
1.58714e-10
1.44436e-10
1.46418e-10
1.43699e-10
4.45672e-10
8.74059e-10
9.9739e-10
5.76609e-10
3.04176e-10
4.13557e-10
7.79338e-10
1.06181e-09
9.32168e-10
8.48819e-10
8.63833e-10
1.13556e-09
1.16682e-09
7.97399e-10
3.64589e-10
1.45827e-10
4.32143e-10
6.7374e-10
8.19623e-10
1.05078e-09
1.14057e-09
9.60759e-10
6.35112e-10
4.8997e-10
4.83079e-10
1.03485e-09
2.504e-09
2.71582e-09
2.80928e-09
2.312e-09
2.22986e-09
2.80548e-09
3.31847e-09
3.02277e-09
2.079e-09
7.8911e-10
1.39441e-10
1.35121e-10
1.54029e-10
1.35676e-10
4.33847e-10
8.66874e-10
1.00284e-09
6.02051e-10
3.31855e-10
4.53915e-10
8.15314e-10
1.07236e-09
8.99548e-10
8.33042e-10
8.39145e-10
1.13863e-09
1.21087e-09
8.388e-10
3.95688e-10
1.37174e-10
4.22107e-10
7.15351e-10
8.52701e-10
1.05326e-09
1.22438e-09
1.01203e-09
6.58016e-10
5.00535e-10
5.28641e-10
1.01729e-09
2.54543e-09
2.83448e-09
2.7974e-09
2.40303e-09
2.37218e-09
3.07444e-09
3.63523e-09
3.2512e-09
2.19158e-09
8.89317e-10
1.26885e-10
1.19315e-10
1.65696e-10
1.34811e-10
4.00662e-10
8.45889e-10
9.83261e-10
6.03046e-10
3.78597e-10
5.19728e-10
8.8871e-10
1.10759e-09
8.83101e-10
8.15309e-10
8.12743e-10
1.13749e-09
1.25985e-09
9.02959e-10
4.65041e-10
1.38604e-10
3.87555e-10
6.77165e-10
8.09127e-10
9.99238e-10
1.23283e-09
1.09984e-09
6.86004e-10
5.49903e-10
5.12371e-10
1.02533e-09
2.5754e-09
3.04703e-09
2.65115e-09
2.4645e-09
2.51344e-09
3.43475e-09
4.11739e-09
3.57062e-09
2.34754e-09
9.29958e-10
1.19086e-10
9.87997e-11
1.63627e-10
1.40868e-10
3.83736e-10
8.48082e-10
9.89919e-10
5.98908e-10
4.00241e-10
5.64297e-10
9.59193e-10
1.10698e-09
8.61232e-10
8.02757e-10
7.96758e-10
1.14483e-09
1.31584e-09
9.85838e-10
5.82413e-10
1.62476e-10
3.67855e-10
7.06166e-10
7.60803e-10
9.53838e-10
1.17328e-09
1.19111e-09
7.37966e-10
5.35425e-10
4.98577e-10
8.99108e-10
2.4823e-09
3.15374e-09
2.54363e-09
2.4739e-09
2.50388e-09
3.79209e-09
4.80968e-09
4.04742e-09
2.61802e-09
1.01624e-09
1.05862e-10
8.73759e-11
1.65665e-10
1.59509e-10
3.87213e-10
8.74554e-10
1.04475e-09
6.21984e-10
4.04794e-10
5.91639e-10
9.34201e-10
9.74042e-10
7.64075e-10
7.66319e-10
7.86946e-10
1.16247e-09
1.36657e-09
1.0503e-09
7.41081e-10
2.48838e-10
2.76407e-10
7.40503e-10
6.68771e-10
8.9511e-10
1.13562e-09
1.22328e-09
8.37851e-10
5.80945e-10
5.19681e-10
8.20035e-10
2.25308e-09
2.96908e-09
2.49356e-09
2.29115e-09
2.54447e-09
4.03581e-09
5.58448e-09
4.751e-09
3.03707e-09
1.332e-09
1.26104e-10
3.64778e-11
1.4712e-10
1.78948e-10
4.31896e-10
9.78047e-10
1.14762e-09
6.76751e-10
4.27646e-10
5.96739e-10
8.96937e-10
8.85921e-10
6.12333e-10
6.9659e-10
7.45453e-10
1.15251e-09
1.36941e-09
1.07442e-09
8.53957e-10
4.51356e-10
1.58718e-10
7.73215e-10
6.01544e-10
8.3525e-10
1.19091e-09
1.31296e-09
8.90884e-10
6.91654e-10
5.44578e-10
7.36516e-10
1.82722e-09
2.55508e-09
2.19471e-09
1.97353e-09
2.51503e-09
3.70149e-09
6.1062e-09
5.53356e-09
3.70474e-09
1.86723e-09
2.54759e-10
3.5294e-11
6.68377e-11
1.66095e-10
4.86969e-10