/*--------------------------------*- C++ -*----------------------------------*\
| =========                 |                                                 |
| \\      /  F ield         | OpenFOAM: The Open Source CFD Toolbox           |
|  \\    /   O peration     | Version:  2306                                  |
|   \\  /    A nd           | Website:  www.openfoam.com                      |
|    \\/     M anipulation  |                                                 |
\*---------------------------------------------------------------------------*/
FoamFile
{
    version     2.0;
    format      ascii;
    arch        "LSB;label=32;scalar=64";
    class       volVectorField;
    location    "1";
    object      U;
}
// * * * * * * * * * * * * * * * * * * * * * * * * * * * * * * * * * * * * * //

dimensions      [0 1 -1 0 0 0 0];

internalField   nonuniform List<vector> 
60000
(
(0.0105403 -2.0105e-06 0.00246783)
(0.0104832 -2.01473e-05 0.00208297)
(0.0103698 -2.08352e-05 0.00180753)
(0.0102376 -1.35404e-05 0.00171993)
(0.0100706 -1.12123e-05 0.0016537)
(0.00974869 -1.37023e-05 0.0014642)
(0.0091369 -1.31929e-05 0.00120577)
(0.00817075 -1.02188e-05 0.00104598)
(0.00703668 -1.12913e-05 0.00103443)
(0.00616294 -1.62493e-05 0.00112063)
(0.00579606 -2.49841e-05 0.00123452)
(0.00580718 -2.88948e-05 0.00126187)
(0.00594157 -2.69274e-05 0.0010657)
(0.00604717 -1.90477e-05 0.000708091)
(0.00613673 -6.64321e-06 0.000367182)
(0.0062802 3.72214e-06 0.0001154)
(0.00651932 1.47613e-05 -7.75019e-05)
(0.00683472 2.01511e-05 -0.000279459)
(0.00718941 2.13193e-05 -0.000568396)
(0.00757996 1.68209e-05 -0.000974243)
(0.00806195 1.06617e-05 -0.00148092)
(0.00865164 4.80851e-06 -0.00200252)
(0.00922782 2.58015e-06 -0.00239965)
(0.00958329 -5.69553e-07 -0.00256286)
(0.00951251 -3.77582e-06 -0.00251632)
(0.00893515 -8.4692e-07 -0.00237939)
(0.00804322 7.3853e-06 -0.00222126)
(0.00720227 -2.4995e-06 -0.00208872)
(0.00661774 -1.00179e-05 -0.00206663)
(0.00629033 -2.97104e-06 -0.00210007)
(0.00623015 6.63603e-06 -0.00200645)
(0.00645801 1.12387e-05 -0.00159605)
(0.00692591 2.51146e-05 -0.000858259)
(0.00752569 3.91783e-05 -6.94095e-05)
(0.00817788 5.05186e-05 0.000484316)
(0.00884894 5.30576e-05 0.000855584)
(0.00950379 5.74569e-05 0.00129611)
(0.0100351 6.4064e-05 0.0018811)
(0.0103611 5.50741e-05 0.00243383)
(0.0105136 2.91037e-05 0.00265426)
(0.0325776 -0.000118442 0.00623499)
(0.0323292 -0.000200936 0.00515582)
(0.0318434 -0.000191233 0.00450505)
(0.0313776 -0.000139988 0.00445531)
(0.030866 -9.38168e-05 0.00447506)
(0.0298673 -5.14332e-05 0.0040738)
(0.0280266 -1.03761e-05 0.00336316)
(0.0252911 -4.36636e-06 0.00286087)
(0.0221741 -7.61725e-05 0.00282596)
(0.0196464 -0.000198032 0.00312203)
(0.0183061 -0.000283026 0.00340551)
(0.0179203 -0.00028531 0.00330891)
(0.0179141 -0.000231058 0.00266326)
(0.0179828 -0.000149114 0.00175694)
(0.0181818 -5.92863e-05 0.000974967)
(0.0186169 1.32307e-05 0.000393727)
(0.0193477 6.14414e-05 -0.000105108)
(0.0203564 7.2978e-05 -0.000683747)
(0.0215705 5.41977e-05 -0.00150239)
(0.0229738 5.36184e-06 -0.00263345)
(0.0246515 -4.76972e-05 -0.00403988)
(0.0265286 -6.95126e-05 -0.00548691)
(0.0282561 -4.97651e-05 -0.00657548)
(0.0293331 -2.3165e-05 -0.00697717)
(0.0292142 -2.89961e-06 -0.0067073)
(0.0276934 1.17281e-05 -0.00610839)
(0.025311 -1.50949e-05 -0.0055463)
(0.0229009 -0.000105378 -0.00527722)
(0.0208716 -0.000164915 -0.00539515)
(0.0194036 -0.000144327 -0.00559965)
(0.0188394 -8.30304e-05 -0.00533786)
(0.01934 -7.3228e-07 -0.00415764)
(0.0206605 0.00012512 -0.00217352)
(0.0224083 0.000257981 -0.000130775)
(0.0243555 0.000350075 0.00136984)
(0.026395 0.000371172 0.00251064)
(0.0283952 0.000366912 0.00377896)
(0.0301457 0.000337932 0.00526321)
(0.031487 0.000229347 0.00653654)
(0.0323295 5.1865e-05 0.00690511)
(0.0558687 -0.000402011 0.00939572)
(0.0553262 -0.00055518 0.007609)
(0.0543257 -0.000513405 0.00638778)
(0.0534712 -0.000389225 0.00630807)
(0.0526808 -0.00027258 0.00663018)
(0.0512003 -0.000156036 0.00635084)
(0.0485169 -5.33955e-05 0.00534275)
(0.0445798 -4.22798e-05 0.0043834)
(0.0398549 -0.000208311 0.0041567)
(0.0353704 -0.000500611 0.00465321)
(0.0322649 -0.0007011 0.00519638)
(0.0308098 -0.000701372 0.00504176)
(0.0302711 -0.000566785 0.00404996)
(0.0300646 -0.000369007 0.00276556)
(0.0302066 -0.000158329 0.00172462)
(0.0308268 1.26202e-05 0.000971801)
(0.0320003 0.000103661 0.000310441)
(0.0337046 0.000108743 -0.000482214)
(0.0358326 3.51504e-05 -0.00162601)
(0.0383563 -0.000106835 -0.00326543)
(0.0413736 -0.000251093 -0.00541822)
(0.0446965 -0.000300993 -0.0077964)
(0.0477689 -0.000241906 -0.00975933)
(0.0498839 -0.000162407 -0.0106488)
(0.0502295 -9.86844e-05 -0.0102866)
(0.0483828 -6.35105e-05 -0.00914036)
(0.0449687 -0.000138624 -0.00796593)
(0.0410746 -0.000315713 -0.00738745)
(0.0373005 -0.00042304 -0.00764544)
(0.0340409 -0.000380206 -0.00831345)
(0.0321004 -0.000254688 -0.00841255)
(0.0321302 -6.04971e-05 -0.00701197)
(0.0339247 0.00023369 -0.00417595)
(0.0367438 0.000559816 -0.00104315)
(0.0400711 0.000786 0.00142324)
(0.0436503 0.00084283 0.00337345)
(0.0472448 0.000821379 0.00540312)
(0.0505833 0.000695117 0.00765106)
(0.0533894 0.000385711 0.00961216)
(0.055283 -4.05204e-05 0.0103233)
(0.079614 -0.00082749 0.0122143)
(0.078662 -0.00103921 0.00991968)
(0.0769693 -0.000952559 0.0077158)
(0.0756773 -0.000740189 0.00713956)
(0.0747533 -0.000531969 0.00778997)
(0.0731581 -0.000311167 0.00810821)
(0.0702558 -0.000113543 0.00720572)
(0.065995 -6.69546e-05 0.00573222)
(0.0604638 -0.000304123 0.004962)
(0.0540745 -0.000784169 0.00549232)
(0.0482574 -0.00117864 0.00654788)
(0.0446221 -0.00123812 0.0066561)
(0.0429083 -0.00103567 0.00544712)
(0.0420808 -0.000705698 0.0038371)
(0.0418894 -0.000351107 0.00264892)
(0.0424471 -6.49425e-05 0.00192026)
(0.0438503 7.587e-05 0.00135689)
(0.0460548 5.10018e-05 0.000673601)
(0.0489275 -0.000117425 -0.000403604)
(0.0524616 -0.00042042 -0.00213156)
(0.0568321 -0.000725875 -0.00470694)
(0.0617776 -0.000830749 -0.00798581)
(0.0665191 -0.000703999 -0.0111897)
(0.0701871 -0.000515365 -0.0132051)
(0.0717903 -0.000339744 -0.0133523)
(0.0705774 -0.000230099 -0.0119247)
(0.0669147 -0.000332019 -0.00998759)
(0.0619357 -0.000592752 -0.00869285)
(0.0564917 -0.000732711 -0.00872179)
(0.0510998 -0.000666699 -0.0098651)
(0.0467625 -0.000518736 -0.0109495)
(0.0448803 -0.000275381 -0.0103356)
(0.0460551 0.000162754 -0.00748066)
(0.0495001 0.000707728 -0.00365578)
(0.0541948 0.00112018 -0.000310145)
(0.0595362 0.00124571 0.00246619)
(0.0650372 0.00122861 0.00526343)
(0.0703746 0.000997613 0.00829202)
(0.0751244 0.000436692 0.0111361)
(0.0785067 -0.000272882 0.0127379)
(0.10235 -0.00135028 0.0142284)
(0.100921 -0.00156523 0.0124196)
(0.0982252 -0.00143068 0.00918747)
(0.0964079 -0.00113275 0.00729861)
(0.0955946 -0.000829284 0.00775096)
(0.0943814 -0.000498012 0.00898643)
(0.0919217 -0.000193279 0.00891746)
(0.0882715 -8.48574e-05 0.00720544)
(0.0831747 -0.000301261 0.00547842)
(0.0759082 -0.000879341 0.00551365)
(0.0671857 -0.00151199 0.00719164)
(0.0600099 -0.0017785 0.00817499)
(0.0559624 -0.00160375 0.00702621)
(0.0539437 -0.00116898 0.0049839)
(0.0530468 -0.000672187 0.00357155)
(0.0531541 -0.000270522 0.00299951)
(0.054333 -7.55243e-05 0.00283885)
(0.056495 -0.000149032 0.00269446)
(0.0594624 -0.000471062 0.0022444)
(0.0633207 -0.00104856 0.00113693)
(0.0685593 -0.0016751 -0.00110601)
(0.0751503 -0.0019458 -0.00482834)
(0.0820865 -0.00169831 -0.00950403)
(0.0881103 -0.00124389 -0.0135761)
(0.0920283 -0.000816087 -0.0154259)
(0.0927023 -0.000513729 -0.0146267)
(0.0899055 -0.000577914 -0.0122248)
(0.0846118 -0.000907479 -0.00992879)
(0.0780879 -0.00104889 -0.00910931)
(0.0710467 -0.000913107 -0.0101344)
(0.0642218 -0.000752917 -0.0121578)
(0.05911 -0.000585959 -0.0132161)
(0.0575771 -0.000186677 -0.011716)
(0.05999 0.000438591 -0.0082807)
(0.065236 0.000980041 -0.00465656)
(0.0722148 0.00118195 -0.0013117)
(0.0798934 0.00121438 0.00222979)
(0.0875874 0.00102032 0.00610985)
(0.0947535 0.00026809 0.010046)
(0.100249 -0.000675124 0.0131891)
(0.121698 -0.00200435 0.0135903)
(0.120241 -0.00202394 0.0143075)
(0.115934 -0.00184256 0.0114352)
(0.113253 -0.00152277 0.00781903)
(0.112922 -0.00112151 0.00686714)
(0.112804 -0.00068334 0.00857385)
(0.111355 -0.000291139 0.0100956)
(0.1089 -0.000116172 0.00904371)
(0.105516 -0.000230066 0.00627244)
(0.0994072 -0.000707085 0.00496233)
(0.0894113 -0.0014546 0.00674167)
(0.078271 -0.00206691 0.00916325)
(0.070171 -0.00215121 0.00881621)
(0.0658091 -0.00172204 0.00633872)
(0.0637143 -0.00110275 0.00436386)
(0.0630029 -0.000588348 0.00377096)
(0.0634504 -0.000342493 0.00407828)
(0.0648143 -0.000465634 0.00470243)
(0.066767 -0.00101004 0.00528146)
(0.0693914 -0.00202368 0.00549568)
(0.0736945 -0.00323896 0.00471434)
(0.0806003 -0.00398685 0.00200528)
(0.089629 -0.00383415 -0.00306432)
(0.0993413 -0.00297882 -0.00949623)
(0.107518 -0.00187708 -0.0146759)
(0.111881 -0.00101714 -0.016286)
(0.111446 -0.000876001 -0.0146254)
(0.106855 -0.00125812 -0.0117341)
(0.10012 -0.00138895 -0.00972131)
(0.0925787 -0.00109444 -0.0097474)
(0.0846521 -0.000819033 -0.0117361)
(0.0769555 -0.000733136 -0.0141747)
(0.0713929 -0.000562376 -0.015045)
(0.0700731 -0.000171437 -0.013725)
(0.0732854 0.000168895 -0.0112754)
(0.0801555 0.000256238 -0.00830765)
(0.0890984 0.000295813 -0.00455935)
(0.0987575 0.000184672 -0.000167929)
(0.108489 -0.000514616 0.00464423)
(0.117196 -0.00147333 0.00966603)
(0.13327 -0.00329259 0.00793127)
(0.134442 -0.0024291 0.0130514)
(0.1282 -0.00189229 0.0134883)
(0.123045 -0.00184375 0.00975649)
(0.123415 -0.00152567 0.00641599)
(0.125734 -0.000876656 0.00699766)
(0.126071 -0.00036016 0.0099475)
(0.124584 -0.000228963 0.0109352)
(0.123376 -0.000253688 0.00795656)
(0.120689 -0.000387236 0.00460128)
(0.112927 -0.000926596 0.00527278)
(0.100233 -0.00175413 0.00889444)
(0.0873113 -0.00234745 0.0103358)
(0.0785499 -0.0022146 0.00807786)
(0.0741584 -0.00156872 0.00532425)
(0.0723541 -0.000936598 0.00422676)
(0.071983 -0.000614754 0.00457588)
(0.072378 -0.000755528 0.0055627)
(0.0729225 -0.00153721 0.00673409)
(0.0733957 -0.00315561 0.00808363)
(0.0748892 -0.00525765 0.0093371)
(0.0794686 -0.00673879 0.00916974)
(0.0877973 -0.00691973 0.00610179)
(0.0991888 -0.00598696 -0.000211871)
(0.112491 -0.00423017 -0.0082625)
(0.123501 -0.00225499 -0.0141741)
(0.127758 -0.00140045 -0.0155125)
(0.12504 -0.00173607 -0.0136507)
(0.118881 -0.0018999 -0.0111027)
(0.112153 -0.0012903 -0.00970188)
(0.105193 -0.000657145 -0.0104207)
(0.0975897 -0.000521686 -0.0127778)
(0.0898228 -0.000517867 -0.0153445)
(0.0839817 -0.000538178 -0.0171724)
(0.0823348 -0.000857594 -0.0179258)
(0.0859486 -0.00139056 -0.016934)
(0.093627 -0.0015946 -0.0138361)
(0.102833 -0.00166909 -0.00960663)
(0.112464 -0.00234061 -0.00493712)
(0.123644 -0.0033482 0.000920049)
(0.134199 -0.00593868 -0.000815756)
(0.141243 -0.0034006 0.00775996)
(0.136454 -0.00142109 0.0126905)
(0.127212 -0.00152182 0.0118319)
(0.125073 -0.00208612 0.00747182)
(0.130526 -0.00145249 0.00538126)
(0.134917 -0.000410586 0.00789473)
(0.133668 -0.000219083 0.0112332)
(0.131431 -0.000635596 0.010167)
(0.132737 -0.000603838 0.00531708)
(0.131928 -0.000350239 0.00358885)
(0.123432 -0.000811209 0.00720581)
(0.10887 -0.00173943 0.0106861)
(0.0945426 -0.00223709 0.00982131)
(0.0854707 -0.00191685 0.00685806)
(0.0815698 -0.00127491 0.00508727)
(0.080581 -0.000846435 0.00493469)
(0.0808266 -0.000913224 0.00551804)
(0.0812482 -0.00179987 0.00633447)
(0.0811088 -0.00388288 0.0077562)
(0.0803618 -0.00689817 0.0103252)
(0.080961 -0.00935877 0.013085)
(0.0856604 -0.0100116 0.0134066)
(0.0950519 -0.00917977 0.00952972)
(0.10888 -0.00725022 0.00180534)
(0.124988 -0.00443102 -0.00694414)
(0.13555 -0.00242199 -0.0124413)
(0.134947 -0.00228457 -0.0135314)
(0.127322 -0.00258447 -0.012041)
(0.120708 -0.00199014 -0.00985185)
(0.117724 -0.000930594 -0.00865941)
(0.115135 -0.000156182 -0.0095566)
(0.10992 0.000173747 -0.0122025)
(0.1028 1.31021e-05 -0.0161654)
(0.0965375 -0.00112214 -0.0209709)
(0.0944593 -0.00286946 -0.0240694)
(0.0982381 -0.00387249 -0.0229914)
(0.105634 -0.00396099 -0.0189514)
(0.113209 -0.00467149 -0.0143022)
(0.12206 -0.00617307 -0.0087406)
(0.131838 -0.0092428 -0.00745541)
(0.141901 -0.00565286 0.00177673)
(0.142577 -0.00130138 0.00926765)
(0.133476 -0.000297332 0.0113516)
(0.125433 -0.00201039 0.00821972)
(0.128147 -0.0025555 0.00439826)
(0.137239 -0.000919375 0.00477793)
(0.140369 0.000224836 0.00854987)
(0.134936 -0.000690828 0.0102266)
(0.131426 -0.00198893 0.00664721)
(0.136507 -0.00154422 0.00276543)
(0.139873 -0.000447076 0.00485397)
(0.13178 -0.000526473 0.00955342)
(0.115608 -0.00127301 0.0106891)
(0.100497 -0.00161934 0.00859733)
(0.091954 -0.00142098 0.00681199)
(0.089302 -0.00113863 0.00626939)
(0.0898845 -0.00117571 0.00614076)
(0.091598 -0.00199685 0.00602868)
(0.0927901 -0.00409838 0.0066295)
(0.0921314 -0.00745715 0.00906418)
(0.0900717 -0.0107678 0.0132563)
(0.0899202 -0.0122524 0.0167074)
(0.0948796 -0.0117787 0.0161222)
(0.105871 -0.0100237 0.0102342)
(0.122024 -0.0070504 0.000910299)
(0.136109 -0.00384843 -0.00751909)
(0.136771 -0.00224516 -0.0115094)
(0.124975 -0.00203961 -0.0109202)
(0.11343 -0.00202256 -0.00781399)
(0.110762 -0.00167634 -0.00480927)
(0.116218 -0.000794537 -0.00390997)
(0.121531 0.000554308 -0.00585849)
(0.12033 0.00131035 -0.0106862)
(0.11432 8.08408e-05 -0.0182131)
(0.108144 -0.00298391 -0.0257527)
(0.106248 -0.00546636 -0.028664)
(0.110126 -0.00610005 -0.0259737)
(0.11653 -0.00671654 -0.0208073)
(0.12278 -0.0086927 -0.0149587)
(0.13191 -0.0119816 -0.0111389)
(0.140554 -0.00891895 -0.00296263)
(0.145862 -0.00264105 0.00468576)
(0.141719 0.000728575 0.00857273)
(0.131876 -0.000669909 0.00738259)
(0.126601 -0.00309691 0.00357964)
(0.132683 -0.0024581 0.00200637)
(0.142212 0.000153659 0.00472748)
(0.142525 0.000500579 0.00800936)
(0.134502 -0.00242664 0.0071002)
(0.131691 -0.00475244 0.00325949)
(0.140855 -0.00340023 0.00319337)
(0.146737 -0.000832238 0.00764243)
(0.137597 0.00011159 0.0103426)
(0.120441 -0.000205023 0.00955777)
(0.106281 -0.000737239 0.0084971)
(0.0994514 -0.00117064 0.00844968)
(0.098705 -0.00170624 0.00831174)
(0.101574 -0.00262987 0.00739044)
(0.105188 -0.00442837 0.00648265)
(0.106255 -0.00741479 0.00747612)
(0.103499 -0.0108545 0.0114435)
(0.0997932 -0.0130874 0.0165527)
(0.0997415 -0.0133785 0.018875)
(0.106163 -0.0121773 0.0154108)
(0.118971 -0.00947113 0.00657584)
(0.132258 -0.00535178 -0.00350766)
(0.134188 -0.00169638 -0.0096697)
(0.122326 -4.58848e-05 -0.00977443)
(0.107936 -0.000409026 -0.00536078)
(0.1017 -0.00172086 4.87204e-05)
(0.106561 -0.0020541 0.00330077)
(0.118505 -0.000217109 0.00276303)
(0.127597 0.00213604 -0.00207407)
(0.128243 0.00208973 -0.0109575)
(0.12344 -0.00132291 -0.0213641)
(0.118543 -0.0053062 -0.0283815)
(0.117432 -0.00713909 -0.0289884)
(0.120719 -0.00806577 -0.0247268)
(0.125777 -0.0103446 -0.0184107)
(0.133383 -0.0135654 -0.0135279)
(0.139995 -0.0121768 -0.00602255)
(0.146318 -0.00571739 0.000176328)
(0.147187 5.56445e-05 0.00432541)
(0.14088 0.000740373 0.00519902)
(0.131836 -0.0020442 0.00288243)
(0.129136 -0.00349239 0.000515081)
(0.13642 -0.0014603 0.00157348)
(0.145044 0.000853735 0.00508438)
(0.144472 -0.000830035 0.00653228)
(0.136588 -0.005581 0.00424971)
(0.136275 -0.00772596 0.00289109)
(0.147084 -0.00471924 0.00609368)
(0.150744 -0.000476186 0.00943139)
(0.139903 0.00143513 0.00951593)
(0.124329 0.00123736 0.00898624)
(0.113038 -7.03009e-06 0.00982833)
(0.108354 -0.00183842 0.010589)
(0.109998 -0.00385348 0.00964031)
(0.115924 -0.0056351 0.00727588)
(0.12049 -0.00761391 0.00596515)
(0.118904 -0.0102242 0.00843191)
(0.112898 -0.0125313 0.014012)
(0.108233 -0.0134624 0.0185417)
(0.109192 -0.0130371 0.017745)
(0.116869 -0.0109273 0.0105241)
(0.127181 -0.00638915 0.000173822)
(0.130447 -0.0010894 -0.00758679)
(0.122517 0.00215727 -0.00927773)
(0.110683 0.00207991 -0.00536971)
(0.102918 -0.0004244 0.00132023)
(0.103243 -0.00249711 0.00697418)
(0.112339 -0.00152521 0.00882778)
(0.125153 0.00177428 0.00588464)
(0.133722 0.00362634 -0.00211588)
(0.135045 0.00124113 -0.0133359)
(0.132084 -0.00345727 -0.0231716)
(0.128648 -0.0064562 -0.0276754)
(0.127018 -0.00801278 -0.0265318)
(0.128694 -0.0107152 -0.0211523)
(0.135737 -0.0136049 -0.016322)
(0.141349 -0.0141878 -0.00845111)
(0.146433 -0.00938443 -0.00299982)
(0.148461 -0.00268062 0.000320643)
(0.14578 0.000577918 0.00241582)
(0.138812 -0.000479459 0.00227611)
(0.131701 -0.0027691 0.000335683)
(0.131717 -0.00285226 5.11671e-05)
(0.140064 -0.000993279 0.00275465)
(0.147671 -0.000844019 0.00533644)
(0.145477 -0.00462204 0.00468071)
(0.138838 -0.00907943 0.00292922)
(0.141825 -0.00878073 0.00468591)
(0.150826 -0.00364861 0.00815274)
(0.150636 0.00120981 0.00884459)
(0.14009 0.00312133 0.0083286)
(0.127843 0.00243343 0.00954181)
(0.119476 -0.000319787 0.0108561)
(0.117298 -0.00442186 0.00957402)
(0.122967 -0.0076631 0.0061327)
(0.132154 -0.00870473 0.00323354)
(0.134903 -0.00948813 0.00416535)
(0.128646 -0.0110732 0.00955394)
(0.120008 -0.0122312 0.0156788)
(0.115249 -0.0121248 0.0176217)
(0.11686 -0.0106226 0.01308)
(0.123125 -0.00667198 0.00402035)
(0.127234 -0.000805539 -0.00472183)
(0.124093 0.00366201 -0.00890907)
(0.116731 0.0041627 -0.00741783)
(0.110574 0.00136132 -0.00187731)
(0.108454 -0.00167275 0.00458488)
(0.11212 -0.00196267 0.00878838)
(0.12126 0.000847109 0.00895699)
(0.132096 0.00368593 0.00426823)
(0.140257 0.0031253 -0.00499421)
(0.142971 -0.00091708 -0.0156315)
(0.14074 -0.00450492 -0.0230613)
(0.136259 -0.00662205 -0.0255502)
(0.133391 -0.0097773 -0.0231735)
(0.140442 -0.0128006 -0.0185816)
(0.144824 -0.0148216 -0.0112664)
(0.147998 -0.0121312 -0.00564808)
(0.147688 -0.00625293 -0.00252381)
(0.145413 -0.00121727 0.000212233)
(0.141903 0.000366547 0.00203878)
(0.136807 -0.000977266 0.00126089)
(0.133466 -0.00278204 3.12943e-05)
(0.137219 -0.00311139 0.00146422)
(0.145507 -0.00293081 0.00433772)
(0.148592 -0.00479894 0.00484706)
(0.143495 -0.00879312 0.00275916)
(0.139938 -0.0106659 0.00264002)
(0.144641 -0.00717243 0.00559794)
(0.148847 -0.000956845 0.00768007)
(0.144276 0.00353731 0.00814142)
(0.134578 0.00478167 0.00910732)
(0.126656 0.00262919 0.00908077)
(0.122982 -0.00265952 0.00555532)
(0.12538 -0.00858407 0.000576231)
(0.136212 -0.0105682 -0.00244495)
(0.146366 -0.00923535 -0.00141984)
(0.144243 -0.00887211 0.00421099)
(0.133314 -0.00993993 0.0114745)
(0.123304 -0.0100161 0.0157034)
(0.119386 -0.008467 0.0140106)
(0.121514 -0.0051433 0.00730602)
(0.125267 0.000103197 -0.00105818)
(0.125639 0.00473071 -0.00755047)
(0.12259 0.00568198 -0.0096828)
(0.119167 0.00293866 -0.00705048)
(0.117434 -0.000404136 -0.00174281)
(0.118175 -0.00140118 0.0031616)
(0.121929 0.000360667 0.00582733)
(0.129174 0.0024208 0.0052061)
(0.139677 0.00249538 9.77789e-05)
(0.148703 0.000420713 -0.0089083)
(0.150044 -0.00199797 -0.0177072)
(0.145191 -0.0042392 -0.0227255)
(0.140274 -0.00810381 -0.0231837)
(0.147382 -0.0114358 -0.019306)
(0.150276 -0.0139639 -0.0136397)
(0.150942 -0.0126773 -0.00892224)
(0.147261 -0.00848464 -0.00565299)
(0.14305 -0.00353845 -0.00164363)
(0.140985 -8.24317e-05 0.00227479)
(0.139259 0.000481593 0.00277169)
(0.137396 -0.0015104 0.000870579)
(0.138806 -0.00397044 0.000985134)
(0.14475 -0.00485793 0.00392519)
(0.149365 -0.0052682 0.00546625)
(0.146998 -0.00748163 0.00299777)
(0.140461 -0.0100354 0.000603071)
(0.137144 -0.00876066 0.00254908)
(0.136662 -0.00341486 0.0066538)
(0.133663 0.00195609 0.00947018)
(0.12938 0.00473892 0.00959092)
(0.127871 0.00439288 0.00583245)
(0.128069 0.000190044 -0.000886215)
(0.128008 -0.00709959 -0.00622237)
(0.13397 -0.0122745 -0.00729501)
(0.147719 -0.0109384 -0.00493842)
(0.153943 -0.00760774 0.000513399)
(0.145271 -0.00698752 0.00764932)
(0.131375 -0.00704421 0.0130524)
(0.122666 -0.00532425 0.0137605)
(0.12192 -0.00215221 0.00953529)
(0.125939 0.00180852 0.00238818)
(0.129467 0.00522105 -0.00520098)
(0.129863 0.00590777 -0.0104061)
(0.128813 0.00350458 -0.0112446)
(0.128401 0.000607307 -0.00858548)
(0.128725 -0.00014655 -0.00484392)
(0.129599 0.000912505 -0.00114715)
(0.132339 0.00101125 0.00165097)
(0.139495 -0.000399439 0.000837442)
(0.149727 -0.00100687 -0.00509847)
(0.154937 -0.00063982 -0.0133509)
(0.152246 -0.00181094 -0.019722)
(0.147819 -0.00618187 -0.0220107)
(0.154454 -0.0091744 -0.0183717)
(0.156311 -0.0115067 -0.0147014)
(0.155951 -0.0110562 -0.0115823)
(0.15023 -0.00892107 -0.00879627)
(0.143408 -0.00524268 -0.00390427)
(0.139988 -0.000932719 0.00184386)
(0.139291 0.0015048 0.00413693)
(0.139535 0.000235089 0.00273924)
(0.141296 -0.00347583 0.00183179)
(0.145518 -0.00594937 0.00394111)
(0.149516 -0.00579119 0.00597898)
(0.148343 -0.00567554 0.00375668)
(0.140826 -0.00692109 -0.000433658)
(0.131533 -0.00698901 -0.000804037)
(0.125292 -0.00398315 0.00295116)
(0.122591 0.000199553 0.00602079)
(0.123762 0.00313343 0.00501959)
(0.128405 0.00412705 -9.89115e-05)
(0.13271 0.00211781 -0.00624753)
(0.133599 -0.0042103 -0.00904588)
(0.135323 -0.0121892 -0.00686812)
(0.144973 -0.0143387 -0.00242533)
(0.155014 -0.00979261 0.00225791)
(0.151552 -0.00559379 0.00742079)
(0.137722 -0.00410456 0.0118577)
(0.126144 -0.00242974 0.0130268)
(0.123131 0.000508793 0.0100522)
(0.126403 0.00342415 0.00420487)
(0.130421 0.00513321 -0.00238101)
(0.131547 0.00476837 -0.00719311)
(0.13124 0.0024292 -0.00888561)
(0.132582 -5.31779e-06 -0.00856326)
(0.135339 -0.000291773 -0.00711299)
(0.137543 0.000897006 -0.00377543)
(0.138724 0.000356957 0.000594998)
(0.140884 -0.00216598 0.0016951)
(0.146653 -0.00272753 -0.00284569)
(0.153412 -0.000517254 -0.0102072)
(0.156032 -5.09746e-05 -0.0164238)
(0.154923 -0.00403895 -0.0194457)
(0.159892 -0.00636144 -0.0159544)
(0.161149 -0.00835503 -0.0145486)
(0.161757 -0.00846168 -0.0129746)
(0.15657 -0.00791397 -0.0113)
(0.14742 -0.00575109 -0.00708528)
(0.140959 -0.0014636 -0.000480901)
(0.139329 0.00222941 0.00449804)
(0.140599 0.00199507 0.00552999)
(0.142915 -0.00183769 0.00435002)
(0.145764 -0.00533261 0.00418857)
(0.148305 -0.00567381 0.00549445)
(0.147877 -0.00450537 0.00493248)
(0.142414 -0.00414666 0.00118794)
(0.13373 -0.00373483 -0.00232968)
(0.126668 -0.00194478 -0.00261665)
(0.124442 0.000282761 -0.00113192)
(0.126797 0.00163771 -0.000848738)
(0.131857 0.00243668 -0.00315841)
(0.1371 0.00225815 -0.00695714)
(0.140338 -0.00157156 -0.00875533)
(0.142316 -0.00955061 -0.00611574)
(0.147033 -0.0155216 -0.000545602)
(0.153695 -0.0131324 0.0044277)
(0.15268 -0.00645597 0.00801042)
(0.141856 -0.00186792 0.0112443)
(0.130339 0.000577615 0.012977)
(0.125117 0.00263386 0.0111731)
(0.1252 0.00446899 0.00643373)
(0.126097 0.00542145 0.00163659)
(0.125689 0.00461209 -0.000879476)
(0.125823 0.00186147 -0.00151619)
(0.128879 -0.00103235 -0.00232181)
(0.134146 -0.00148762 -0.00292362)
(0.138386 0.000139222 -0.000460763)
(0.139539 0.000457426 0.0039584)
(0.139045 -0.00144008 0.00466324)
(0.140668 -0.0024649 -0.000600582)
(0.14655 -0.00102924 -0.00769303)
(0.154204 -0.000127115 -0.0127865)
(0.158877 -0.00250894 -0.0154545)
(0.16213 -0.00360738 -0.0122078)
(0.164926 -0.00492716 -0.0127403)
(0.166859 -0.00555539 -0.0130334)
(0.162952 -0.00590354 -0.0130546)
(0.152825 -0.00471915 -0.0103458)
(0.143502 -0.00111664 -0.00384993)
(0.139737 0.00271854 0.00296939)
(0.140728 0.00319788 0.00646506)
(0.143355 -0.000160138 0.00639804)
(0.145401 -0.00394496 0.00522991)
(0.146156 -0.00511944 0.00515668)
(0.144897 -0.00409369 0.00509016)
(0.140856 -0.00277451 0.00282055)
(0.135417 -0.00153589 -0.00102492)
(0.131936 -9.82048e-05 -0.0037215)
(0.132083 0.000857639 -0.00382652)
(0.134208 0.00073027 -0.00234162)
(0.136713 0.000578118 -0.00179153)
(0.139777 0.00112142 -0.00380207)
(0.142639 9.32851e-05 -0.00606559)
(0.144751 -0.00523016 -0.00513725)
(0.147711 -0.0121886 -0.00105846)
(0.152024 -0.0133493 0.00363206)
(0.152828 -0.00738416 0.00737924)
(0.146247 -0.000428898 0.010234)
(0.136638 0.0039263 0.0116106)
(0.129584 0.00579231 0.0108015)
(0.125629 0.00594411 0.00840647)
(0.123265 0.00501706 0.0057666)
(0.122446 0.0031232 0.00390475)
(0.124243 -1.47815e-05 0.00293598)
(0.128648 -0.00331571 0.00197098)
(0.133928 -0.00429222 0.000845963)
(0.137708 -0.00199054 0.00164738)
(0.138724 0.000817805 0.00482656)
(0.138083 0.0012932 0.00627725)
(0.13832 0.000336996 0.00231725)
(0.142115 -1.23778e-05 -0.00428998)
(0.149892 -0.000212022 -0.00895047)
(0.157741 -0.00157405 -0.0110516)
(0.161149 -0.00210941 -0.00956587)
(0.165664 -0.00253883 -0.0105083)
(0.168799 -0.00293879 -0.011451)
(0.166582 -0.00334812 -0.0128531)
(0.157842 -0.0023173 -0.0126872)
(0.148287 0.00070028 -0.00820935)
(0.142798 0.00352651 -0.00088855)
(0.14133 0.00343258 0.00497649)
(0.141766 0.000562259 0.00695625)
(0.142474 -0.00228618 0.00625268)
(0.142618 -0.00302239 0.00558125)
(0.141648 -0.00231978 0.00524527)
(0.13962 -0.00146167 0.00339172)
(0.138038 -0.000578573 2.18107e-06)
(0.138614 0.000130562 -0.00258811)
(0.140609 -0.000247099 -0.00280392)
(0.141081 -0.00166166 -0.0010659)
(0.139283 -0.0022535 0.000895876)
(0.138025 -0.000633334 0.00130337)
(0.139293 0.000743057 0.00075747)
(0.142649 -0.00241562 0.0014197)
(0.146759 -0.00922361 0.00381925)
(0.150066 -0.0123426 0.00624823)
(0.150258 -0.00728507 0.00724332)
(0.145195 0.00119944 0.00819698)
(0.13701 0.00698596 0.00945887)
(0.129779 0.008277 0.00962409)
(0.125048 0.00660612 0.00845013)
(0.122542 0.00452665 0.00730894)
(0.122239 0.00319742 0.00698351)
(0.124463 0.00156664 0.00673813)
(0.128794 -0.00112718 0.00562686)
(0.133614 -0.00316736 0.00423591)
(0.136935 -0.00202656 0.00430057)
(0.137992 0.0015082 0.00623274)
(0.138196 0.00383437 0.00740634)
(0.139331 0.00385879 0.00484037)
(0.142397 0.00270371 -0.000508098)
(0.148126 0.00102038 -0.00532484)
(0.155257 -0.000847514 -0.00808656)
(0.159395 -0.00274599 -0.00853701)
(0.164911 -0.00179459 -0.00934851)
(0.167524 -0.000307713 -0.00984444)
(0.166035 0.000147949 -0.0108598)
(0.161197 0.000371866 -0.011833)
(0.155955 0.00204311 -0.0104092)
(0.15194 0.00425004 -0.00566967)
(0.148326 0.00417886 -3.45773e-05)
(0.144418 0.00134151 0.00356118)
(0.14094 -0.00172842 0.00466568)
(0.139102 -0.00279446 0.00495024)
(0.139498 -0.00221416 0.00535354)
(0.141959 -0.00118875 0.00492789)
(0.146126 -0.000132111 0.00294016)
(0.150621 0.000469442 0.000481469)
(0.152367 -0.000351833 -0.000358255)
(0.14932 -0.00193598 0.00166933)
(0.143322 -0.00209006 0.00554284)
(0.13911 0.000165488 0.00776857)
(0.139561 0.00262553 0.0057276)
(0.14312 0.00134555 0.00173689)
(0.147011 -0.00454552 0.00103994)
(0.149464 -0.00933463 0.00469221)
(0.148971 -0.00637597 0.00776021)
(0.144446 0.00241559 0.00780186)
(0.137241 0.00962192 0.00702917)
(0.131021 0.0117116 0.00694704)
(0.12775 0.00993527 0.00694164)
(0.126832 0.00692376 0.00618463)
(0.127173 0.00449045 0.00486404)
(0.128456 0.0027621 0.00390799)
(0.130885 0.00115391 0.00384912)
(0.134151 0.000115129 0.00417544)
(0.13751 0.000733211 0.00465366)
(0.140046 0.00294011 0.00589848)
(0.141223 0.00489637 0.00746242)
(0.141784 0.00520135 0.00705649)
(0.143077 0.00373783 0.00337485)
(0.146554 0.0010535 -0.00195985)
(0.152557 -0.00165882 -0.00629412)
(0.157477 -0.00603844 -0.00734683)
(0.162282 -0.00500264 -0.00852091)
(0.164467 -0.00124578 -0.00821198)
(0.162947 0.00188974 -0.00819921)
(0.15846 0.00300276 -0.00882076)
(0.1541 0.0035553 -0.00879062)
(0.152246 0.00465699 -0.00706133)
(0.152176 0.00509578 -0.00404042)
(0.151324 0.00348432 -0.00103278)
(0.148183 0.00037905 0.00107031)
(0.143782 -0.00280025 0.00256024)
(0.140708 -0.00561789 0.00405875)
(0.141063 -0.00795912 0.00524069)
(0.145489 -0.00876994 0.0051781)
(0.15234 -0.00716238 0.00358489)
(0.156847 -0.00409795 0.00156495)
(0.154966 -0.00156566 0.00146687)
(0.148138 0.000444348 0.00383125)
(0.141689 0.00313483 0.00544669)
(0.139284 0.00550255 0.00293609)
(0.140131 0.0050639 -0.00235336)
(0.142523 0.00088512 -0.00521314)
(0.145614 -0.00449644 -0.00232318)
(0.147166 -0.00577323 0.00324298)
(0.145393 -0.000425556 0.0064747)
(0.141683 0.00743721 0.00662605)
(0.139141 0.0125369 0.00523302)
(0.138881 0.0132204 0.002915)
(0.139242 0.0108138 0.000215426)
(0.138774 0.00748747 -0.00149773)
(0.137767 0.00463726 -0.0012267)
(0.137314 0.00268451 0.000741876)
(0.137741 0.00183469 0.00305097)
(0.138444 0.00221074 0.00464028)
(0.138921 0.00324414 0.00577754)
(0.139138 0.0039524 0.00699674)
(0.139704 0.00395772 0.00741509)
(0.141635 0.00300458 0.00557342)
(0.145677 0.000457374 0.00133359)
(0.151429 -0.00340094 -0.00371961)
(0.157362 -0.00467718 -0.00512059)
(0.157246 -0.0019422 -0.00798707)
(0.153739 0.00225272 -0.00863392)
(0.14932 0.00531708 -0.00826174)
(0.145827 0.00590557 -0.00764125)
(0.144044 0.00489265 -0.00716826)
(0.144151 0.00366976 -0.00703643)
(0.146048 0.00267718 -0.00683605)
(0.14932 0.00161142 -0.00573916)
(0.152868 0.000315383 -0.00350293)
(0.154733 -0.00118397 -0.000846453)
(0.153683 -0.00331858 0.00152654)
(0.150778 -0.00649847 0.00368229)
(0.148601 -0.00972204 0.00588607)
(0.149155 -0.010936 0.00760369)
(0.151552 -0.00913156 0.00770831)
(0.152353 -0.00502325 0.00601115)
(0.149413 1.71042e-05 0.00390141)
(0.144512 0.00415084 0.00226954)
(0.140897 0.00538639 0.000237373)
(0.139705 0.00302176 -0.00265641)
(0.140785 -0.00131395 -0.00446456)
(0.143874 -0.00474932 -0.00276593)
(0.147087 -0.00494091 0.00198093)
(0.147939 -0.00124092 0.00642788)
(0.147022 0.00457111 0.00781841)
(0.146867 0.00937128 0.00545397)
(0.147906 0.0114721 0.000255842)
(0.148442 0.0108679 -0.00542332)
(0.147673 0.00810823 -0.00901726)
(0.146176 0.00438456 -0.00920721)
(0.144557 0.00174508 -0.00625068)
(0.143146 0.00163128 -0.00150579)
(0.141968 0.00328321 0.00325128)
(0.140758 0.0044276 0.00708224)
(0.139653 0.00347112 0.0100873)
(0.139566 0.000909319 0.0118907)
(0.141854 -0.00174765 0.0110704)
(0.147001 -0.00378101 0.00673053)
(0.153237 -0.00498354 0.000347499)
(0.158068 -0.000309952 0.00471308)
(0.161083 0.00316336 -0.000160282)
(0.16213 0.00717073 -0.00435407)
(0.1602 0.00941658 -0.00786033)
(0.155907 0.00881924 -0.0103619)
(0.151321 0.00634855 -0.0113638)
(0.148457 0.00341813 -0.0109831)
(0.14803 0.000716704 -0.00982255)