/*--------------------------------*- C++ -*----------------------------------*\
| =========                 |                                                 |
| \\      /  F ield         | OpenFOAM: The Open Source CFD Toolbox           |
|  \\    /   O peration     | Version:  2306                                  |
|   \\  /    A nd           | Website:  www.openfoam.com                      |
|    \\/     M anipulation  |                                                 |
\*---------------------------------------------------------------------------*/
FoamFile
{
    version     2.0;
    format      ascii;
    arch        "LSB;label=32;scalar=64";
    class       volVectorField;
    location    "1";
    object      U_0;
}
// * * * * * * * * * * * * * * * * * * * * * * * * * * * * * * * * * * * * * //

dimensions      [0 1 -1 0 0 0 0];

internalField   nonuniform List<vector> 
60000
(
(0.0105626 -5.58211e-06 0.00241884)
(0.0105124 -2.14344e-05 0.00203396)
(0.0104001 -2.06264e-05 0.00178512)
(0.0102666 -1.33908e-05 0.00172083)
(0.0100917 -1.18577e-05 0.0016591)
(0.00974471 -1.43812e-05 0.00146333)
(0.00908657 -1.30265e-05 0.00120292)
(0.00807207 -9.88233e-06 0.00104903)
(0.00693029 -1.16914e-05 0.00104244)
(0.0061027 -1.74462e-05 0.00113297)
(0.00579153 -2.63424e-05 0.00125081)
(0.0058281 -2.93275e-05 0.00126652)
(0.00595939 -2.63853e-05 0.00104899)
(0.00605685 -1.78728e-05 0.000680659)
(0.00615027 -5.39053e-06 0.000342788)
(0.0063046 4.91714e-06 9.78369e-05)
(0.00655062 1.54777e-05 -9.32331e-05)
(0.00686828 2.0599e-05 -0.000302107)
(0.00722607 2.08919e-05 -0.000603852)
(0.00762598 1.58777e-05 -0.00102338)
(0.0081237 1.03057e-05 -0.00153989)
(0.00872379 5.17976e-06 -0.00205875)
(0.00929188 2.95024e-06 -0.0024377)
(0.00961548 -1.80198e-07 -0.00257645)
(0.00949157 -4.00464e-06 -0.00251289)
(0.00886086 -2.22183e-07 -0.00236721)
(0.00794919 5.67499e-06 -0.00220703)
(0.00713063 -4.13406e-06 -0.00208662)
(0.00657902 -9.9174e-06 -0.00207677)
(0.00627783 -1.58788e-06 -0.00210333)
(0.00624611 7.69666e-06 -0.00198243)
(0.00650552 1.32772e-05 -0.00153605)
(0.00699799 2.688e-05 -0.000777951)
(0.00760977 4.07035e-05 -2.24292e-07)
(0.00826681 5.13919e-05 0.000530965)
(0.00893925 5.36752e-05 0.000904709)
(0.00958186 5.89527e-05 0.00136616)
(0.0100852 6.44928e-05 0.00195825)
(0.0103859 5.26035e-05 0.00248348)
(0.0105301 2.56739e-05 0.00265)
(0.0326484 -0.000139607 0.00609954)
(0.0324029 -0.000209777 0.00503031)
(0.0319289 -0.000191898 0.0044598)
(0.0314715 -0.000139563 0.00447405)
(0.0309361 -9.42018e-05 0.00449869)
(0.02986 -4.97626e-05 0.00406844)
(0.027896 -7.35768e-06 0.00334605)
(0.0250416 -6.47947e-06 0.0028646)
(0.0218993 -8.80245e-05 0.0028562)
(0.0194707 -0.000213336 0.00316168)
(0.0182612 -0.000291176 0.00343314)
(0.0179406 -0.000282796 0.00329715)
(0.0179387 -0.000222576 0.00260969)
(0.0180061 -0.000139882 0.00169129)
(0.0182277 -5.17429e-05 0.000920577)
(0.0186942 1.909e-05 0.000351238)
(0.0194483 6.49799e-05 -0.000149633)
(0.0204749 7.45912e-05 -0.000749019)
(0.0217103 5.05867e-05 -0.00160086)
(0.0231443 4.0158e-07 -0.00276869)
(0.0248573 -4.87714e-05 -0.00420201)
(0.026749 -6.441e-05 -0.00564294)
(0.0284477 -4.26156e-05 -0.00668144)
(0.0294386 -1.67497e-05 -0.00700932)
(0.0291794 8.35109e-07 -0.00667884)
(0.0275215 1.13187e-05 -0.00605398)
(0.0250812 -2.74218e-05 -0.00550741)
(0.0226934 -0.000120544 -0.00528701)
(0.0207155 -0.000170964 -0.00543462)
(0.0193223 -0.000142578 -0.00560885)
(0.0188659 -7.86722e-05 -0.00526606)
(0.0194756 9.55831e-06 -0.00399665)
(0.020871 0.000140501 -0.00197083)
(0.0226561 0.000274592 4.5957e-05)
(0.0246202 0.000361776 0.00150608)
(0.0266636 0.000379929 0.00265724)
(0.0286397 0.000373801 0.00396437)
(0.0303359 0.000336122 0.00545006)
(0.0316195 0.00021231 0.00664427)
(0.0324193 2.66074e-05 0.00687539)
(0.0559867 -0.000447232 0.00918445)
(0.0554272 -0.000574921 0.00738261)
(0.0544602 -0.000516516 0.00628624)
(0.0536406 -0.000389666 0.00633066)
(0.0528228 -0.000273001 0.00667878)
(0.0512308 -0.000151221 0.00634636)
(0.0483821 -4.71388e-05 0.00529786)
(0.0442756 -4.79186e-05 0.00436608)
(0.0394579 -0.00023591 0.00420309)
(0.0350348 -0.00053669 0.00473063)
(0.0321047 -0.000719548 0.00523814)
(0.0307793 -0.000694784 0.00500863)
(0.0302766 -0.000546313 0.00396182)
(0.0300856 -0.000347095 0.0026724)
(0.0302698 -0.000140849 0.00165356)
(0.0309444 2.44685e-05 0.000917718)
(0.0321649 0.000110715 0.000252727)
(0.0339106 0.000108393 -0.000568603)
(0.0360853 2.38667e-05 -0.00176123)
(0.0386668 -0.00011928 -0.00346164)
(0.0417405 -0.000252907 -0.00566902)
(0.0450822 -0.000287209 -0.00805519)
(0.0481116 -0.000222711 -0.00994981)
(0.0501076 -0.000146012 -0.0107131)
(0.0502564 -8.88716e-05 -0.0102264)
(0.0482047 -6.70336e-05 -0.00901574)
(0.0446726 -0.000163376 -0.00786736)
(0.040752 -0.000345904 -0.00738412)
(0.0369939 -0.000435542 -0.00771958)
(0.0338114 -0.000378702 -0.00837018)
(0.0320448 -0.00024721 -0.00835078)
(0.0322859 -4.04942e-05 -0.00680191)
(0.034238 0.000269184 -0.0038871)
(0.0371433 0.00060055 -0.000774989)
(0.0405166 0.000814899 0.00164639)
(0.0441145 0.000866184 0.00360912)
(0.0476917 0.000832795 0.00568285)
(0.0509728 0.000682993 0.00792857)
(0.0536935 0.000342941 0.00978257)
(0.0554835 -9.80952e-05 0.0102937)
(0.0797639 -0.000896426 0.0119936)
(0.0787444 -0.00107079 0.00957706)
(0.0771186 -0.000959873 0.00748996)
(0.0759144 -0.000742416 0.00711741)
(0.074984 -0.000531759 0.00786703)
(0.0732712 -0.000301427 0.00813266)
(0.0702045 -0.000101821 0.00713568)
(0.0657606 -7.26459e-05 0.00565907)
(0.06004 -0.00034422 0.0049883)
(0.0535558 -0.000844559 0.00561628)
(0.0478678 -0.00121479 0.00664263)
(0.0444532 -0.00123087 0.00662333)
(0.042856 -0.00100202 0.00532865)
(0.0420769 -0.00066835 0.0037204)
(0.0419461 -0.000321972 0.00257251)
(0.0425795 -4.67042e-05 0.00187351)
(0.0440529 8.41209e-05 0.00131271)
(0.0463215 4.23914e-05 0.000602747)
(0.049267 -0.000142669 -0.0005297)
(0.0528945 -0.000448722 -0.0023427)
(0.057359 -0.000732728 -0.00501976)
(0.0623436 -0.000805954 -0.00835847)
(0.067043 -0.000666334 -0.0115151)
(0.0705849 -0.000480146 -0.0133706)
(0.0719703 -0.000316974 -0.013314)
(0.0705003 -0.000233527 -0.0117403)
(0.0666386 -0.000370275 -0.00979395)
(0.061552 -0.00063663 -0.00862256)
(0.0560517 -0.000748966 -0.00880034)
(0.0506675 -0.000665933 -0.00999908)
(0.0464861 -0.000514073 -0.0109858)
(0.0449067 -0.000252243 -0.0101715)
(0.0463764 0.000213616 -0.00716886)
(0.0500091 0.000771247 -0.00332998)
(0.0548154 0.00116816 -2.09159e-05)
(0.0602141 0.00128054 0.00277488)
(0.0657228 0.00124644 0.00562597)
(0.0710181 0.00097154 0.00866558)
(0.0756621 0.00036289 0.0114163)
(0.0788555 -0.000363303 0.0127949)
(0.10252 -0.00143109 0.0141515)
(0.100896 -0.00160298 0.0120379)
(0.0982989 -0.00144326 0.00878635)
(0.0966672 -0.00113809 0.00714213)
(0.0959106 -0.000828065 0.00782581)
(0.0945974 -0.000482601 0.00908183)
(0.0920022 -0.000176345 0.00886503)
(0.088211 -8.55552e-05 0.00705287)
(0.0828735 -0.000341637 0.00541494)
(0.0752976 -0.000957294 0.00564954)
(0.066487 -0.0015771 0.00739)
(0.0595589 -0.00178534 0.00820012)
(0.0557746 -0.00156339 0.00688469)
(0.0538847 -0.00111677 0.00483142)
(0.053073 -0.000630967 0.00348813)
(0.0532682 -0.000246214 0.00297518)
(0.0545262 -6.96444e-05 0.00283699)
(0.0567562 -0.000170668 0.0026819)
(0.0598047 -0.000520447 0.00218705)
(0.0637906 -0.00110866 0.000985036)
(0.0691968 -0.00170356 -0.00141524)
(0.0759057 -0.00190928 -0.00530187)
(0.0828385 -0.00162818 -0.0100286)
(0.0887482 -0.00117505 -0.0139616)
(0.0924527 -0.000768074 -0.0155347)
(0.092827 -0.000507209 -0.0144636)
(0.0897322 -0.000627036 -0.0119465)
(0.0842367 -0.00096358 -0.00974383)
(0.0775932 -0.00106269 -0.00912231)
(0.0704729 -0.000906093 -0.0103018)
(0.0636762 -0.000753395 -0.0123304)
(0.0588201 -0.000574483 -0.0132169)
(0.0577046 -0.000140499 -0.0115026)
(0.0604765 0.000505814 -0.00798114)
(0.0659675 0.00103511 -0.00435468)
(0.0730992 0.00122309 -0.000958293)
(0.0808298 0.00124547 0.00266322)
(0.088513 0.000988445 0.00658385)
(0.0955753 0.000166773 0.0104818)
(0.1008 -0.000791083 0.0134485)
(0.121965 -0.00206633 0.0138574)
(0.120007 -0.00204653 0.0141169)
(0.115747 -0.00186148 0.0109371)
(0.113422 -0.00153458 0.00744207)
(0.113296 -0.00111976 0.00684319)
(0.113114 -0.00066179 0.00874945)
(0.111535 -0.000269775 0.0101478)
(0.109022 -0.00011212 0.00884645)
(0.105474 -0.000256167 0.00605117)
(0.098931 -0.000778909 0.0050114)
(0.088507 -0.00154561 0.0070367)
(0.077396 -0.00211244 0.00933377)
(0.0696786 -0.00212506 0.0086958)
(0.0656235 -0.00166134 0.00613217)
(0.0636874 -0.00104955 0.00424656)
(0.0630759 -0.000558531 0.00375849)
(0.0635905 -0.00034013 0.00412448)
(0.0649917 -0.000504174 0.0047675)
(0.0669843 -0.00109586 0.00533409)
(0.0697263 -0.00213621 0.00548193)
(0.0742799 -0.00331692 0.0045329)
(0.0814773 -0.00396327 0.00155649)
(0.0906836 -0.00372072 -0.00376307)
(0.100376 -0.00283145 -0.0102269)
(0.108321 -0.00175778 -0.0151196)
(0.11231 -0.00097525 -0.0163087)
(0.111435 -0.000928317 -0.0143619)
(0.106526 -0.001328 -0.0114494)
(0.0996496 -0.0013968 -0.00961055)
(0.0920125 -0.00106868 -0.00984777)
(0.0839966 -0.000811131 -0.0119617)
(0.0763506 -0.000734305 -0.014367)
(0.0711164 -0.000542647 -0.0150749)
(0.0702761 -0.000136645 -0.0136097)
(0.0739205 0.000193518 -0.0110757)
(0.0811126 0.000284295 -0.00798371)
(0.0902189 0.000340264 -0.00409678)
(0.0999189 0.000167981 0.00037327)
(0.109628 -0.000619233 0.00523322)
(0.118068 -0.00158789 0.0102167)
(0.133976 -0.00326087 0.00867094)
(0.134116 -0.00236092 0.0133374)
(0.127521 -0.00190214 0.0131904)
(0.122894 -0.00188697 0.00921501)
(0.123813 -0.0015286 0.00616518)
(0.12616 -0.000841242 0.00716474)
(0.126251 -0.000334374 0.010182)
(0.124715 -0.00023062 0.0108252)
(0.123571 -0.000261367 0.00757544)
(0.120584 -0.000425164 0.00444255)
(0.112173 -0.0010075 0.00556095)
(0.0990373 -0.00184217 0.00925074)
(0.0863035 -0.00237267 0.0103373)
(0.0780438 -0.00216924 0.00784092)
(0.0740145 -0.00150659 0.00514202)
(0.0723845 -0.000898658 0.00418486)
(0.0720788 -0.000613527 0.00462887)
(0.0724664 -0.000810629 0.00566074)
(0.072964 -0.00166685 0.0068622)
(0.0734462 -0.00334062 0.00823058)
(0.0751577 -0.00540726 0.0094034)
(0.080156 -0.00675796 0.0089683)
(0.0889032 -0.00680256 0.00550695)
(0.100606 -0.00578516 -0.00113859)
(0.113928 -0.00399212 -0.00915914)
(0.124457 -0.00210682 -0.0146043)
(0.127974 -0.00142312 -0.0154596)
(0.124708 -0.00182225 -0.0133895)
(0.118421 -0.00189897 -0.010887)
(0.1117 -0.00122938 -0.00965456)
(0.104677 -0.000625328 -0.0105521)
(0.0969648 -0.000515829 -0.0130201)
(0.0892343 -0.000517319 -0.0156158)
(0.083706 -0.000561682 -0.0174078)
(0.0825678 -0.000914972 -0.0180211)
(0.0867037 -0.00142675 -0.0167613)
(0.094709 -0.00155929 -0.0134144)
(0.104002 -0.00166699 -0.0090748)
(0.11374 -0.00245269 -0.00430279)
(0.124987 -0.00343112 0.00172186)
(0.135506 -0.0057617 0.000224836)
(0.141336 -0.00311413 0.00857155)
(0.135503 -0.0013264 0.0128605)
(0.126498 -0.00162918 0.0114053)
(0.125372 -0.00215091 0.0069845)
(0.131259 -0.00138838 0.0053579)
(0.135185 -0.000345425 0.00823401)
(0.133462 -0.000239041 0.0113699)
(0.131454 -0.000669946 0.00978592)
(0.133041 -0.000597095 0.00489977)
(0.131768 -0.000368584 0.00372531)
(0.12243 -0.000891377 0.00767786)
(0.107443 -0.0018235 0.0108893)
(0.0934503 -0.00225507 0.00964706)
(0.0849946 -0.00187457 0.00663389)
(0.0815059 -0.00123241 0.00499188)
(0.0806843 -0.000839817 0.00493941)
(0.080942 -0.000975614 0.00556553)
(0.0812676 -0.00196388 0.00643089)
(0.0809686 -0.0041425 0.00796532)
(0.0801804 -0.00714904 0.0106296)
(0.0811087 -0.00944928 0.0132493)
(0.0863945 -0.00991898 0.0131447)
(0.0963608 -0.00897892 0.00875693)
(0.110657 -0.00695387 0.000724924)
(0.126621 -0.00415215 -0.00781805)
(0.136116 -0.00234783 -0.0127802)
(0.134355 -0.0023612 -0.0134623)
(0.126454 -0.0026029 -0.0118065)
(0.120245 -0.00191108 -0.00963647)
(0.117579 -0.00084056 -0.00859561)
(0.114907 -9.33564e-05 -0.0096912)
(0.109453 0.000194283 -0.0125382)
(0.102243 -5.30335e-05 -0.0167163)
(0.0962089 -0.00129153 -0.0215389)
(0.0946982 -0.00302812 -0.0242528)
(0.0990685 -0.00388665 -0.0226773)
(0.1067 -0.00394929 -0.01841)
(0.114318 -0.00481268 -0.0136797)
(0.123464 -0.00628209 -0.0079015)
(0.133224 -0.00903136 -0.00641078)
(0.142618 -0.00510979 0.00284205)
(0.141975 -0.000958588 0.0098164)
(0.132369 -0.000387064 0.0112022)
(0.12512 -0.00222346 0.0076962)
(0.128972 -0.00252554 0.00412406)
(0.138045 -0.000742598 0.00501078)
(0.14015 0.000248174 0.00886984)
(0.134249 -0.000845833 0.0100935)
(0.131523 -0.00207583 0.00616339)
(0.137231 -0.0014672 0.00267617)
(0.139834 -0.000391787 0.00532128)
(0.130585 -0.00058018 0.00994136)
(0.114025 -0.00135159 0.0106659)
(0.0994113 -0.00164742 0.00841894)
(0.0915698 -0.00141421 0.00671204)
(0.0893621 -0.00114235 0.00623052)
(0.0901204 -0.00124211 0.00610328)
(0.0917992 -0.00217033 0.00601606)
(0.0927537 -0.00438898 0.00675993)
(0.091775 -0.00779198 0.00942202)
(0.0896804 -0.0109757 0.0136941)
(0.0900302 -0.0122332 0.0168402)
(0.09576 -0.0116048 0.0156522)
(0.107494 -0.00973435 0.00921939)
(0.123935 -0.00668153 -0.000214277)
(0.136981 -0.0035954 -0.00824293)
(0.13589 -0.0021909 -0.0116542)
(0.123428 -0.00207299 -0.0106479)
(0.112576 -0.00204088 -0.00741114)
(0.110973 -0.00163853 -0.00452928)
(0.116958 -0.000662589 -0.00390178)
(0.121897 0.000693866 -0.00617011)
(0.120067 0.00129728 -0.0113856)
(0.11374 -0.000156793 -0.0191799)
(0.107774 -0.00329836 -0.0264552)
(0.106535 -0.00559901 -0.028656)
(0.110993 -0.00611004 -0.0254369)
(0.117551 -0.00686764 -0.0201083)
(0.123908 -0.0088796 -0.0141456)
(0.133055 -0.0118793 -0.0102048)
(0.141576 -0.00824716 -0.00196038)
(0.145908 -0.00198506 0.00539733)
(0.140807 0.000834815 0.00867494)
(0.130892 -0.000974478 0.00699536)
(0.126673 -0.00325329 0.00318221)
(0.13373 -0.00224443 0.00204612)
(0.142806 0.000365235 0.00508386)
(0.141934 0.000326341 0.0081324)
(0.133697 -0.0028195 0.00677961)
(0.132142 -0.00484966 0.00301575)
(0.141988 -0.0031505 0.00352386)
(0.146656 -0.000630761 0.00812462)
(0.136203 0.00012344 0.0104723)
(0.118861 -0.000283662 0.00947771)
(0.105345 -0.000812651 0.0084756)
(0.0992265 -0.00124492 0.00845556)
(0.0989576 -0.00181197 0.00824448)
(0.10202 -0.00280254 0.00725981)
(0.105446 -0.00469007 0.00645326)
(0.10601 -0.00774796 0.00774595)
(0.102868 -0.0111465 0.0119806)
(0.0993439 -0.0131967 0.0169988)
(0.100031 -0.0133002 0.0187593)
(0.107352 -0.0119444 0.0145728)
(0.120676 -0.00906099 0.00535555)
(0.133215 -0.00489199 -0.00448736)
(0.133399 -0.00140573 -0.00998655)
(0.120616 -1.66124e-05 -0.00944475)
(0.106729 -0.000554984 -0.00471846)
(0.101623 -0.00185587 0.000614973)
(0.107582 -0.00196586 0.00351674)
(0.119847 5.60985e-05 0.00251307)
(0.128238 0.0022957 -0.0028452)
(0.128026 0.00190724 -0.0121489)
(0.122889 -0.00174569 -0.022494)
(0.11829 -0.00559491 -0.0288424)
(0.11778 -0.00724558 -0.0286793)
(0.121534 -0.00825746 -0.0239942)
(0.12674 -0.0106243 -0.0175548)
(0.134349 -0.013666 -0.0125738)
(0.140991 -0.0115934 -0.00518764)
(0.146813 -0.00484079 0.000810553)
(0.146797 0.000477111 0.00459243)
(0.139864 0.000563983 0.00504343)
(0.131038 -0.00236613 0.00252607)
(0.129454 -0.00345761 0.000396735)
(0.137471 -0.00115022 0.00184643)
(0.145525 0.00089135 0.0053785)
(0.143826 -0.00131415 0.00645025)
(0.135935 -0.00610393 0.00398988)
(0.137066 -0.00766915 0.00303794)
(0.148127 -0.00424086 0.00655066)
(0.150321 -0.000135647 0.00964404)
(0.138456 0.00148832 0.00949327)
(0.122994 0.00112817 0.0090418)
(0.112338 -0.000201576 0.00994447)
(0.108328 -0.00208184 0.010576)
(0.110547 -0.0040835 0.00944617)
(0.116589 -0.00582825 0.00707766)
(0.120569 -0.00784156 0.00607816)
(0.118221 -0.0105002 0.0089652)
(0.112026 -0.0127306 0.0146732)
(0.107889 -0.0135137 0.0187769)
(0.109752 -0.0129209 0.0171889)
(0.118104 -0.0105427 0.00937469)
(0.128083 -0.00576754 -0.000936671)
(0.13004 -0.000567936 -0.00810125)
(0.121235 0.00230448 -0.00907612)
(0.109579 0.00187642 -0.00468809)
(0.102526 -0.000729467 0.00209636)
(0.103814 -0.00255815 0.00744639)
(0.113729 -0.00124791 0.00878374)
(0.126538 0.00211953 0.00522826)
(0.134328 0.00362452 -0.00332793)
(0.13491 0.0008144 -0.0146977)
(0.131756 -0.00386802 -0.0240618)
(0.128526 -0.00667479 -0.0278042)
(0.127293 -0.00827965 -0.0260174)
(0.129417 -0.0111143 -0.0202535)
(0.136512 -0.0139143 -0.0153078)
(0.142193 -0.0138521 -0.00760779)
(0.14696 -0.00851867 -0.00248921)
(0.148389 -0.00198395 0.000612677)
(0.145098 0.000697273 0.00249094)
(0.13785 -0.000741339 0.00208819)
(0.131213 -0.00294429 0.000148703)
(0.132284 -0.00271749 0.000189988)
(0.141117 -0.000854362 0.00308484)
(0.147974 -0.00113425 0.00543576)
(0.144746 -0.00525367 0.00448921)
(0.138545 -0.00939031 0.0029317)
(0.14275 -0.00839227 0.00506518)
(0.15141 -0.00301766 0.00841196)
(0.149933 0.0015611 0.00882394)
(0.138798 0.00314531 0.00838234)
(0.126779 0.0022135 0.00971356)
(0.118975 -0.000743384 0.0108335)
(0.117591 -0.00487034 0.00928909)
(0.123975 -0.00786039 0.00584152)
(0.132892 -0.00874178 0.00324881)
(0.134502 -0.00963284 0.00466027)
(0.127504 -0.0113011 0.0103405)
(0.119064 -0.0123641 0.0162209)
(0.115086 -0.0121048 0.0174178)
(0.117484 -0.0103387 0.0121613)
(0.123869 -0.00603961 0.00290472)
(0.127241 -0.00014099 -0.00546138)
(0.123395 0.00392973 -0.00901321)
(0.11596 0.00396537 -0.00695725)
(0.110128 0.000993469 -0.00110406)
(0.108558 -0.00186115 0.00527118)
(0.112949 -0.00179549 0.00905623)
(0.122581 0.00121802 0.0086469)
(0.13334 0.00386495 0.00333765)
(0.140936 0.00285522 -0.00633066)
(0.143013 -0.00136376 -0.0167864)
(0.140493 -0.00482372 -0.0236053)
(0.136053 -0.0069579 -0.0254568)
(0.13366 -0.010276 -0.0224769)
(0.140967 -0.0132536 -0.0177052)
(0.14544 -0.0147384 -0.0103834)
(0.148242 -0.0114651 -0.00511182)
(0.147513 -0.00545241 -0.00221145)
(0.144995 -0.000772462 0.00046141)
(0.141301 0.00034725 0.00206524)
(0.136225 -0.00121691 0.00108561)
(0.133491 -0.00292309 2.17951e-05)
(0.138038 -0.00311068 0.00173686)
(0.146241 -0.00306824 0.00453469)
(0.148355 -0.00526168 0.00469574)
(0.142793 -0.00925442 0.00259331)
(0.140067 -0.0105525 0.00287089)
(0.14532 -0.00650916 0.00594515)
(0.148753 -0.000307515 0.00780662)
(0.143259 0.00384428 0.00823039)
(0.133476 0.00470358 0.00918302)
(0.126014 0.00216618 0.00881723)
(0.122921 -0.003373 0.0050061)
(0.126263 -0.00903545 0.000200518)
(0.137721 -0.0104889 -0.00238327)
(0.146858 -0.00909064 -0.000874344)
(0.14324 -0.00900659 0.00506972)
(0.131893 -0.0101303 0.0122349)
(0.122483 -0.0100316 0.0158391)
(0.119418 -0.00823711 0.0133984)
(0.122003 -0.00459883 0.00632513)
(0.12553 0.000760921 -0.00193948)
(0.125446 0.00505968 -0.0080248)
(0.122216 0.00552092 -0.00962677)
(0.118875 0.00256198 -0.00653055)
(0.117378 -0.000648084 -0.00106653)
(0.118492 -0.00133907 0.00364517)
(0.122683 0.000611287 0.00592315)
(0.130361 0.0025838 0.00478863)
(0.141005 0.00243335 -0.000877791)
(0.149371 0.000144658 -0.0100995)
(0.149889 -0.00230958 -0.0185339)
(0.144793 -0.00465138 -0.0229766)
(0.140233 -0.00869629 -0.0228153)
(0.147763 -0.0119462 -0.0186449)
(0.150635 -0.0140225 -0.0128969)
(0.150757 -0.0122462 -0.00840192)
(0.146717 -0.00779153 -0.00523087)
(0.142621 -0.00294237 -0.0011687)
(0.140715 0.000164501 0.0025318)
(0.139004 0.000345709 0.00264092)
(0.13736 -0.00183179 0.000721886)
(0.13931 -0.00418893 0.00117315)
(0.145453 -0.00494531 0.00419975)
(0.149442 -0.00549523 0.00534799)
(0.146296 -0.00788685 0.00262455)
(0.139773 -0.0101669 0.000599793)
(0.136965 -0.00830947 0.00298186)
(0.13639 -0.00272499 0.00708833)
(0.13304 0.00242771 0.00964224)
(0.128929 0.00485267 0.00933759)
(0.127808 0.00409238 0.0051172)
(0.128048 -0.000551656 -0.00167498)
(0.128302 -0.00790129 -0.00654536)
(0.135422 -0.0124132 -0.00710041)
(0.149246 -0.0105083 -0.00439122)
(0.153725 -0.0073884 0.00129934)
(0.143721 -0.00708559 0.00843615)
(0.129991 -0.00705437 0.0134291)
(0.122221 -0.00508249 0.0134695)
(0.122252 -0.00170485 0.00876168)
(0.126463 0.00230524 0.00147937)
(0.129715 0.00546892 -0.00596006)
(0.129833 0.00575983 -0.0107594)
(0.128738 0.00316557 -0.0111115)
(0.128403 0.000396928 -0.00816674)
(0.128841 -0.000114336 -0.00437498)
(0.129903 0.000994677 -0.000753331)
(0.13304 0.000939839 0.00174863)
(0.140723 -0.00046145 0.000335793)
(0.150784 -0.000999047 -0.0060859)
(0.155067 -0.000745011 -0.0142836)
(0.151869 -0.00224262 -0.020206)
(0.147707 -0.00685233 -0.0218826)
(0.154739 -0.00966326 -0.0179341)
(0.156581 -0.0115929 -0.0141814)
(0.155537 -0.0108266 -0.0111935)
(0.149308 -0.00845063 -0.00832453)
(0.142697 -0.0046495 -0.0032284)
(0.139705 -0.000476878 0.00234934)
(0.139249 0.00153833 0.00416593)
(0.139671 -0.000150598 0.00255181)
(0.141707 -0.00391293 0.00187744)
(0.146077 -0.00609584 0.00419743)
(0.14966 -0.00578918 0.00592336)
(0.147675 -0.005814 0.00326109)
(0.139639 -0.00706404 -0.000764019)
(0.130518 -0.00680351 -0.00057165)
(0.124702 -0.00350257 0.00336299)
(0.122415 0.000638487 0.00608369)
(0.12407 0.00335616 0.00456188)
(0.128918 0.00404555 -0.000860491)
(0.132933 0.00157229 -0.00682285)
(0.133608 -0.00517392 -0.00903421)
(0.136033 -0.0128376 -0.00637822)
(0.146482 -0.0140481 -0.00184191)
(0.155515 -0.0091713 0.00283404)
(0.150335 -0.00533483 0.00801096)
(0.136105 -0.00403008 0.0122244)
(0.125351 -0.00220535 0.012888)
(0.12327 0.000868672 0.00945317)
(0.126902 0.00372117 0.00342876)
(0.130704 0.00519495 -0.00304814)
(0.131541 0.00456711 -0.00754579)
(0.131294 0.00212495 -0.00893632)
(0.132861 -0.000166871 -0.00842821)
(0.135677 -0.000229582 -0.00677863)
(0.137801 0.000930303 -0.00323888)
(0.138984 0.00014921 0.000965239)
(0.141473 -0.00233656 0.00141847)
(0.147552 -0.0025873 -0.00368196)
(0.153997 -0.000386182 -0.0110885)
(0.156093 -0.000387181 -0.0169655)
(0.15489 -0.00471113 -0.0194756)
(0.16011 -0.00676839 -0.0157769)
(0.161426 -0.0084494 -0.014261)
(0.161452 -0.00835742 -0.0127499)
(0.155463 -0.00764662 -0.0109348)
(0.146295 -0.00524931 -0.00637595)
(0.140403 -0.000906448 0.000274237)
(0.139296 0.00242697 0.00487589)
(0.140846 0.00165407 0.00549265)
(0.14327 -0.00238003 0.00421132)
(0.146136 -0.00559194 0.0042335)
(0.148439 -0.00561003 0.00552678)
(0.147438 -0.0044296 0.00460282)
(0.141412 -0.00412599 0.000657109)
(0.132655 -0.00358875 -0.00259921)
(0.12606 -0.00166433 -0.00255252)
(0.124439 0.000516692 -0.00106769)
(0.127238 0.0017743 -0.00104413)
(0.132444 0.00248396 -0.00360571)
(0.137541 0.00200091 -0.00733032)
(0.140592 -0.00239348 -0.00865724)
(0.142701 -0.0105656 -0.00549001)
(0.147881 -0.0157477 0.000207573)
(0.154172 -0.0124526 0.00495828)
(0.151845 -0.00576595 0.00842216)
(0.140399 -0.00153503 0.0115709)
(0.129382 0.000782654 0.0129767)
(0.12491 0.00285714 0.0107404)
(0.125283 0.0046398 0.00586114)
(0.126069 0.0054095 0.00125628)
(0.12562 0.00435454 -0.000997294)
(0.12602 0.00148385 -0.00156596)
(0.129434 -0.00123977 -0.00239393)
(0.134778 -0.00140707 -0.00276321)
(0.138736 0.000243514 6.11354e-05)
(0.139595 0.000322565 0.00433799)
(0.139159 -0.00164081 0.00432632)
(0.141201 -0.00243083 -0.00145173)
(0.147439 -0.000917507 -0.00846693)
(0.154972 -0.000316415 -0.013219)
(0.159207 -0.00300559 -0.01557)
(0.162566 -0.00385955 -0.0122316)
(0.165284 -0.0050345 -0.0127241)
(0.166705 -0.00554895 -0.0130409)
(0.161842 -0.00575082 -0.0128985)
(0.151392 -0.00432097 -0.00973149)
(0.142592 -0.000590113 -0.00296369)
(0.139542 0.00298597 0.00363143)
(0.140973 0.0029408 0.00667398)
(0.143679 -0.000700469 0.00628162)
(0.145598 -0.00430127 0.00510726)
(0.146127 -0.00513271 0.00513341)
(0.144532 -0.00394885 0.00492061)
(0.1402 -0.00261188 0.00238417)
(0.1348 -0.0013408 -0.0014819)
(0.131704 7.70459e-05 -0.00391185)
(0.132225 0.000921358 -0.00375108)
(0.134479 0.000730476 -0.00224793)
(0.137026 0.000636927 -0.00194431)
(0.140127 0.00111479 -0.00412599)
(0.142993 -0.000335453 -0.00616721)
(0.145164 -0.00612788 -0.00480522)
(0.14829 -0.0127965 -0.000461683)
(0.152465 -0.0129762 0.004174)
(0.152437 -0.00651696 0.00778684)
(0.145166 0.000229382 0.0104998)
(0.135633 0.00425629 0.011653)
(0.128973 0.00588108 0.0105963)
(0.125273 0.00587054 0.00812912)
(0.123083 0.00481627 0.00556005)
(0.122538 0.002775 0.00379062)
(0.124678 -0.000446162 0.00284061)
(0.129305 -0.00360103 0.00184126)
(0.134541 -0.00420324 0.000843105)
(0.138025 -0.00166512 0.00195762)
(0.138763 0.000999936 0.00518285)
(0.138111 0.00122474 0.00609672)
(0.138625 0.000230674 0.00157242)
(0.142901 -8.14094e-05 -0.00502983)
(0.150929 -0.000387891 -0.00931514)
(0.158503 -0.00186767 -0.0111742)
(0.161804 -0.00224777 -0.00965016)
(0.166151 -0.0025978 -0.0105701)
(0.168805 -0.00295331 -0.0115906)
(0.165698 -0.003219 -0.0129663)
(0.156498 -0.00195172 -0.0123919)
(0.14726 0.00113895 -0.00741701)
(0.142331 0.00369564 -2.61088e-05)
(0.141248 0.00317905 0.0054812)
(0.141841 0.000122958 0.00702794)
(0.142552 -0.00255206 0.00614287)
(0.142584 -0.00303572 0.0055078)
(0.141453 -0.0022374 0.00509412)
(0.139379 -0.00135491 0.0030218)
(0.137974 -0.000453037 -0.000411274)
(0.138784 0.000163677 -0.00277212)
(0.140738 -0.000361295 -0.00270874)
(0.140919 -0.00177458 -0.000845803)
(0.139018 -0.00214253 0.00101187)
(0.138019 -0.000393776 0.00126072)
(0.139665 0.000620744 0.000742776)
(0.143243 -0.00314903 0.00159192)
(0.147307 -0.00997141 0.00413224)
(0.150329 -0.0121902 0.00645116)
(0.149918 -0.00632059 0.00733378)
(0.144278 0.00212844 0.0083452)
(0.136017 0.00740009 0.00956278)
(0.129059 0.0082061 0.00955891)
(0.124645 0.00633751 0.00832571)
(0.122437 0.0042916 0.00726169)
(0.122439 0.00299152 0.00697168)
(0.124931 0.00127796 0.00663112)
(0.129412 -0.00145187 0.0054344)
(0.134174 -0.00323351 0.00414977)
(0.137247 -0.00171772 0.00446417)
(0.138123 0.00186697 0.00647541)
(0.138382 0.00394154 0.00731705)
(0.139703 0.00374081 0.00427821)
(0.143039 0.0024707 -0.00120355)
(0.149024 0.000708942 -0.00580453)
(0.156126 -0.00111121 -0.00830608)
(0.160267 -0.00273587 -0.00870068)
(0.16545 -0.00160329 -0.00939975)
(0.167516 -0.00016532 -0.00992088)
(0.165492 0.000219179 -0.0109848)
(0.160454 0.00055635 -0.0118011)
(0.155335 0.00236644 -0.00998363)
(0.151425 0.00441066 -0.00497376)
(0.147776 0.00395122 0.000573228)
(0.143871 0.000891155 0.00387333)
(0.140567 -0.00204957 0.00476759)
(0.139024 -0.00284438 0.00501232)
(0.139724 -0.00210664 0.00536448)
(0.142454 -0.00103849 0.00475978)
(0.146766 3.99249e-06 0.00262243)
(0.151051 0.000471541 0.000239555)
(0.152192 -0.000513313 -0.000276705)
(0.148588 -0.00203893 0.00209003)
(0.142567 -0.00190906 0.00594894)
(0.13886 0.000525216 0.0077164)
(0.139884 0.00271334 0.00522768)
(0.143688 0.000810216 0.00137121)
(0.147482 -0.00535894 0.00131176)
(0.149595 -0.0094739 0.00523551)
(0.148611 -0.00550886 0.00796868)
(0.143655 0.00349928 0.00775319)
(0.136425 0.0101783 0.00698803)
(0.130556 0.0116827 0.00693755)
(0.127671 0.00960973 0.00686001)
(0.126972 0.00656843 0.00601931)
(0.12741 0.004212 0.0046906)
(0.128777 0.00253096 0.00381571)
(0.131305 0.000970769 0.0038419)
(0.134623 8.42909e-05 0.00420892)
(0.137929 0.000919577 0.00476735)
(0.140326 0.00319178 0.00610251)
(0.141407 0.00499224 0.0075593)
(0.141998 0.00505899 0.00677412)
(0.143464 0.00338328 0.00272576)
(0.147238 0.000606447 -0.00264299)
(0.153472 -0.00194767 -0.00672246)
(0.158283 -0.00614829 -0.00764326)
(0.162781 -0.00460644 -0.00851767)
(0.16442 -0.000697781 -0.00813821)
(0.162353 0.00221817 -0.00821586)
(0.157696 0.00312352 -0.00884869)
(0.153607 0.0036809 -0.00865827)
(0.152104 0.00477545 -0.00673716)
(0.152102 0.00501375 -0.00364188)
(0.151008 0.00313861 -0.00068868)
(0.147601 -9.61732e-05 0.00133025)
(0.143208 -0.00326539 0.00279072)
(0.140478 -0.00601388 0.00426795)
(0.141383 -0.00819028 0.00532541)
(0.146317 -0.00869346 0.00504571)
(0.153181 -0.00677411 0.00329162)
(0.156993 -0.00364055 0.00138708)
(0.154277 -0.00121236 0.00163557)
(0.147184 0.000802604 0.00411352)
(0.141092 0.00351854 0.00532995)
(0.139192 0.00563605 0.00231425)
(0.140366 0.00470106 -0.00296296)
(0.142957 0.000165176 -0.00517129)
(0.146 -0.00497665 -0.00165534)
(0.147156 -0.00543943 0.00386878)
(0.145019 0.0005049 0.00668957)
(0.141349 0.00824559 0.00655301)
(0.139149 0.0128268 0.00497602)
(0.139109 0.0130371 0.00251809)
(0.139396 0.010399 -0.000139123)
(0.138771 0.00704984 -0.00161099)
(0.137737 0.00429133 -0.00106469)
(0.137374 0.00248302 0.00104175)
(0.137875 0.00179683 0.00330806)
(0.138569 0.00229217 0.00480857)
(0.139002 0.00332413 0.00593925)
(0.139236 0.00393967 0.00713227)
(0.13994 0.00383316 0.00733386)
(0.142106 0.00270933 0.00513166)
(0.146399 -4.90792e-05 0.000646503)
(0.152293 -0.00390639 -0.00433911)
(0.157608 -0.00443738 -0.0056973)
(0.156913 -0.0013851 -0.00817066)
(0.153102 0.00283317 -0.0085899)
(0.14871 0.00560077 -0.00815087)
(0.145426 0.00586339 -0.00754748)
(0.143906 0.00471211 -0.00713472)
(0.144279 0.00350062 -0.00704062)
(0.146417 0.00253298 -0.00677126)
(0.149827 0.00145429 -0.00550747)
(0.153266 0.000118672 -0.00313637)
(0.154753 -0.00146598 -0.000462353)
(0.153312 -0.0037484 0.00187824)
(0.150316 -0.00701958 0.00402391)
(0.148426 -0.0100825 0.00617596)
(0.149361 -0.0108881 0.00771063)
(0.151784 -0.00867076 0.00755149)
(0.152178 -0.0043449 0.00570588)
(0.148837 0.000656335 0.0036224)
(0.143923 0.00450548 0.00200206)
(0.140581 0.0052888 -0.000124748)
(0.1397 0.00252997 -0.00299962)
(0.141083 -0.00187663 -0.00446439)
(0.144353 -0.0049908 -0.00228365)
(0.147397 -0.00465872 0.00261995)
(0.147954 -0.000556302 0.00679304)
(0.147027 0.00525949 0.00771233)
(0.147049 0.0097567 0.00488942)
(0.148102 0.0115055 -0.000544877)
(0.148462 0.0106017 -0.00608977)
(0.147549 0.00762512 -0.00926037)
(0.146005 0.00390263 -0.00897083)
(0.14439 0.00153613 -0.00567276)
(0.143008 0.00173845 -0.000826665)
(0.141843 0.00346007 0.00383742)
(0.140643 0.00439342 0.0075418)
(0.139641 0.00316556 0.0104295)
(0.139814 0.000504529 0.0119717)
(0.142466 -0.00209229 0.0106728)
(0.147864 -0.00401286 0.00588373)
(0.153984 -0.00505236 -0.000560229)
(0.158545 0.00012872 0.0039726)
(0.161396 0.00377914 -0.000803878)
(0.162061 0.00766607 -0.00488205)
(0.159738 0.00951259 -0.00829343)
(0.155257 0.00853989 -0.010645)
(0.150792 0.00591518 -0.0114471)
(0.14824 0.00299989 -0.0108963)
(0.148138 0.000375304 -0.00963246)