/*--------------------------------*- C++ -*----------------------------------*\
| =========                 |                                                 |
| \\      /  F ield         | OpenFOAM: The Open Source CFD Toolbox           |
|  \\    /   O peration     | Version:  2306                                  |
|   \\  /    A nd           | Website:  www.openfoam.com                      |
|    \\/     M anipulation  |                                                 |
\*---------------------------------------------------------------------------*/
FoamFile
{
    version     2.0;
    format      ascii;
    arch        "LSB;label=32;scalar=64";
    class       volScalarField;
    location    "0.5";
    object      nut;
}
// * * * * * * * * * * * * * * * * * * * * * * * * * * * * * * * * * * * * * //

dimensions      [0 2 -1 0 0 0 0];

internalField   nonuniform List<scalar> 
60000
(
0.000101296
0.000100301
9.89234e-05
9.76285e-05
9.55759e-05
9.09633e-05
8.29838e-05
7.26266e-05
6.31078e-05
5.76467e-05
5.60267e-05
5.58156e-05
5.5605e-05
5.56398e-05
5.65352e-05
5.82587e-05
6.07068e-05
6.40113e-05
6.81405e-05
7.31962e-05
7.94278e-05
8.60605e-05
9.12259e-05
9.29462e-05
8.98121e-05
8.25029e-05
7.43093e-05
6.78674e-05
6.33368e-05
6.05747e-05
6.02e-05
6.23387e-05
6.66534e-05
7.23617e-05
7.86624e-05
8.51649e-05
9.11701e-05
9.6044e-05
9.95153e-05
0.000101243
0.000104744
0.000103287
0.000101593
0.000100321
9.86007e-05
9.47763e-05
8.84277e-05
8.01277e-05
7.12491e-05
6.39247e-05
5.94062e-05
5.69657e-05
5.5554e-05
5.5012e-05
5.55404e-05
5.70493e-05
5.95471e-05
6.31463e-05
6.78015e-05
7.34802e-05
8.0156e-05
8.69801e-05
9.25351e-05
9.5324e-05
9.40401e-05
8.88908e-05
8.19032e-05
7.47411e-05
6.79362e-05
6.25562e-05
6.01198e-05
6.10576e-05
6.48271e-05
7.04492e-05
7.70666e-05
8.39342e-05
9.06229e-05
9.68033e-05
0.000101858
0.00010464
0.000104753
0.000102565
0.0001005
9.93989e-05
9.86203e-05
9.69332e-05
9.40325e-05
8.95264e-05
8.20539e-05
7.19946e-05
6.30711e-05
5.76764e-05
5.47932e-05
5.32044e-05
5.27484e-05
5.34595e-05
5.53683e-05
5.84709e-05
6.27204e-05
6.81625e-05
7.48606e-05
8.21634e-05
8.90446e-05
9.4445e-05
9.69368e-05
9.55248e-05
9.07043e-05
8.37104e-05
7.53258e-05
6.66557e-05
6.00472e-05
5.74191e-05
5.89507e-05
6.37478e-05
7.05629e-05
7.81335e-05
8.58903e-05
9.37413e-05
0.000100683
0.000104721
9.97708e-05
9.64097e-05
9.36367e-05
9.30391e-05
9.36694e-05
9.45044e-05
9.54093e-05
9.58397e-05
9.26981e-05
8.28121e-05
6.94181e-05
5.94176e-05
5.40234e-05
5.09667e-05
4.91125e-05
4.83633e-05
4.87348e-05
5.01599e-05
5.26275e-05
5.65094e-05
6.23442e-05
6.98704e-05
7.83099e-05
8.70063e-05
9.43399e-05
9.78206e-05
9.66317e-05
9.19215e-05
8.46905e-05
7.49369e-05
6.40373e-05
5.57537e-05
5.25638e-05
5.42375e-05
5.96891e-05
6.74061e-05
7.57843e-05
8.47259e-05
9.34229e-05
9.93335e-05
8.76535e-05
8.3099e-05
7.80761e-05
7.80753e-05
8.10937e-05
8.4436e-05
8.81106e-05
9.29983e-05
9.6977e-05
9.34381e-05
7.97671e-05
6.43015e-05
5.43766e-05
4.91045e-05
4.57503e-05
4.31942e-05
4.12764e-05
3.99019e-05
3.91509e-05
3.98253e-05
4.29831e-05
4.85456e-05
5.66435e-05
6.81903e-05
8.11029e-05
9.06833e-05
9.43409e-05
9.34017e-05
9.01122e-05
8.40796e-05
7.37961e-05
6.08877e-05
5.10127e-05
4.70875e-05
4.81462e-05
5.29265e-05
5.93347e-05
6.68119e-05
7.60422e-05
8.48649e-05
6.65949e-05
6.35589e-05
5.37865e-05
5.13905e-05
5.84624e-05
6.5451e-05
6.9938e-05
7.59803e-05
8.65044e-05
9.5203e-05
9.09426e-05
7.45285e-05
5.83907e-05
4.87788e-05
4.37349e-05
4.00441e-05
3.64151e-05
3.24951e-05
2.84728e-05
2.67212e-05
2.99759e-05
3.43056e-05
3.58892e-05
3.95072e-05
5.33417e-05
6.98131e-05
7.91405e-05
8.2015e-05
8.32724e-05
8.41578e-05
8.1945e-05
7.28237e-05
5.85954e-05
4.7439e-05
4.35585e-05
4.409e-05
4.55783e-05
4.70638e-05
5.04273e-05
5.87298e-05
4.01834e-05
4.28822e-05
3.25362e-05
2.0886e-05
2.66493e-05
4.02241e-05
4.58606e-05
4.5812e-05
5.36867e-05
7.48778e-05
9.10357e-05
8.70463e-05
6.93005e-05
5.28703e-05
4.38115e-05
3.93933e-05
3.6262e-05
3.29138e-05
2.84033e-05
2.3216e-05
2.38369e-05
3.23646e-05
3.82252e-05
3.61671e-05
2.98794e-05
3.89415e-05
5.09962e-05
5.28746e-05
5.26975e-05
5.94286e-05
7.12358e-05
7.76438e-05
7.15409e-05
5.67008e-05
4.50325e-05
4.22303e-05
4.14875e-05
4.02762e-05
3.9575e-05
3.76218e-05
2.76401e-05
2.76779e-05
2.7085e-05
1.05642e-05
6.4618e-06
1.54794e-05
2.71304e-05
2.41434e-05
1.6185e-05
2.76732e-05
6.2652e-05
8.67419e-05
8.35425e-05
6.47525e-05
4.83957e-05
4.03374e-05
3.7674e-05
3.7597e-05
3.79552e-05
3.5776e-05
2.86449e-05
2.34872e-05
2.95537e-05
3.6452e-05
3.42858e-05
2.29983e-05
2.29993e-05
2.22049e-05
1.84122e-05
2.01159e-05
3.12491e-05
5.42056e-05
6.95654e-05
6.65794e-05
5.21529e-05
4.08028e-05
3.71966e-05
3.49732e-05
3.35364e-05
3.35227e-05
2.55184e-05
2.14864e-05
2.859e-05
2.27724e-05
3.58147e-06
1.57304e-05
1.35604e-05
2.2284e-05
1.2636e-05
1.49738e-05
1.89896e-05
5.58494e-05
8.29818e-05
7.90608e-05
6e-05
4.48332e-05
3.85212e-05
3.88877e-05
4.33946e-05
4.7846e-05
4.62137e-05
3.54214e-05
2.37531e-05
2.48535e-05
2.97632e-05
2.35889e-05
1.46489e-05
2.52316e-05
3.25452e-05
3.92647e-05
4.10214e-05
3.43959e-05
4.42053e-05
5.82644e-05
5.6827e-05
4.47191e-05
3.34484e-05
2.8977e-05
2.7537e-05
2.56683e-05
2.21127e-05
2.27226e-05
2.50259e-05
3.07854e-05
1.78365e-05
1.09125e-05
2.00149e-05
1.27095e-05
2.50138e-05
1.36428e-05
2.40645e-05
2.31481e-05
5.21774e-05
7.62086e-05
7.12337e-05
5.41715e-05
4.11353e-05
3.71146e-05
4.13777e-05
5.03216e-05
5.58411e-05
5.04926e-05
3.55079e-05
2.24555e-05
2.19152e-05
2.21672e-05
1.98226e-05
3.03984e-05
3.36264e-05
2.75527e-05
3.38226e-05
4.14875e-05
3.49791e-05
3.68946e-05
4.76671e-05
4.88287e-05
3.99531e-05
2.8369e-05
2.47178e-05
2.29801e-05
2.19501e-05
2.35471e-05
2.36921e-05
2.425e-05
2.53297e-05
9.63444e-06
1.66177e-05
2.08993e-05
1.3483e-05
2.60335e-05
1.41023e-05
2.75307e-05
2.22085e-05
4.65593e-05
6.46247e-05
5.91181e-05
4.43893e-05
3.32291e-05
3.41116e-05
4.53533e-05
5.88659e-05
6.17031e-05
4.99094e-05
3.18134e-05
2.03441e-05
2.00353e-05
2.06244e-05
2.79295e-05
3.42951e-05
2.93338e-05
1.8837e-05
2.217e-05
3.02081e-05
2.73404e-05
3.1095e-05
4.24476e-05
4.61517e-05
3.69799e-05
2.56398e-05
2.38612e-05
2.5228e-05
2.36456e-05
2.4648e-05
1.97057e-05
1.62409e-05
1.81663e-05
6.4179e-06
1.95246e-05
2.04523e-05
1.48446e-05
1.89396e-05
1.48359e-05
2.68271e-05
1.8189e-05
3.39153e-05
4.21394e-05
3.66609e-05
2.68264e-05
2.42209e-05
3.41228e-05
5.13946e-05
6.62953e-05
6.227e-05
4.44604e-05
2.76327e-05
2.18735e-05
2.05554e-05
2.29673e-05
3.06959e-05
3.43572e-05
3.29466e-05
2.67217e-05
2.1397e-05
2.22151e-05
2.15114e-05
2.69801e-05
3.99161e-05
4.13129e-05
3.10169e-05
2.56075e-05
2.81123e-05
2.51629e-05
2.245e-05
2.08652e-05
1.0698e-05
1.26269e-05
1.50521e-05
1.00123e-05
2.04943e-05
1.84434e-05
1.63164e-05
1.22908e-05
2.14103e-05
2.75289e-05
1.97266e-05
1.75621e-05
1.79032e-05
2.44849e-05
2.83335e-05
3.07177e-05
3.4132e-05
5.31805e-05
6.46087e-05
5.32699e-05
3.55277e-05
2.78494e-05
2.45393e-05
2.12332e-05
2.54396e-05
3.23977e-05
3.92086e-05
4.22275e-05
3.56964e-05
2.34373e-05
2.04923e-05
1.8928e-05
2.40928e-05
3.51732e-05
3.36573e-05
2.81005e-05
3.07432e-05
2.89345e-05
2.297e-05
1.98917e-05
1.1963e-05
6.49429e-06
1.43681e-05
1.24356e-05
1.42112e-05
1.9325e-05
1.91068e-05
1.82545e-05
1.72501e-05
3.07272e-05
3.60987e-05
2.63844e-05
1.29627e-05
2.39091e-05
3.05562e-05
2.63045e-05
2.55267e-05
2.52989e-05
4.77032e-05
5.25951e-05
3.93175e-05
3.00379e-05
2.74081e-05
2.08688e-05
1.754e-05
1.9949e-05
2.73312e-05
3.79138e-05
4.04157e-05
3.0706e-05
2.06065e-05
2.09373e-05
1.45149e-05
2.14495e-05
2.91737e-05
2.93344e-05
3.02647e-05
3.11037e-05
2.80826e-05
2.393e-05
1.39531e-05
2.98745e-06
1.35003e-05
1.61398e-05
1.34233e-05
1.59062e-05
1.93956e-05
2.25782e-05
2.23867e-05
2.05093e-05
2.02562e-05
1.65576e-05
1.81581e-05
2.25079e-05
2.59083e-05
2.31184e-05
1.8797e-05
1.831e-05
2.47023e-05
4.24415e-05
3.95079e-05
2.88551e-05
2.4263e-05
1.9063e-05
1.52502e-05
1.60056e-05
1.38034e-05
1.7252e-05
2.4751e-05
2.33223e-05
1.59611e-05
1.90179e-05
2.21086e-05
1.63047e-05
1.93966e-05
2.54216e-05
2.50275e-05
2.66419e-05
2.82581e-05
2.9542e-05
2.0546e-05
5.7773e-06
1.0697e-05
1.75804e-05
1.68636e-05
1.40012e-05
1.42301e-05
1.69342e-05
2.10902e-05
2.10935e-05
1.94387e-05
2.00392e-05
2.1855e-05
2.28102e-05
2.49466e-05
2.93248e-05
2.23144e-05
1.02786e-05
1.84057e-05
3.51212e-05
3.98913e-05
3.17187e-05
2.04398e-05
1.6511e-05
2.21547e-05
2.35074e-05
1.86901e-05
1.50242e-05
1.58024e-05
1.91434e-05
1.90864e-05
2.07498e-05
2.62603e-05
2.79801e-05
2.34835e-05
2.16943e-05
2.3375e-05
1.82034e-05
2.11117e-05
3.0304e-05
2.74188e-05
1.4325e-05
7.28327e-06
1.33088e-05
1.60203e-05
1.46725e-05
1.31096e-05
1.31073e-05
1.37865e-05
1.76779e-05
2.28508e-05
2.31927e-05
2.04054e-05
1.79511e-05
1.91491e-05
2.86349e-05
2.99355e-05
1.42653e-05
8.79214e-06
2.55892e-05
3.53602e-05
3.32129e-05
2.38404e-05
1.82835e-05
1.7289e-05
1.50254e-05
1.50197e-05
1.34036e-05
1.00907e-05
1.62799e-05
2.45869e-05
2.69464e-05
2.68752e-05
3.03739e-05
3.23609e-05
2.88311e-05
2.88618e-05
1.93577e-05
1.25159e-05
2.43674e-05
3.14502e-05
2.70807e-05
1.5802e-05
7.63413e-06
1.18032e-05
1.28236e-05
1.21172e-05
1.43502e-05
1.97136e-05
2.68836e-05
2.86449e-05
2.32525e-05
1.78108e-05
1.21177e-05
1.47791e-05
2.67685e-05
3.1195e-05
2.04425e-05
3.88339e-06
1.77369e-05
2.99897e-05
3.27184e-05
2.82177e-05
2.28605e-05
1.82433e-05
1.53283e-05
1.94793e-05
2.26862e-05
1.71834e-05
1.83345e-05
2.69556e-05
2.93097e-05
2.70898e-05
2.61736e-05
2.87267e-05
3.09482e-05
2.1587e-05
1.75188e-05
1.42822e-05
1.48147e-05
1.82702e-05
2.27802e-05
2.43149e-05
2.1398e-05
1.43199e-05
4.19026e-06
8.57535e-06
2.00763e-05
2.91528e-05
3.14051e-05
2.60109e-05
2.21966e-05
2.14163e-05
1.48819e-05
1.36837e-05
2.52566e-05
3.44207e-05
3.06608e-05
1.20661e-05
2.12601e-05
3.61879e-05
4.17689e-05
4.4085e-05
4.38883e-05
3.88775e-05
2.96863e-05
2.06172e-05
2.00314e-05
2.08268e-05
1.77955e-05
2.20338e-05
2.48903e-05
2.18158e-05
1.99482e-05
2.23399e-05
2.36027e-05
1.53673e-05
1.56593e-05
2.19791e-05
2.48227e-05
1.99331e-05
1.31463e-05
1.48322e-05
1.87881e-05
2.14942e-05
2.15402e-05
1.76069e-05
1.82232e-05
2.81665e-05
3.30087e-05
2.72227e-05
2.23641e-05
2.64258e-05
2.54535e-05
1.75794e-05
1.39322e-05
2.14625e-05
2.45649e-05
1.32716e-05
1.50839e-05
3.61058e-05
4.62599e-05
5.02276e-05
5.04488e-05
4.50466e-05
3.47856e-05
2.37349e-05
1.61647e-05
1.49269e-05
1.62769e-05
2.02372e-05
2.47556e-05
2.47475e-05
2.11746e-05
1.92867e-05
1.8695e-05
1.96686e-05
1.96532e-05
1.74122e-05
1.3323e-05
9.88876e-06
9.55196e-06
1.46702e-05
1.83102e-05
1.65157e-05
1.50337e-05
1.98341e-05
2.14747e-05
1.57588e-05
1.01646e-05
1.29089e-05
1.53507e-05
2.18599e-05
2.93352e-05
2.706e-05
1.65214e-05
1.04251e-05
1.31769e-05
1.22211e-05
1.25511e-05
2.91933e-05
4.1164e-05
4.25969e-05
3.72346e-05
3.01539e-05
2.4648e-05
2.28224e-05
2.30377e-05
2.22766e-05
2.08186e-05
2.02998e-05
2.13248e-05
2.2086e-05
2.13229e-05
2.06175e-05
2.02612e-05
2.43711e-05
2.19912e-05
2.19568e-05
2.16157e-05
1.8118e-05
1.24994e-05
7.48384e-06
7.26497e-06
1.09491e-05
1.39767e-05
1.37174e-05
1.38319e-05
1.81645e-05
2.05045e-05
1.68218e-05
1.13811e-05
1.76494e-05
2.9129e-05
3.45876e-05
2.90768e-05
1.82246e-05
1.47718e-05
1.33927e-05
1.29262e-05
2.16122e-05
2.87956e-05
2.81118e-05
2.24722e-05
1.75066e-05
1.57157e-05
1.80112e-05
2.36984e-05
2.816e-05
2.82268e-05
2.54014e-05
2.19672e-05
1.83957e-05
1.56461e-05
1.74024e-05
2.32486e-05
9.66624e-06
8.70409e-06
1.41928e-05
1.68207e-05
1.61302e-05
1.84529e-05
2.06989e-05
1.84548e-05
1.30153e-05
8.63373e-06
1.20282e-05
1.52339e-05
1.30031e-05
1.31496e-05
1.83807e-05
1.90883e-05
1.67063e-05
2.33466e-05
3.39461e-05
3.67045e-05
2.82812e-05
1.57542e-05
1.28384e-05
1.35452e-05
1.42407e-05
1.71209e-05
2.11427e-05
2.39216e-05
2.24306e-05
1.70142e-05
1.18952e-05
1.60027e-05
2.26348e-05
2.34433e-05
1.92093e-05
1.45103e-05
1.16349e-05
1.05624e-05
1.15448e-05
1.21291e-05
1.07817e-05
1.41218e-05
1.65874e-05
1.60451e-05
1.63339e-05
2.02266e-05
2.28024e-05
2.01272e-05
1.42878e-05
1.22252e-05
1.24547e-05
1.00426e-05
8.28707e-06
1.00216e-05
1.29951e-05
1.55688e-05
1.73189e-05
1.75863e-05
1.54092e-05
1.22548e-05
1.18057e-05
1.18873e-05
1.16442e-05
1.33846e-05
1.59689e-05
1.86542e-05
2.11113e-05
2.17964e-05
1.89349e-05
1.3029e-05
7.31233e-06
5.49353e-06
7.99333e-06
1.0963e-05
1.21765e-05
1.23111e-05
1.22289e-05
1.22604e-05
1.19544e-05
1.07458e-05
1.12385e-05
1.2206e-05
1.24719e-05
1.0948e-05
7.73313e-06
6.79737e-06
9.79149e-06
1.07291e-05
1.06403e-05
1.35876e-05
1.81325e-05
2.16886e-05
2.3332e-05
2.22446e-05
1.87809e-05
1.76751e-05
2.05285e-05
2.36794e-05
2.57268e-05
2.3838e-05
1.66185e-05
7.64656e-06
7.02921e-06
1.09297e-05
1.45142e-05
1.99776e-05
2.50167e-05
2.61756e-05
2.28696e-05
1.66883e-05
1.1387e-05
1.06142e-05
9.97946e-06
7.0923e-06
9.58325e-06
1.37828e-05
1.5098e-05
1.53808e-05
1.42931e-05
1.18676e-05
9.02795e-05
9.48344e-05
9.65855e-05
9.52487e-05
9.18971e-05
8.74496e-05
8.20124e-05
7.58356e-05
7.05873e-05
6.74736e-05
6.60362e-05
6.48601e-05
6.3363e-05
6.25625e-05
6.36798e-05
6.65107e-05
7.0124e-05
7.38281e-05
7.76382e-05
8.21583e-05
8.75777e-05
9.2613e-05
9.49774e-05
9.31228e-05
8.74094e-05
7.9675e-05
7.22137e-05
6.6446e-05
6.21619e-05
5.84163e-05
5.54823e-05
5.4419e-05
5.53185e-05
5.73698e-05
6.07105e-05
6.54543e-05
7.04071e-05
7.46456e-05
7.89937e-05
8.43596e-05
9.21855e-05
9.76593e-05
0.000100296
9.96028e-05
9.64378e-05
9.20418e-05
8.71775e-05
8.20839e-05
7.72563e-05
7.32328e-05
7.01931e-05
6.76374e-05
6.52691e-05
6.3819e-05
6.41821e-05
6.62504e-05
6.93485e-05
7.29895e-05
7.72674e-05
8.26524e-05
8.90493e-05
9.50067e-05
9.8392e-05
9.78431e-05
9.33514e-05
8.62346e-05
7.88935e-05
7.30616e-05
6.83909e-05
6.34233e-05
5.82695e-05
5.48446e-05
5.41541e-05
5.56508e-05
5.88317e-05
6.33026e-05
6.81434e-05
7.314e-05
7.88453e-05
8.5395e-05
8.93098e-05
9.57387e-05
0.000100016
0.000100991
9.90711e-05
9.58022e-05
9.26191e-05
8.9625e-05
8.56882e-05
8.0522e-05
7.55883e-05
7.1719e-05
6.82269e-05
6.50069e-05
6.31301e-05
6.3269e-05
6.50718e-05
6.79726e-05
7.18748e-05
7.71772e-05
8.39983e-05
9.12173e-05
9.69086e-05
9.96549e-05
9.86476e-05
9.38655e-05
8.71773e-05
8.1371e-05
7.71101e-05
7.20067e-05
6.42788e-05
5.64029e-05
5.20396e-05
5.17227e-05
5.41697e-05
5.84502e-05
6.36304e-05
6.93393e-05
7.56133e-05
8.23236e-05
8.07665e-05
8.68967e-05
9.27149e-05
9.62434e-05
9.67446e-05
9.54988e-05
9.44872e-05
9.44853e-05
9.33588e-05
8.87245e-05
8.22392e-05
7.70479e-05
7.26694e-05
6.75027e-05
6.23885e-05
5.91745e-05
5.82958e-05
5.9084e-05
6.10595e-05
6.45906e-05
7.04647e-05
7.83099e-05
8.64285e-05
9.34625e-05
9.81149e-05
9.8423e-05
9.41775e-05
8.88688e-05
8.57158e-05
8.27436e-05
7.50766e-05
6.27744e-05
5.23357e-05
4.78816e-05
4.84083e-05
5.20873e-05
5.74367e-05
6.34274e-05
6.94789e-05
7.51801e-05
6.7099e-05
7.00121e-05
7.52783e-05
8.12461e-05
8.51747e-05
8.67457e-05
8.78192e-05
9.06451e-05
9.42718e-05
9.38648e-05
8.80052e-05
8.17085e-05
7.71264e-05
7.13999e-05
6.36312e-05
5.63195e-05
5.13863e-05
4.8452e-05
4.66228e-05
4.62023e-05
4.87331e-05
5.47771e-05
6.32719e-05
7.35527e-05
8.48794e-05
9.35754e-05
9.54003e-05
9.19754e-05
8.9666e-05
9.01932e-05
8.74105e-05
7.56933e-05
5.93336e-05
4.77222e-05
4.37327e-05
4.52101e-05
4.95532e-05
5.49098e-05
6.01556e-05
6.44024e-05
5.28292e-05
5.08346e-05
5.01664e-05
5.47698e-05
6.12011e-05
6.55772e-05
6.79867e-05
7.17214e-05
7.9917e-05
8.79786e-05
8.81508e-05
8.26196e-05
7.80374e-05
7.35491e-05
6.59191e-05
5.61953e-05
4.74344e-05
4.04679e-05
3.47951e-05
3.14631e-05
3.18163e-05
3.38767e-05
3.63616e-05
4.16858e-05
5.43139e-05
7.19929e-05
8.45282e-05
8.67005e-05
8.501e-05
8.78345e-05
9.24203e-05
8.90631e-05
7.3998e-05
5.56143e-05
4.39329e-05
4.06483e-05
4.18154e-05
4.44881e-05
4.77338e-05
5.13283e-05
4.14664e-05
4.00237e-05
3.22017e-05
2.75458e-05
3.11557e-05
3.64213e-05
3.83365e-05
3.83932e-05
4.41892e-05
5.97341e-05
7.35175e-05
7.58126e-05
7.25443e-05
6.91683e-05
6.3993e-05
5.59068e-05
4.67211e-05
3.79108e-05
2.97987e-05
2.44247e-05
2.51785e-05
2.80978e-05
2.70848e-05
2.40632e-05
2.49797e-05
3.73191e-05
5.68134e-05
6.79105e-05
6.8227e-05
7.08078e-05
8.11213e-05
9.01039e-05
8.68569e-05
7.11696e-05
5.30636e-05
4.20959e-05
3.81851e-05
3.6452e-05
3.55894e-05
3.78039e-05
3.17976e-05
3.51305e-05
3.09257e-05
1.87251e-05
1.33607e-05
1.59937e-05
1.82497e-05
1.66259e-05
1.54072e-05
2.11727e-05
3.74488e-05
5.48477e-05
6.08471e-05
5.94536e-05
5.53833e-05
5.01848e-05
4.45418e-05
3.88117e-05
3.32651e-05
2.78636e-05
2.27972e-05
2.31688e-05
2.45628e-05
2.10911e-05
1.76969e-05
1.9163e-05
2.7855e-05
3.8425e-05
3.71279e-05
3.38469e-05
4.44516e-05
6.68726e-05
8.25529e-05
8.16994e-05
6.78874e-05
5.12651e-05
4.04753e-05
3.46367e-05
3.01015e-05
2.85069e-05
2.5906e-05
2.80034e-05
3.1054e-05
2.57487e-05
1.30084e-05
1.51359e-05
1.65248e-05
1.58038e-05
9.44779e-06
1.12626e-05
1.61512e-05
2.22338e-05
4.08984e-05
4.97641e-05
4.81131e-05
4.25233e-05
3.815e-05
3.65105e-05
3.78597e-05
4.10032e-05
3.97072e-05
3.11121e-05
2.61336e-05
2.30551e-05
1.72283e-05
1.52854e-05
1.6297e-05
1.8114e-05
1.55111e-05
1.84184e-05
2.34084e-05
2.11201e-05
5.18419e-05
7.3684e-05
7.54047e-05
6.25363e-05
4.67041e-05
3.62587e-05
3.00912e-05
2.60664e-05
2.56214e-05
2.51966e-05
2.43698e-05
2.75416e-05
2.03711e-05
1.31384e-05
2.27743e-05
2.22232e-05
1.64428e-05
7.28401e-06
1.34089e-05
1.81433e-05
1.55396e-05
3.35877e-05
4.31973e-05
3.96909e-05
3.24029e-05
2.9524e-05
3.37205e-05
4.32751e-05
5.0709e-05
4.63878e-05
3.34311e-05
2.59587e-05
1.93528e-05
1.25751e-05
1.27723e-05
1.42542e-05
1.85637e-05
1.97915e-05
3.34828e-05
3.56847e-05
1.68064e-05
4.5189e-05
6.85726e-05
6.91539e-05
5.40366e-05
3.83084e-05
2.90447e-05
2.49229e-05
2.34119e-05
2.72365e-05
2.3924e-05
2.10182e-05
2.29578e-05
1.56214e-05
1.93135e-05
2.90443e-05
2.39581e-05
1.36088e-05
9.58712e-06
2.00511e-05
2.26775e-05
1.34615e-05
2.73477e-05
3.39312e-05
2.80283e-05
2.1016e-05
2.19876e-05
3.17952e-05
4.5478e-05
5.16726e-05
4.20388e-05
2.91841e-05
2.18471e-05
1.27458e-05
8.19978e-06
1.40496e-05
2.31486e-05
2.6345e-05
2.02837e-05
2.84367e-05
3.31827e-05
1.79525e-05
4.52326e-05
6.80293e-05
6.23337e-05
4.28821e-05
2.74435e-05
2.12542e-05
1.91528e-05
2.41355e-05
2.55332e-05
1.95363e-05
1.84792e-05
2.04237e-05
1.49941e-05
1.95654e-05
2.5367e-05
2.14039e-05
1.55617e-05
1.57966e-05
2.53056e-05
2.33447e-05
1.13154e-05
1.73149e-05
2.05524e-05
1.80632e-05
1.69463e-05
2.14448e-05
2.98338e-05
4.21223e-05
4.27191e-05
2.93982e-05
2.09849e-05
1.56785e-05
1.06898e-05
1.09702e-05
2.03887e-05
2.91308e-05
3.36377e-05
2.72329e-05
2.45125e-05
3.0689e-05
1.70683e-05
5.07592e-05
6.7278e-05
5.19412e-05
3.11143e-05
1.97916e-05
2.11355e-05
2.19188e-05
2.24726e-05
1.94117e-05
1.46454e-05
1.84749e-05
1.93179e-05
1.42466e-05
1.82629e-05
2.3367e-05
2.14951e-05
1.55097e-05
1.75272e-05
2.62567e-05
2.7085e-05
1.9877e-05
1.34779e-05
2.15093e-05
2.36035e-05
1.95862e-05
2.20921e-05
2.20604e-05
3.01907e-05
2.61253e-05
1.81459e-05
1.76013e-05
1.68806e-05
1.39915e-05
1.58088e-05
2.19026e-05
2.74034e-05
3.21533e-05
2.52455e-05
2.30165e-05
2.60868e-05
2.0621e-05
5.8495e-05
6.15921e-05
4.15885e-05
2.58178e-05
2.99457e-05
2.66351e-05
2.16692e-05
1.59633e-05
1.21403e-05
1.5956e-05
2.12366e-05
1.90372e-05
1.74433e-05
2.27566e-05
2.45073e-05
1.78981e-05
1.04777e-05
2.04302e-05
2.97096e-05
2.69659e-05
2.11237e-05
2.656e-05
2.72684e-05
1.75511e-05
1.42059e-05
1.69187e-05
1.26997e-05
1.88609e-05
1.59743e-05
1.80352e-05
2.04997e-05
1.68518e-05
1.29248e-05
1.48837e-05
2.05193e-05
2.14168e-05
2.29392e-05
1.80851e-05
2.24262e-05
1.26048e-05
3.52684e-05
6.06551e-05
5.45005e-05
3.88212e-05
4.51105e-05
3.74265e-05
2.9366e-05
2.03639e-05
1.36528e-05
1.51347e-05
2.16077e-05
2.37167e-05
2.24328e-05
2.32498e-05
2.38046e-05
1.89816e-05
1.32209e-05
1.47365e-05
2.02373e-05
2.3149e-05
2.63537e-05
2.71796e-05
2.18285e-05
1.60792e-05
8.65624e-06
8.00751e-06
9.13991e-06
1.58905e-05
1.64859e-05
1.73615e-05
2.1903e-05
1.89213e-05
1.11422e-05
6.97628e-06
1.03829e-05
1.8451e-05
2.05202e-05
2.02433e-05
1.53053e-05
1.61768e-05
1.23198e-05
4.37793e-05
5.98286e-05
5.55261e-05
6.02712e-05
5.01707e-05
3.7387e-05
2.48175e-05
1.55356e-05
1.26389e-05
1.88492e-05
2.54952e-05
2.73579e-05
2.45075e-05
2.11658e-05
1.71185e-05
1.26505e-05
1.34804e-05
2.05947e-05
2.82512e-05
2.97135e-05
2.30109e-05
1.24905e-05
9.61269e-06
1.28023e-05
9.93915e-06
1.24665e-05
1.81142e-05
2.08129e-05
1.86712e-05
1.87901e-05
1.81114e-05
1.45407e-05
1.20942e-05
1.37279e-05
1.57104e-05
1.88856e-05
2.33826e-05
2.27721e-05
1.74015e-05
1.45065e-05
1.90043e-05
4.37194e-05
6.02557e-05
5.21489e-05
5.29427e-05
4.0307e-05
2.23819e-05
9.42415e-06
5.18123e-06
9.28021e-06
1.96232e-05
2.82057e-05
2.88459e-05
2.35579e-05
1.95139e-05
1.42614e-05
7.53508e-06
1.35683e-05
2.03491e-05
2.09086e-05
1.63853e-05
1.03878e-05
1.31583e-05
1.71961e-05
1.47794e-05
1.28041e-05
1.67017e-05
2.00148e-05
1.93237e-05
1.75766e-05
1.57355e-05
1.4935e-05
1.55735e-05
1.72639e-05
1.87462e-05
2.00686e-05
2.4221e-05
2.74638e-05
2.25493e-05
1.73736e-05
2.04323e-05
2.29992e-05
3.6232e-05
2.42614e-05
3.86608e-05
4.24869e-05
3.24293e-05
1.47346e-05
5.50017e-06
1.50337e-05
1.58342e-05
1.44697e-05
2.23071e-05
2.76821e-05
2.73317e-05
2.29825e-05
1.89236e-05
1.87443e-05
1.55351e-05
1.06625e-05
1.23126e-05
1.53404e-05
2.10548e-05
2.81933e-05
2.78999e-05
1.84171e-05
1.22154e-05
1.8549e-05
2.32072e-05
2.38059e-05
2.12885e-05
1.66445e-05
1.46356e-05
1.83607e-05
2.23314e-05
2.54221e-05
2.8634e-05
2.88442e-05
2.3747e-05
1.68147e-05
1.64911e-05
2.31145e-05
2.10437e-05
1.85578e-05
1.90313e-05
3.06768e-05
3.74687e-05
3.22061e-05
1.9349e-05
7.92355e-06
1.00684e-05
1.35137e-05
1.52656e-05
1.91926e-05
2.62405e-05
3.49629e-05
3.91734e-05
3.45334e-05
2.23239e-05
1.37006e-05
1.57075e-05
1.66363e-05
1.64448e-05
2.31067e-05
3.11611e-05
2.9567e-05
1.9902e-05
2.07276e-05
2.78911e-05
3.00324e-05
2.75924e-05
2.2423e-05
1.55285e-05
1.27368e-05
2.12869e-05
2.83763e-05
2.87963e-05
2.53658e-05
2.00868e-05
1.38018e-05
1.03418e-05
1.5178e-05
2.05107e-05
1.88256e-05
1.75119e-05
1.31007e-05
1.72502e-05
1.98209e-05
1.73164e-05
1.74332e-05
1.73034e-05
1.20648e-05
8.82307e-06
1.83956e-05
2.79312e-05
3.62918e-05
4.06308e-05
3.32044e-05
1.62719e-05
1.26084e-05
1.9291e-05
1.89492e-05
1.59362e-05
1.27385e-05
1.2397e-05
2.00178e-05
2.41527e-05
2.41942e-05
2.45239e-05
2.41967e-05
2.37105e-05
2.31336e-05
2.08416e-05
1.51004e-05
1.1944e-05
1.66615e-05
1.90958e-05
2.07932e-05
2.26079e-05
1.99766e-05
1.40514e-05
1.10069e-05
1.45649e-05
1.01674e-05
1.03574e-05
1.49874e-05
1.47572e-05
8.85838e-06
3.98696e-06
1.13388e-05
1.58228e-05
1.69924e-05
1.93031e-05
2.29455e-05
2.49641e-05
2.51061e-05
2.67885e-05
2.75421e-05
2.16415e-05
1.49475e-05
2.08274e-05
2.62268e-05
2.59425e-05
2.33672e-05
1.91247e-05
1.71169e-05
2.05481e-05
2.29738e-05
2.05026e-05
1.57195e-05
1.96164e-05
2.646e-05
2.91471e-05
2.72215e-05
2.13617e-05
1.42544e-05
1.00672e-05
1.42678e-05
1.99483e-05
2.01105e-05
1.52657e-05
1.23759e-05
1.28655e-05
1.6323e-05
2.28175e-05
2.73026e-05
2.7888e-05
2.45442e-05
1.73148e-05
7.63149e-06
7.64602e-06
1.48493e-05
1.74573e-05
1.78541e-05
1.97593e-05
2.01955e-05
1.58106e-05
9.44923e-06
6.95567e-06
5.36467e-06
9.84858e-06
2.0843e-05
2.74838e-05
2.62682e-05
2.12742e-05
1.84603e-05
1.85117e-05
1.88634e-05
1.74618e-05
1.61813e-05
1.80764e-05
2.20157e-05
2.59004e-05
2.78482e-05
2.7708e-05
2.56256e-05
2.09796e-05
1.53791e-05
1.23207e-05
1.24553e-05
1.40741e-05
1.4426e-05
1.33347e-05
1.19822e-05
1.19692e-05
1.63983e-05
2.24199e-05
2.40424e-05
2.03628e-05
1.81682e-05
2.07074e-05
2.30529e-05
2.34699e-05
2.26664e-05
2.08219e-05
1.80863e-05
1.51689e-05
1.21571e-05
8.51526e-06
5.63276e-06
5.48543e-06
1.00733e-05
1.77344e-05
2.24431e-05
2.03734e-05
1.66838e-05
1.79902e-05
1.7735e-05
1.43502e-05
1.35961e-05
1.35056e-05
1.01833e-05
7.34654e-06
8.69498e-06
1.22037e-05
1.64135e-05
1.71069e-05
1.36763e-05
1.06124e-05
9.46143e-06
9.78122e-06
1.16079e-05
1.25746e-05
1.26887e-05
1.09918e-05
1.46642e-05
1.71384e-05
1.55677e-05
1.33822e-05
1.26673e-05
1.11527e-05
8.76277e-06
8.59143e-06
1.05002e-05
1.32711e-05
1.54924e-05
1.48188e-05
1.26084e-05
1.18391e-05
1.31538e-05
1.76856e-05
2.20704e-05
2.21259e-05
1.87726e-05
1.53306e-05
1.21063e-05
1.01173e-05
1.31222e-05
1.88541e-05
2.24352e-05
2.03822e-05
1.30142e-05
7.03553e-06
8.18134e-06
8.19398e-06
8.00335e-06
9.08211e-06
9.82826e-06
9.85872e-06
9.10065e-06
9.89548e-06
1.34599e-05
1.50481e-05
2.60609e-05
2.43934e-05
2.28867e-05
2.05141e-05
1.48001e-05
8.68915e-06
1.12844e-05
1.47043e-05
1.2873e-05
9.77301e-06
1.26683e-05
1.74921e-05
1.94836e-05
1.81984e-05
1.55579e-05
1.37016e-05
1.28855e-05
1.67414e-05
2.31403e-05
2.421e-05
1.9341e-05
1.53897e-05
1.50694e-05
1.55013e-05
2.03878e-05
2.74202e-05
2.83005e-05
2.23726e-05
1.86282e-05
1.684e-05
1.18058e-05
8.27643e-06
6.88835e-06
6.7999e-06
1.30043e-05
1.83817e-05
1.97656e-05
1.9238e-05
2.15134e-05
2.52599e-05
6.40098e-05
6.75621e-05
6.90747e-05
6.84362e-05
6.65956e-05
6.42194e-05
6.16138e-05
5.92253e-05
5.80412e-05
5.86519e-05
6.02408e-05
6.18976e-05
6.37869e-05
6.66425e-05
7.05335e-05
7.45985e-05
7.8098e-05
8.07133e-05
8.23299e-05
8.31352e-05
8.41012e-05
8.59115e-05
8.76199e-05
8.76853e-05
8.53054e-05
8.07284e-05
7.46132e-05
6.73888e-05
5.92129e-05
5.16872e-05
4.73202e-05
4.58055e-05
4.50895e-05
4.47274e-05
4.55321e-05
4.76329e-05
5.06375e-05
5.39578e-05
5.68528e-05
5.99876e-05
6.64781e-05
7.13792e-05
7.40198e-05
7.42796e-05
7.26368e-05
6.96323e-05
6.61589e-05
6.3352e-05
6.19255e-05
6.17778e-05
6.22198e-05
6.28717e-05
6.41479e-05
6.66052e-05
7.01263e-05
7.39787e-05
7.76434e-05
8.08125e-05
8.32871e-05
8.5178e-05
8.71498e-05
8.9505e-05
9.13767e-05
9.17244e-05
8.99853e-05
8.66575e-05
8.25391e-05
7.73017e-05
6.96752e-05
6.03156e-05
5.22848e-05
4.72172e-05
4.4423e-05
4.34245e-05
4.38342e-05
4.53725e-05
4.78932e-05
5.12722e-05
5.54368e-05
6.06516e-05
6.60399e-05
7.26617e-05
7.74128e-05
7.96212e-05
7.92088e-05
7.65441e-05
7.27458e-05
6.93268e-05
6.70699e-05
6.56584e-05
6.46157e-05
6.37514e-05
6.33548e-05
6.40034e-05
6.60052e-05
6.90428e-05
7.25964e-05
7.61791e-05
7.94459e-05
8.23762e-05
8.53794e-05
8.86898e-05
9.16603e-05
9.34857e-05
9.34833e-05
9.21315e-05
9.06487e-05
8.86567e-05
8.34073e-05
7.28948e-05
5.97428e-05
4.92324e-05
4.33003e-05
4.08496e-05
4.04883e-05
4.16148e-05
4.40583e-05
4.7803e-05
5.28073e-05
5.90309e-05
6.19264e-05
6.97591e-05
7.67493e-05
8.16436e-05
8.37768e-05
8.30055e-05
8.01444e-05
7.67878e-05
7.40988e-05
7.17561e-05
6.93062e-05
6.66626e-05
6.37938e-05
6.12391e-05
6.00452e-05
6.0704e-05
6.28034e-05
6.56558e-05
6.87957e-05
7.21951e-05
7.61968e-05
8.10232e-05
8.60418e-05
9.03481e-05
9.28822e-05
9.34306e-05
9.40143e-05
9.5625e-05
9.51687e-05
8.75058e-05
7.16047e-05
5.47214e-05
4.37733e-05
3.86825e-05
3.71778e-05
3.79213e-05
4.0256e-05
4.39302e-05
4.8789e-05
5.47611e-05
5.37816e-05
6.08772e-05
6.87417e-05
7.61274e-05
8.18557e-05
8.47784e-05
8.46976e-05
8.29444e-05
8.12031e-05
7.92939e-05
7.6436e-05
7.26973e-05
6.77757e-05
6.16108e-05
5.57258e-05
5.18936e-05
5.03194e-05
5.02082e-05
5.09917e-05
5.29136e-05
5.67948e-05
6.30741e-05
7.07138e-05
7.83921e-05
8.46995e-05
8.74649e-05
8.86176e-05
9.26777e-05
9.85355e-05
9.89762e-05
8.69503e-05
6.60174e-05
4.82321e-05
3.86483e-05
3.48295e-05
3.45637e-05
3.65032e-05
3.97622e-05
4.37372e-05
4.8222e-05
4.44794e-05
4.81647e-05
5.31659e-05
5.98883e-05
6.8219e-05
7.58799e-05
8.04617e-05
8.22206e-05
8.34141e-05
8.43422e-05
8.33268e-05
8.02562e-05
7.51111e-05
6.69263e-05
5.6589e-05
4.71539e-05
4.03704e-05
3.56815e-05
3.26325e-05
3.19462e-05
3.42467e-05
3.94092e-05
4.62569e-05
5.47086e-05
6.52488e-05
7.23307e-05
7.28897e-05
7.57161e-05
8.68853e-05
9.91396e-05
9.94066e-05
8.18851e-05
5.82205e-05
4.22858e-05
3.45863e-05
3.20317e-05
3.29127e-05
3.57094e-05
3.88493e-05
4.16473e-05
3.83341e-05
3.85286e-05
3.82529e-05
3.96792e-05
4.4595e-05
5.26238e-05
6.09074e-05
6.70928e-05
7.2619e-05
7.87744e-05
8.30468e-05
8.36451e-05
8.09548e-05
7.38413e-05
6.18188e-05
4.82236e-05
3.69394e-05
2.82449e-05
2.1993e-05
2.11847e-05
2.52711e-05
3.00944e-05
3.32121e-05
3.26671e-05
3.57464e-05
4.74575e-05
5.02376e-05
4.50233e-05
5.42972e-05
7.88716e-05
9.86944e-05
9.59014e-05
7.3196e-05
5.05336e-05
3.77579e-05
3.17924e-05
3.01885e-05
3.2134e-05
3.49668e-05
3.70725e-05
3.61198e-05
3.58942e-05
3.27284e-05
2.95429e-05
3.02025e-05
3.23145e-05
3.50562e-05
3.94506e-05
4.53639e-05
5.44583e-05
6.50027e-05
7.28585e-05
7.61687e-05
7.37601e-05
6.42372e-05
5.00477e-05
3.72331e-05
2.86033e-05
2.24842e-05
1.81257e-05
1.92899e-05
2.462e-05
2.9022e-05
2.94779e-05
2.41222e-05
2.19741e-05
3.14035e-05
2.16938e-05
1.5008e-05
3.17658e-05
7.27016e-05
9.70178e-05
8.84692e-05
6.37523e-05
4.49041e-05
3.52368e-05
3.0103e-05
2.96672e-05
3.22047e-05
3.44716e-05
3.56326e-05
3.73653e-05
3.55893e-05
3.01087e-05
2.58367e-05
2.60224e-05
2.53973e-05
2.31332e-05
2.20767e-05
2.52057e-05
3.26791e-05
4.13118e-05
5.0443e-05
5.71419e-05
5.64281e-05
4.68497e-05
3.46094e-05
2.85527e-05
2.95052e-05
2.97606e-05
2.41521e-05
2.13053e-05
2.49731e-05
2.65654e-05
2.36423e-05
2.00534e-05
1.89617e-05
2.44142e-05
8.93235e-06
2.85647e-05
2.32124e-05
7.21947e-05
9.41488e-05
8.04801e-05
5.72514e-05
4.22769e-05
3.41815e-05
2.97755e-05
3.04571e-05
3.29444e-05
3.45782e-05
3.89968e-05
4.06175e-05
3.65461e-05
2.86705e-05
2.3078e-05
2.23228e-05
2.1297e-05
1.99365e-05
2.13403e-05
2.71444e-05
2.87294e-05
2.20466e-05
2.42615e-05
3.57607e-05
3.8508e-05
3.14582e-05
2.58658e-05
3.09236e-05
4.10843e-05
4.33929e-05
3.24718e-05
2.47829e-05
2.60808e-05
2.38627e-05
1.90959e-05
1.73594e-05
2.12939e-05
2.46582e-05
1.82264e-05
3.9593e-05
2.50813e-05
7.52485e-05
9.1931e-05
7.55257e-05
5.35587e-05
4.07315e-05
3.311e-05
3.01466e-05
3.12296e-05
2.9892e-05
3.67646e-05
4.28582e-05
4.26804e-05
3.50804e-05
2.3302e-05
1.67319e-05
1.85012e-05
1.93255e-05
1.97879e-05
2.39297e-05
3.12137e-05
3.07302e-05
1.86037e-05
1.34913e-05
2.4939e-05
2.89692e-05
2.70654e-05
2.88308e-05
3.70761e-05
4.65721e-05
4.55057e-05
3.1081e-05
2.24632e-05
2.28055e-05
1.60236e-05
1.74335e-05
1.53376e-05
2.30242e-05
2.46184e-05
2.46101e-05
4.00606e-05
2.85779e-05
7.69387e-05
8.98827e-05
7.04238e-05
4.8946e-05
3.71072e-05
3.04145e-05
2.77651e-05
2.27342e-05
2.97146e-05
3.7874e-05
4.13444e-05
3.87771e-05
3.07823e-05