/*--------------------------------*- C++ -*----------------------------------*\
| =========                 |                                                 |
| \\      /  F ield         | OpenFOAM: The Open Source CFD Toolbox           |
|  \\    /   O peration     | Version:  2306                                  |
|   \\  /    A nd           | Website:  www.openfoam.com                      |
|    \\/     M anipulation  |                                                 |
\*---------------------------------------------------------------------------*/
FoamFile
{
    version     2.0;
    format      ascii;
    arch        "LSB;label=32;scalar=64";
    class       volScalarField;
    location    "0.5";
    object      p;
}
// * * * * * * * * * * * * * * * * * * * * * * * * * * * * * * * * * * * * * //

dimensions      [0 2 -2 0 0 0 0];

internalField   nonuniform List<scalar> 
60000
(
6.84876e-05
0.000125087
0.000156963
0.000177998
0.000196763
0.000195588
0.000161396
0.000118188
0.000109653
0.000156994
0.000227402
0.000270053
0.000261725
0.000216689
0.000168629
0.000127503
8.61441e-05
4.4648e-05
1.70598e-05
1.74541e-05
5.58223e-05
0.000112135
0.000153521
0.000167279
0.000158537
0.000144494
0.000163078
0.000222971
0.000272289
0.00027911
0.000266241
0.000258138
0.000254893
0.000238061
0.000206961
0.000160253
9.88724e-05
2.07278e-05
-2.2172e-05
3.35434e-06
6.51953e-05
0.000122431
0.000155187
0.000176516
0.000195112
0.000193753
0.000159134
0.000115366
0.000106887
0.000154537
0.000225967
0.000269526
0.000261677
0.000216859
0.000169031
0.000128208
8.6896e-05
4.51897e-05
1.72399e-05
1.75097e-05
5.58243e-05
0.000112151
0.000153153
0.00016598
0.000156612
0.000142093
0.000160306
0.000220782
0.000271288
0.000279082
0.000266986
0.000259693
0.000257129
0.000240775
0.000209725
0.000163389
0.000101371
2.16503e-05
-2.34085e-05
3.44208e-07
6.06028e-05
0.000119293
0.00015327
0.000174979
0.000193813
0.00019291
0.000158242
0.000112978
0.000102624
0.000150134
0.000223688
0.00026936
0.000262443
0.000217621
0.000169672
0.00012886
8.7387e-05
4.51718e-05
1.677e-05
1.69776e-05
5.56084e-05
0.000112017
0.000152501
0.000164744
0.000154877
0.000139096
0.000155807
0.0002168
0.000269039
0.000277996
0.000266954
0.000261078
0.000259616
0.000243424
0.000211701
0.00016508
0.000102051
2.018e-05
-2.72722e-05
-4.80005e-06
5.50382e-05
0.000115863
0.000151418
0.000173525
0.000192914
0.000193022
0.000158562
0.000111364
9.7727e-05
0.000143913
0.000220175
0.000269571
0.000264376
0.00021924
0.00017061
0.00012942
8.7555e-05
4.44704e-05
1.55511e-05
1.60812e-05
5.56156e-05
0.000112279
0.000151921
0.00016346
0.000153199
0.000135778
0.0001503
0.000211794
0.000265927
0.000275676
0.00026562
0.000262006
0.000262226
0.000245919
0.000212558
0.000165052
0.000100352
1.57545e-05
-3.40435e-05
-1.18265e-05
4.84953e-05
0.000111318
0.000148764
0.000171623
0.000191696
0.000193161
0.000159947
0.000111886
9.462e-05
0.00013731
0.000214843
0.000268993
0.000267133
0.00022187
0.000172097
0.000130095
8.74705e-05
4.33925e-05
1.3494e-05
1.47399e-05
5.57297e-05
0.000112659
0.000151083
0.00016195
0.000151514
0.000132523
0.000144858
0.000207071
0.000263267
0.000273037
0.000263025
0.000261946
0.000265209
0.00024932
0.000214104
0.000166455
9.79503e-05
9.3299e-06
-4.23513e-05
-2.0031e-05
4.1093e-05
0.000105116
0.00014367
0.000167858
0.000189325
0.000191985
0.000160557
0.000114722
9.57222e-05
0.000133816
0.000209263
0.000266622
0.000269676
0.000225407
0.00017439
0.000131256
8.74014e-05
4.15934e-05
1.00634e-05
1.19473e-05
5.50415e-05
0.000111818
0.000146735
0.000156059
0.000147625
0.000128541
0.000139464
0.000203224
0.000262561
0.000272574
0.000261257
0.00026137
0.000268265
0.000254321
0.000218463
0.000171988
9.99436e-05
2.14514e-06
-5.28663e-05
-2.97784e-05
3.04604e-05
9.76154e-05
0.000136659
0.000160429
0.000184063
0.000188899
0.000158643
0.000115815
0.000100152
0.000135999
0.000207393
0.000263887
0.000271054
0.000229269
0.000177473
0.000133027
8.75098e-05
3.89796e-05
4.30903e-06
5.40995e-06
5.16826e-05
0.000111157
0.00014184
0.000144446
0.000135808
0.000118934
0.000131309
0.000198004
0.000262321
0.000275724
0.00026449
0.000263686
0.000271453
0.000259216
0.000225289
0.000184006
0.000112407
3.39901e-06
-6.49442e-05
-4.53459e-05
1.3273e-05
8.7875e-05
0.00012971
0.000151192
0.000174736
0.000182925
0.000154816
0.000114426
0.000101076
0.000138827
0.000210844
0.000264544
0.000272235
0.000233086
0.000181293
0.000135248
8.75765e-05
3.56054e-05
-3.41843e-06
-4.60401e-06
4.58907e-05
0.000113859
0.000144344
0.000137049
0.000119884
0.000101079
0.000116624
0.000189388
0.000259266
0.000274843
0.000267539
0.000272005
0.000277123
0.000261448
0.000227993
0.000197775
0.000135854
1.72397e-05
-7.30052e-05
-6.58681e-05
-9.88256e-06
7.50826e-05
0.000122183
0.00014167
0.000162688
0.000173899
0.00015043
0.000112672
0.000100089
0.000133655
0.000207988
0.000267174
0.000274744
0.000237003
0.000186016
0.000138428
8.74606e-05
3.1598e-05
-1.05787e-05
-1.23542e-05
4.38512e-05
0.000124779
0.000160797
0.000142325
0.000107243
7.78806e-05
9.5731e-05
0.000177435
0.000254821
0.000271295
0.000263376
0.000271404
0.000280118
0.000261004
0.000223689
0.000204797
0.000163835
4.31606e-05
-7.26008e-05
-8.8053e-05
-3.7221e-05
5.65093e-05
0.000114184
0.00013217
0.000149895
0.000163336
0.000145264
0.000110775
9.77035e-05
0.000125129
0.00019346
0.000257499
0.000273236
0.000239543
0.000190653
0.000143192
8.82515e-05
2.70965e-05
-1.6434e-05
-1.37616e-05
5.19832e-05
0.000148567
0.000194104
0.000164393
0.000105378
5.67925e-05
7.27701e-05
0.000161065
0.000246452
0.000264398
0.000256683
0.000268932
0.0002785
0.000258158
0.000216164
0.000203115
0.000188841
7.91666e-05
-6.07459e-05
-0.000104748
-6.73846e-05
3.16232e-05
0.000104464
0.000124245
0.000139722
0.000153485
0.000141141
0.000109945
9.52606e-05
0.00011631
0.000175262
0.00023596
0.000255735
0.000230622
0.000189813
0.000147889
9.20765e-05
2.52591e-05
-2.03751e-05
-1.0622e-05
6.74521e-05
0.000182749
0.000244783
0.000206271
0.00012041
5.14427e-05
5.55359e-05
0.000141094
0.000229116
0.000249549
0.000245976
0.000266802
0.000278732
0.000258016
0.000213571
0.000200666
0.00020723
0.000122221
-3.33801e-05
-0.000109533
-8.28449e-05
6.12392e-06
9.2158e-05
0.000117686
0.00013288
0.000145877
0.000138513
0.000109167
9.51752e-05
0.000111222
0.000161026
0.000212392
0.00022795
0.00020435
0.000174289
0.000144897
9.73715e-05
3.19148e-05
-1.43089e-05
-1.16385e-06
8.50922e-05
0.000213571
0.000299467
0.00026643
0.0001585
6.76193e-05
5.27197e-05
0.000122635
0.000202404
0.000228354
0.000233341
0.000266432
0.000291063
0.000267194
0.000220814
0.000204812
0.000220559
0.000165251
1.00844e-05
-9.66111e-05
-7.91853e-05
-8.94133e-06
8.25206e-05
0.000110557
0.000126931
0.000138455
0.00013628
0.000109716
9.43057e-05
0.000108852
0.000153455
0.000196601
0.00020275
0.000169813
0.000144182
0.000131559
9.80642e-05
4.35983e-05
6.81301e-06
2.03905e-05
0.000100322
0.00022792
0.000334676
0.000327722
0.000214106
0.000105577
6.57647e-05
0.000113121
0.000174386
0.000205414
0.000220097
0.000267826
0.000298116
0.000280528
0.000237508
0.000215365
0.0002294
0.000198379
6.31822e-05
-6.47497e-05
-5.44753e-05
-6.39756e-06
6.65877e-05
0.000105519
0.000119025
0.000129171
0.000131203
0.000111273
9.34748e-05
0.000107189
0.000150574
0.000191822
0.000192487
0.000148438
0.000118577
0.000116259
9.33011e-05
4.96514e-05
2.68716e-05
4.50575e-05
0.000107406
0.000221166
0.000332821
0.000364428
0.000268213
0.000152912
9.5921e-05
0.000108221
0.000148853
0.000185326
0.000218007
0.000268803
0.00030403
0.000292132
0.000255227
0.000227061
0.000230899
0.000214929
0.000112837
-1.67321e-05
-9.24807e-06
1.45891e-05
6.53364e-05
0.000106422
0.000119126
0.000120774
0.000122301
0.000110649
9.36256e-05
0.000105248
0.000148401
0.000190601
0.000195815
0.000156985
0.000119251
0.000113471
9.334e-05
4.79724e-05
3.38334e-05
5.9784e-05
0.000107205
0.000201055
0.000304589
0.000367863
0.000303804
0.000193952
0.000119169
0.000101861
0.000126397
0.000167799
0.000211333
0.000261631
0.000299261
0.000296337
0.000267049
0.000236046
0.000225079
0.00021552
0.00015016
4.11242e-05
4.55531e-05
4.59518e-05
7.39579e-05
0.000111897
0.000123429
0.000113897
0.000108004
0.000102933
9.47439e-05
0.000105566
0.000145025
0.000185158
0.000198327
0.000173807
0.000139878
0.00012208
9.57499e-05
4.67162e-05
2.99028e-05
7.2347e-05
0.000118393
0.000176381
0.000269644
0.000342967
0.000315797
0.000228071
0.000143357
0.000100551
0.000109589
0.000150434
0.000196046
0.000242058
0.000283285
0.000295626
0.000275803
0.000238487
0.000216473
0.000209119
0.000171884
9.50334e-05
9.16469e-05
7.7406e-05
8.95166e-05
0.000120827
0.000130355
0.000111025
9.36256e-05
8.32654e-05
8.82528e-05
0.000103517
0.000140201
0.000181395
0.000199847
0.000181661
0.000153476
0.0001308
0.000102506
5.35019e-05
3.92305e-05
8.84376e-05
0.000142068
0.000172797
0.000238879
0.000303956
0.000302015
0.000244012
0.000166646
0.000112366
0.000104437
0.000136279
0.000183991
0.000229688
0.000264116
0.000280996
0.000274784
0.000239253
0.000207933
0.000199455
0.000182164
0.000132868
0.00012538
0.000109695
0.00010908
0.000129593
0.000136051
0.000110731
8.01445e-05
6.39514e-05
7.23677e-05
9.406e-05
0.000130628
0.000178102
0.000207078
0.000193909
0.000160892
0.000136273
0.000110599
6.68556e-05
6.14202e-05
0.000102913
0.000155557
0.000178415
0.000220526
0.000270604
0.000281332
0.000242957
0.000174419
0.000119416
0.000108293
0.000135801
0.000179595
0.00022617
0.00026114
0.000278465
0.000267245
0.000226174
0.000186802
0.000175705
0.000174262
0.000149418
0.000132398
0.000125164
0.000130841
0.000143377
0.000140205
0.000109809
7.37533e-05
4.96163e-05
4.79402e-05
6.76449e-05
0.000103469
0.00015651
0.000202049
0.000205685
0.000174994
0.000151293
0.000132543
9.75637e-05
7.88632e-05
0.000112025
0.000150811
0.000171597
0.000208014
0.00026134
0.000272429
0.000233844
0.000169095
0.00012265
0.000114386
0.000134806
0.000169825
0.00021618
0.000258162
0.000273212
0.0002563
0.00021354
0.000168098
0.00014887
0.000152128
0.000145965
0.000126347
0.000125373
0.000131632
0.000142207
0.000139034
0.000112296
7.98331e-05
5.46321e-05
4.09747e-05
4.42925e-05
6.57657e-05
0.000109474
0.00016106
0.00018524
0.000169298
0.000152664
0.000155343
0.000137085
0.000104685
0.000100602
0.000128042
0.000159516
0.000188075
0.000254216
0.000270057
0.00022298
0.000150169
0.000105501
0.000102022
0.000119636
0.000151556
0.000197665
0.00024326
0.000258954
0.000239295
0.000201094
0.000158968
0.000129733
0.000122962
0.000126178
0.000110608
0.000126311
0.000136958
0.000141441
0.000131081
0.000107113
8.38121e-05
6.51334e-05
4.81809e-05
3.86714e-05
4.54696e-05
7.07683e-05
0.000108728
0.000144297
0.000154226
0.000147697
0.00014666
0.000147969
0.000123433
9.66207e-05
0.000103582
0.000146723
0.000197059
0.000254881
0.000268141
0.00021001
0.000120985
6.51094e-05
6.23287e-05
9.3387e-05
0.000138364
0.000185482
0.0002267
0.000243597
0.000231201
0.000205374
0.00017095
0.000132362
0.000103654
9.92839e-05
0.000105995
0.000115984
0.00012929
0.000134188
0.000125301
0.00010737
8.85885e-05
7.18443e-05
5.818e-05
5.20976e-05
5.57734e-05
6.57698e-05
8.05982e-05
0.000103569
0.000128476
0.000142768
0.000148995
0.000149129
0.000131858
0.000111971
0.000121738
0.000146828
0.000191904
0.000247477
0.000265253
0.00021342
0.000120182
4.70937e-05
3.2603e-05
6.74552e-05
0.000124772
0.000182286
0.000224565
0.000239408
0.000218319
0.000200957
0.000191888
0.000173601
0.00013848
0.000106717
0.000109554
0.000101133
0.000105912
0.000112103
0.000113535
0.000110513
0.000100992
8.41504e-05
6.96341e-05
6.88785e-05
7.50816e-05
8.33364e-05
9.0776e-05
0.000101096
0.000119355
0.000139636
0.000151542
0.000151435
0.00014172
0.000131225
0.000132939
0.00015062
0.00018344
0.000224795
0.000242658
0.000208236
0.000135996
7.26153e-05
5.04175e-05
7.20748e-05
0.00012013
0.000172653
0.00020958
0.000219192
0.000209498
0.000197536
0.000197708
0.000187442
0.000161046
0.000134879
8.24099e-05
7.15385e-05
8.11833e-05
9.722e-05
0.000110857
0.000119338
0.000118384
0.000105922
9.31558e-05
8.75283e-05
8.86648e-05
8.90214e-05
9.58813e-05
0.000112366
0.000129469
0.00014447
0.000158994
0.00016448
0.000157209
0.000144414
0.000136773
0.000141014
0.00015856
0.000188946
0.000212649
0.000199314
0.000148307
9.36813e-05
6.95474e-05
8.04482e-05
0.000113285
0.000153243
0.000186509
0.000198602
0.000194867
0.000191865
0.000198081
0.000192401
0.000161782
0.000117297
6.12813e-05
4.45186e-05
5.45335e-05
7.89993e-05
0.000103181
0.00011889
0.000122481
0.000113669
0.000100844
9.6169e-05
0.000102794
0.000109736
0.000110285
0.000112676
0.000130125
0.000159204
0.00018781
0.000193783
0.000185556
0.00015836
0.000124914
0.000123813
0.000127273
0.000140279
0.000175945
0.000184692
0.000157938
0.000118227
9.51177e-05
9.6053e-05
0.000116969
0.000143442
0.000167663
0.000182944
0.000192551
0.000200905
0.000205271
0.000192829
0.000158629
0.000108377
-5.31372e-05
-6.37971e-08
6.16498e-05
0.000117032
0.000156437
0.000164728
0.000136746
9.93218e-05
9.4077e-05
0.000135543
0.000189048
0.00021159
0.000194249
0.000160373
0.000136558
0.000119978
9.59517e-05
6.04333e-05
2.88856e-05
2.57456e-05
6.87791e-05
0.000146094
0.000217284
0.000253452
0.000261745
0.000259662
0.000258712
0.000272849
0.000296172
0.000312725
0.000324933
0.000335274
0.000333853
0.00030982
0.000281499
0.000263712
0.000205849
9.76678e-05
-1.38977e-05
-6.74417e-05
-5.44045e-05
-2.81037e-06
5.8459e-05
0.000114123
0.000154248
0.00016279
0.000135298
9.76081e-05
9.21696e-05
0.000134128
0.000188309
0.000211241
0.000193996
0.000160128
0.000136418
0.000120105
9.62556e-05
6.0761e-05
2.88818e-05
2.4928e-05
6.67515e-05
0.000142942
0.00021345
0.000249376
0.000257942
0.000256807
0.000256908
0.000271558
0.000294722
0.000311029
0.000323691
0.000335115
0.00033476
0.000311399
0.000283258
0.000265865
0.00020922
0.000101121
-1.16458e-05
-6.70067e-05
-5.81574e-05
-6.4547e-06
5.49074e-05
0.00011136
0.000152655
0.000162037
0.000134266
9.54934e-05
8.9027e-05
0.000131447
0.000186979
0.000210641
0.000193394
0.000159385
0.000135946
0.000120326
9.66845e-05
6.11256e-05
2.86868e-05
2.38133e-05
6.46827e-05
0.00014024
0.000210472
0.000246089
0.000254504
0.000254195
0.000255435
0.00027035
0.000292654
0.000307926
0.000321013
0.000334644
0.00033641
0.000313507
0.000285427
0.000268911
0.000213539
0.000104218
-1.15987e-05
-6.97267e-05
-6.48588e-05
-1.11928e-05
5.11414e-05
0.000108563
0.000151226
0.000161684
0.000133749
9.33306e-05
8.49007e-05
0.000127325
0.000184691
0.000209577
0.000192219
0.00015786
0.000134915
0.000120402
9.70484e-05
6.1396e-05
2.82599e-05
2.28492e-05
6.37637e-05
0.000139686
0.000210116
0.000245196
0.000252599
0.000252302
0.000254348
0.00026947
0.000290614
0.000303957
0.000316607
0.000332776
0.000337919
0.00031589
0.000287951
0.000272721
0.000218388
0.000105704
-1.55443e-05
-7.69409e-05
-7.47485e-05
-1.75109e-05
4.64194e-05
0.00010481
0.000148978
0.00016099
0.000133761
9.27674e-05
8.1927e-05
0.000122664
0.000180943
0.000207513
0.000190386
0.000155435
0.000133034
0.000120078
9.72482e-05
6.10965e-05
2.74495e-05
2.18514e-05
6.38012e-05
0.000140947
0.00021175
0.00024619
0.000252359
0.000251458
0.000253554
0.000268895
0.000289417
0.000300612
0.000311319
0.000328437
0.000337119
0.00031741
0.000290306
0.000276569
0.000224518
0.000106209
-2.3279e-05
-8.87288e-05
-8.7609e-05
-2.55618e-05
3.94905e-05
9.80084e-05
0.000143864
0.000158176
0.000133463
9.42065e-05
8.29416e-05
0.000120926
0.000176811
0.000203892
0.000187969
0.000152746
0.000130645
0.000119391
9.73737e-05
6.04902e-05
2.55717e-05
1.9662e-05
6.26962e-05
0.000141272
0.000211929
0.00024459
0.00024995
0.000250322
0.000252929
0.000268533
0.000289499
0.000299719
0.000307738
0.000322752
0.000332288
0.000315379
0.000291503
0.000282334
0.000232423
0.00010807
-3.27207e-05
-0.000104453
-0.000103223
-3.47294e-05
3.1666e-05
8.78579e-05
0.000134041
0.000151194
0.000129733
9.43188e-05
8.58633e-05
0.000123932
0.000175934
0.000199749
0.000184713
0.000150428
0.000128801
0.000119028
9.77453e-05
5.974e-05
2.22493e-05
1.36645e-05
5.63222e-05
0.000136721
0.000207463
0.000236603
0.000238707
0.000241429
0.000248578
0.000266899
0.000290084
0.000301859
0.000308205
0.000318855
0.000324579
0.000307453
0.000288401
0.000290157
0.00024647
0.000114982
-3.87031e-05
-0.000121332
-0.000119296
-4.54643e-05
2.43716e-05
7.80155e-05
0.000122135
0.000141744
0.000124006
9.20487e-05
8.43746e-05
0.000121932
0.000175148
0.000197096
0.000181305
0.000148299
0.000127762
0.000119422
9.84976e-05
5.87324e-05
1.71687e-05
2.17925e-06
4.08787e-05
0.000124313
0.000198375
0.000223665
0.000219713
0.000222472
0.000234255
0.000258923
0.000287198
0.000302976
0.000311477
0.000318901
0.000317656
0.000295348
0.000278059
0.000296232
0.000268644
0.000133161
-3.46711e-05
-0.000130903
-0.000132238
-5.68659e-05
1.68821e-05
6.96601e-05
0.000111048
0.000132517
0.000118691
8.99147e-05
8.10548e-05
0.000113496
0.000165615
0.000190763
0.000177556
0.00014629
0.000127087
0.00012016
9.90827e-05
5.70023e-05
1.14618e-05
-1.12868e-05
1.92805e-05
0.000104003
0.000185962
0.000211317
0.000199189
0.000197992
0.000210991
0.000242321
0.000280498
0.000301079
0.000308481
0.000316033
0.000312563
0.000284812
0.000263525
0.000296159
0.000295581
0.000164462
-1.83418e-05
-0.000130538
-0.000142661
-6.90556e-05
8.09679e-06
6.23478e-05
0.000101711
0.000124579
0.000114339
8.78273e-05
7.81079e-05
0.000104876
0.000152162
0.000177612
0.000169604
0.000142908
0.000125948
0.000120712
9.89577e-05
5.40398e-05
7.19608e-06
-1.85074e-05
4.11822e-06
8.54288e-05
0.000173793
0.000202664
0.000183277
0.000174188
0.00018256
0.000218842
0.000269728
0.000297892
0.000304018
0.000310007
0.000305022
0.000280129
0.000253344
0.000291153
0.000320592
0.000206798
1.049e-05
-0.000122601
-0.000143698
-8.33586e-05
-4.5239e-06
5.50869e-05
9.57115e-05
0.000119482
0.000111509
8.61195e-05
7.56167e-05
9.76075e-05
0.000139369
0.00016165
0.00015467
0.000132738
0.000120754
0.000119727
9.83285e-05
4.98299e-05
4.49583e-06
-1.56508e-05
6.72427e-06
8.20949e-05
0.000171232
0.000202089
0.000175774
0.000153739
0.000155872
0.000191149
0.000253193
0.000292044
0.000300246
0.000307027
0.000308975
0.000284194
0.000255014
0.000290108
0.000340466
0.000254169
5.28535e-05
-0.00010518
-0.000136822
-9.54904e-05
-2.24434e-05
4.52646e-05
9.07956e-05
0.000117838
0.000111051
8.48976e-05
7.1034e-05
9.10867e-05
0.000129928
0.000148832
0.000138003
0.000115955
0.000107411
0.00011308
9.63859e-05
4.72655e-05
4.12658e-06
-5.90267e-06
2.54652e-05
9.6392e-05
0.00018238
0.000213304
0.000181659
0.00014869
0.000141008
0.000163937
0.000228041
0.000277961
0.000293389
0.000304146
0.000312647
0.00029639
0.000266634
0.000296702
0.000357211
0.000299281
0.000106618
-7.2717e-05
-0.00011421
-9.87722e-05
-4.26651e-05
3.48233e-05
8.5265e-05
0.000115931
0.000110767
8.3489e-05
6.62987e-05
8.66425e-05
0.000127259
0.000144875
0.000127666
9.99622e-05
9.19171e-05
0.000103535
9.35807e-05
4.74838e-05
8.73769e-06
6.64649e-06
4.56803e-05
0.000111545
0.000195743
0.000231891
0.000200706
0.000160298
0.000145333
0.000146237
0.000197643
0.00025109
0.000278819
0.000299224
0.000314736
0.000305941
0.000279961
0.000302171
0.000365039
0.000333171
0.000162144
-2.55312e-05
-7.39557e-05
-8.20778e-05
-3.75e-05
2.92471e-05
7.94761e-05
0.000112227
0.000112296
8.48474e-05
6.53276e-05
8.7196e-05
0.000132079
0.000151316
0.000130236
9.66383e-05
8.55074e-05
9.88441e-05
9.06933e-05
4.44833e-05
1.99321e-05
2.41042e-05
5.95516e-05
0.000113949
0.00019349
0.00024391
0.000224954
0.000182429
0.000153654
0.000141573
0.000170862
0.000218108
0.000253326
0.000283356
0.000308837
0.000309432
0.00028647
0.000297888
0.000351833
0.000344503
0.000206867
2.87892e-05
-1.85469e-05
-4.57208e-05
-2.0323e-05
3.15755e-05
7.66776e-05
0.000106487
0.000110439
8.78292e-05
7.01796e-05
9.18761e-05
0.000138952
0.000161574
0.000145944
0.000116511
0.000102395
0.000101332
8.13647e-05
4.24656e-05
2.51781e-05
4.04089e-05
7.06158e-05
0.000105894
0.000181299
0.00024747
0.000247642
0.000206211
0.000165042
0.000142826
0.000152527
0.000187455
0.000227361
0.000262191
0.000293215
0.000303204
0.000286362
0.000286693
0.000320756
0.000328469
0.00023478
8.55675e-05
4.84304e-05
1.12656e-05
1.33492e-05
4.2701e-05
7.4827e-05
9.57871e-05
0.000101376
8.44141e-05
7.63583e-05
9.91141e-05
0.000144979
0.000170718
0.000161691
0.000138117
0.000119978
0.000106001
7.31285e-05
2.88271e-05
1.81944e-05
5.3674e-05
8.9399e-05
0.000112487
0.000171996
0.000244783
0.000265119
0.000229444
0.000174894
0.000139374
0.000140671
0.000168703
0.0002071
0.000244255
0.00027911
0.000301718
0.000291301
0.000275229
0.000288593
0.000297455
0.000242535
0.000138337
0.000104767
7.48309e-05
6.80192e-05
7.47815e-05
8.05157e-05
7.6574e-05
8.23239e-05
7.21598e-05
7.41974e-05
0.000101618
0.000148694
0.000177716
0.000172903
0.000154531
0.000134277
0.000113874
7.96817e-05
3.33317e-05
1.84567e-05
6.56019e-05
0.000115557
0.000132154
0.00016979
0.000235041
0.000266714
0.000238034
0.000181216
0.000141366
0.000133638
0.00015505
0.000195409
0.000236699
0.000269553
0.000295656
0.000294466
0.000265222
0.000258857
0.000268682
0.000245627
0.000167942
0.000149664
0.000126448
0.000119805
0.000113259
9.67544e-05
7.93782e-05
6.39523e-05
5.13401e-05
5.76006e-05
9.34519e-05
0.000149708
0.000182086
0.000187886
0.000171356
0.000144404
0.000119077
9.25107e-05
5.39637e-05
2.55706e-05
7.09004e-05
0.000130301
0.000156475
0.000182744
0.000228349
0.000258083
0.000236831
0.000182802
0.000141455
0.000131162
0.000149601
0.000185822
0.000229552
0.000267413
0.000290072
0.000284392
0.000246725
0.000226062
0.000230468
0.00023525
0.000193299
0.000163833
0.000150878
0.000156658
0.000152513
0.000122919
8.12173e-05
5.06535e-05
3.47373e-05
3.75176e-05
6.15254e-05
0.000106767
0.000161192
0.000195665
0.000192983
0.00015988
0.00012682
0.000108242
8.26563e-05
5.57536e-05
6.83196e-05
0.000123299
0.000164506
0.000196679
0.000234687
0.000252301
0.000225319
0.00017621
0.000142285
0.000131976
0.000144525
0.000174859
0.000214
0.000255437
0.000276224
0.000267724
0.000228694
0.000188795
0.000183339
0.000194612
0.000192306
0.000164886
0.000158221
0.000157773
0.00015386
0.000136035
9.98081e-05
6.17061e-05
3.77832e-05
2.4911e-05
3.10129e-05
6.01174e-05
0.000111073
0.000154283
0.000177724
0.000168555
0.000142239
0.00012898
0.000115614
8.61114e-05
7.10113e-05
9.65197e-05
0.000143308
0.000199676
0.000236148
0.000246661
0.000210046
0.000161272
0.000137206
0.000131312
0.000144039
0.000168437
0.000199002
0.000235061
0.000253512
0.000244776
0.000214108
0.000175065
0.00015187
0.0001602
0.000172216
0.000152759
0.000155622
0.00016215
0.000162245
0.000139459
0.000101234
6.97069e-05
4.87806e-05
2.87834e-05
1.74804e-05
2.79968e-05
5.9447e-05
9.69903e-05
0.00013107
0.000148059
0.000146288
0.000140274
0.000130548
0.000106206
8.39188e-05
9.47649e-05
0.00013488
0.000187938
0.000229967
0.000236546
0.00019545
0.000139374
0.00010771
0.000110423
0.00013466
0.000168752
0.000199653
0.000222682
0.000232356
0.000229363
0.000217466
0.000185753
0.000147802
0.000134862
0.000145338
0.000145562
0.000152224
0.000159889
0.000157659
0.000135465
0.000103651
7.90556e-05
6.45357e-05
5.2931e-05
4.1912e-05
3.68477e-05
4.19791e-05
5.58057e-05
7.83443e-05
0.000105702
0.000127026
0.000136086
0.000133851
0.000120647
0.000108826
0.000116461
0.000141961
0.000181496
0.000219168
0.000227521
0.000192724
0.000135408
9.23759e-05
8.28581e-05
0.000111928
0.000158579
0.00019934
0.000223347
0.000225576
0.000213007
0.000206239
0.00020321
0.000181901
0.000151658
0.000140498
0.000135604
0.000135516
0.000137396
0.000133253
0.000120336
0.000106585
9.49633e-05
8.24644e-05
7.37243e-05
7.72337e-05
7.94631e-05
8.1536e-05
7.96994e-05
7.99145e-05
9.17908e-05
0.000112925
0.000128364
0.000129399
0.000120047
0.000114645
0.000123838
0.000144935
0.000173946
0.000202838
0.000213479
0.000189344
0.000139367
9.37465e-05
7.58994e-05
9.74786e-05
0.000141025
0.000185097
0.000211808
0.00021403
0.000204311
0.000200442
0.000204026
0.000193253
0.000166404
0.000144927
0.000107277
9.79911e-05
9.92797e-05
0.00010371
0.000106937
0.000111653
0.00011415
0.000105981
9.25912e-05
8.36017e-05
8.77878e-05
9.34331e-05
0.00010018
0.000108779
0.000118328
0.000129699
0.000139631
0.000142176
0.000136515
0.000129239
0.00012755
0.000135853
0.000154737
0.000177878
0.000192862
0.000183622
0.000146119
0.000102144
8.27845e-05
9.70867e-05
0.00012873
0.000163178
0.000189894
0.000198133
0.000193079
0.000193295
0.000201586
0.00019647
0.000167543
0.000131795
7.3258e-05
5.36122e-05
5.6569e-05
7.42296e-05
9.64657e-05
0.000114441
0.000122348
0.000117023
0.000103608
9.54743e-05
0.000100891
0.000109395
0.000112699
0.000117072
0.000132905
0.000156481
0.00017555
0.000178895
0.000168757
0.000145883
0.000126127
0.000118885
0.000128748
0.000147267
0.000170082
0.000176194
0.000154287
0.00012244
0.000108993
0.000117715
0.000132987
0.000149859
0.00016697
0.000179922
0.000190089
0.000200771
0.000207535
0.000196676
0.000162101
0.000114445
-5.43329e-06
-4.30031e-06
1.94471e-05
5.47631e-05
9.83313e-05
0.000130246
0.000128448
0.000101614
8.57741e-05
0.000103487
0.000134193
0.000145111
0.000131803
0.000116244
0.000112861
0.000110125
9.32253e-05
6.84824e-05
5.26885e-05
5.90862e-05
9.69959e-05
0.000164894
0.000233292
0.000270647
0.000277491
0.000268217
0.000259979
0.000275136
0.000308716
0.000341495
0.000372098
0.000392549
0.000385224
0.000342528
0.000305392
0.000281331
0.000239873
0.000173214
9.83282e-05
3.09397e-05
-4.9045e-06
-4.16957e-06
1.94003e-05
5.44616e-05
9.78011e-05
0.000129868
0.000128477
0.000101915
8.60547e-05
0.000103727
0.000134518
0.000145442
0.000131984
0.000116024
0.000112622
0.000110044
9.30396e-05
6.79239e-05
5.16867e-05
5.77462e-05
9.53053e-05
0.000162904
0.000231137
0.000268178
0.000274752
0.000265279
0.00025639
0.00027065
0.000303859
0.000336741
0.000368231
0.00039057
0.000385363
0.000342767
0.000306491
0.00028397
0.000242567
0.000175824
0.000100508
3.23153e-05
-6.04797e-06
-5.41995e-06
1.83427e-05
5.32911e-05
9.65789e-05
0.000129205
0.000128523
0.000102045
8.56103e-05
0.000102981
0.000134018
0.000145028
0.000131269
0.000115134
0.000112094
0.000110073
9.31532e-05
6.74614e-05
5.06516e-05
5.63378e-05
9.34522e-05
0.000160876
0.000229182
0.000266295
0.000272767
0.000263408
0.000253737
0.000266129
0.000297492
0.000329334
0.000362281
0.000388654
0.00038754
0.000344765
0.000309016
0.000287098
0.000245948
0.000178404
0.00010183
3.23458e-05
-9.73627e-06
-8.84e-06
1.53645e-05
5.02505e-05
9.37766e-05
0.000127499
0.000127809
0.000101187
8.36009e-05
0.000100341
0.000131827
0.000143127
0.000129085
0.000113039
0.00011105
0.000110335
9.37356e-05
6.7254e-05
4.97546e-05
5.53223e-05
9.24444e-05
0.000160259
0.000229189
0.000266196
0.000272272
0.000263121
0.00025281
0.00026325
0.00029184
0.000320793
0.000354416
0.000386552
0.000390908
0.000349132
0.000313416
0.000291785
0.000250062
0.000180389
0.000101446
2.99428e-05
-1.58189e-05
-1.43572e-05
1.03476e-05
4.49278e-05
8.87117e-05
0.000123943
0.000125583
9.88265e-05
7.97162e-05
9.52121e-05
0.000126909
0.00013871
0.00012457
0.000108932
0.000108775
0.00011033
9.44021e-05
6.70288e-05
4.84449e-05
5.41519e-05
9.20783e-05
0.000161408
0.000231767
0.000268409
0.000273363
0.000263863
0.000253261
0.00026293
0.000289629
0.000313865
0.000345079
0.000382768
0.000394486
0.000355842
0.000320161
0.000298739
0.00025552
0.000182133
9.95977e-05
2.55015e-05
-2.39788e-05
-2.17721e-05
3.4005e-06
3.7193e-05
8.10133e-05
0.000117971
0.000121383
9.50059e-05
7.45483e-05
8.79986e-05
0.000118602
0.000130496
0.00011662
0.000101918
0.000104399
0.000109469
9.48947e-05
6.6569e-05
4.67095e-05
5.16455e-05
8.9605e-05
0.000160562
0.000234091
0.000272396
0.000276351
0.000265025
0.000253626
0.000264222
0.000292387
0.00031255
0.0003371
0.00037672
0.000394941
0.000364219
0.000329655
0.000309102
0.000263361
0.000184287
9.65123e-05
1.95749e-05
-3.33304e-05
-3.07161e-05
-4.96756e-06
2.69777e-05
6.97002e-05
0.000108422
0.000114483
9.0034e-05
6.97064e-05
8.105e-05
0.00010845
0.000118288
0.000104521
9.15618e-05
9.75025e-05
0.000107521
9.53869e-05
6.63091e-05
4.45294e-05
4.69386e-05
8.20691e-05
0.000152499
0.000229132
0.000270505
0.000277657
0.000265959
0.000251338
0.000262583
0.000297131
0.000318471
0.000334238
0.00037
0.000393686
0.000372134
0.000341736
0.000324701
0.000275895
0.000188405
9.36951e-05
1.30859e-05
-4.2457e-05
-4.01312e-05
-1.3328e-05
1.60745e-05
5.52553e-05
9.44317e-05
0.000103324
8.21566e-05
6.44792e-05
7.53911e-05
9.91342e-05
0.000105055
8.98856e-05
7.72954e-05
8.90181e-05
0.00010506
9.63457e-05
6.66977e-05
4.24318e-05
3.98782e-05
6.81094e-05
0.000135342
0.000215371
0.00025994
0.000270919
0.000263196
0.000245861
0.000254024
0.000292842
0.00032223
0.000336519
0.000364967
0.000389911
0.000375461
0.000353883
0.000346838
0.000296683
0.000197468
9.28686e-05
6.33624e-06
-4.98082e-05
-4.71961e-05
-1.98468e-05
6.96689e-06
4.13472e-05
7.86474e-05
8.87558e-05
7.0166e-05
5.5028e-05
6.61161e-05
8.64434e-05
8.93714e-05
7.48514e-05
6.50898e-05
8.10617e-05
0.000103151
9.78208e-05
6.7412e-05
4.03719e-05
3.08814e-05
4.76329e-05
0.000108229
0.000193467
0.000243991
0.000256895
0.000253285
0.000236579
0.000242084
0.000279422
0.000309146
0.000328865
0.00035879
0.00038445
0.000367419
0.000361045
0.000372558
0.000328437
0.000216041
9.71898e-05
2.30622e-06
-5.44879e-05
-5.15408e-05
-2.24137e-05
2.85706e-06
3.20838e-05
6.53005e-05
7.45931e-05
5.57321e-05
4.07117e-05
5.13485e-05
6.79902e-05
6.67052e-05
5.40217e-05
5.04897e-05
7.28663e-05
0.000101484
9.91637e-05
6.75071e-05
3.87947e-05
2.32381e-05
2.56015e-05
7.37814e-05
0.000163424
0.000224861
0.000240841
0.000237939
0.000222161
0.000226173
0.000262194
0.000290354
0.000303638
0.000338996
0.000375836
0.000358791
0.000360254
0.000394334
0.000369176
0.000247965
0.000111688
4.15896e-06
-5.31227e-05
-5.5893e-05
-2.47005e-05
4.04958e-06
3.26434e-05
6.12105e-05
6.55989e-05
4.2976e-05
2.59387e-05
3.48242e-05
4.87393e-05
4.54277e-05
3.33487e-05
3.24432e-05
6.08397e-05
9.77627e-05
0.000100036
6.71213e-05
3.81232e-05
2.16413e-05
1.3744e-05
4.4662e-05
0.00013054
0.000205677
0.000228655
0.000225052
0.00020498
0.000208264
0.000243724
0.000274666
0.000278849
0.000304017
0.00034841
0.000350459
0.000350369
0.000405133
0.000409932
0.000291773
0.000141189