/*--------------------------------*- C++ -*----------------------------------*\
| =========                 |                                                 |
| \\      /  F ield         | OpenFOAM: The Open Source CFD Toolbox           |
|  \\    /   O peration     | Version:  2306                                  |
|   \\  /    A nd           | Website:  www.openfoam.com                      |
|    \\/     M anipulation  |                                                 |
\*---------------------------------------------------------------------------*/
FoamFile
{
    version     2.0;
    format      ascii;
    arch        "LSB;label=32;scalar=64";
    class       surfaceScalarField;
    location    "0.5";
    object      phi;
}
// * * * * * * * * * * * * * * * * * * * * * * * * * * * * * * * * * * * * * //

dimensions      [0 3 -1 0 0 0 0];

oriented        oriented;

internalField   nonuniform List<scalar> 
175300
(
6.80065e-06
-6.31824e-07
2.25606e-06
6.76504e-06
-7.50483e-07
2.24491e-06
6.67972e-06
-6.12968e-07
2.18492e-06
6.55567e-06
-4.34215e-07
2.06803e-06
6.33904e-06
-2.89326e-07
1.84785e-06
5.92398e-06
-1.25067e-07
1.56989e-06
5.27095e-06
2.38897e-09
1.38407e-06
4.52128e-06
-7.10484e-08
1.37922e-06
3.95147e-06
-4.45054e-07
1.50703e-06
3.7287e-06
-9.05466e-07
1.65434e-06
3.74762e-06
-1.05972e-06
1.70435e-06
3.83166e-06
-8.94552e-07
1.56963e-06
3.89126e-06
-6.39669e-07
1.23036e-06
3.94427e-06
-3.73829e-07
7.76407e-07
4.04505e-06
-1.02102e-07
3.39417e-07
4.19598e-06
1.29715e-07
-1.55593e-08
4.38466e-06
2.74978e-07
-3.05834e-07
4.60636e-06
2.74722e-07
-5.58e-07
4.8625e-06
1.58121e-07
-8.05708e-07
5.17007e-06
-7.70594e-09
-1.09561e-06
5.54967e-06
-1.27036e-07
-1.45548e-06
5.92647e-06
-1.15894e-07
-1.82253e-06
6.15136e-06
-3.47575e-08
-2.04684e-06
6.09587e-06
2.35167e-08
-2.06698e-06
5.71615e-06
7.60896e-08
-1.98522e-06
5.12612e-06
5.52814e-08
-1.88834e-06
4.5825e-06
-2.08546e-07
-1.78969e-06
4.24797e-06
-5.60219e-07
-1.76714e-06
4.07672e-06
-6.35107e-07
-1.90251e-06
4.04069e-06
-4.57503e-07
-2.06317e-06
4.18473e-06
-1.98127e-07
-2.01279e-06
4.49244e-06
1.8279e-07
-1.65202e-06
4.89359e-06
6.82362e-07
-1.11739e-06
5.31358e-06
1.1309e-06
-6.30329e-07
5.73153e-06
1.35845e-06
-2.79613e-07
6.13734e-06
1.34713e-06
6.79166e-08
6.45252e-06
1.3101e-06
4.46055e-07
6.62825e-06
1.08555e-06
1.00781e-06
6.71596e-06
5.48256e-07
1.65267e-06
-1.5229e-07
2.10698e-06
2.31856e-05
-2.60097e-06
6.25848e-06
2.29705e-05
-2.83172e-06
6.20237e-06
2.26545e-05
-2.32652e-06
6.20726e-06
2.2243e-05
-1.73292e-06
6.11208e-06
2.14969e-05
-1.18676e-06
5.62589e-06
2.01181e-05
-5.3616e-07
4.83356e-06
1.80782e-05
-7.05768e-08
4.2358e-06
1.58043e-05
-3.56503e-07
4.2024e-06
1.40011e-05
-1.62759e-06
4.60229e-06
1.30744e-05
-3.09965e-06
4.99525e-06
1.2801e-05
-3.54947e-06
4.98706e-06
1.27742e-05
-2.9771e-06
4.41823e-06
1.28043e-05
-2.10617e-06
3.38154e-06
1.29376e-05
-1.21679e-06
2.17231e-06
1.32615e-05
-3.51246e-07
1.0573e-06
1.37709e-05
3.49304e-07
1.0539e-07
1.44557e-05
6.94232e-07
-7.23443e-07
1.53117e-05
5.64274e-07
-1.49263e-06
1.6326e-05
6.88758e-08
-2.27941e-06
1.75095e-05
-5.30327e-07
-3.19063e-06
1.88357e-05
-9.08334e-07
-4.2782e-06
2.00698e-05
-8.23932e-07
-5.34652e-06
2.08228e-05
-5.17893e-07
-5.9645e-06
2.07263e-05
-2.8466e-07
-5.92441e-06
1.96535e-05
-1.2428e-07
-5.47241e-06
1.79385e-05
-2.86802e-07
-4.9904e-06
1.62068e-05
-1.10751e-06
-4.76202e-06
1.48364e-05
-1.99866e-06
-4.98361e-06
1.38925e-05
-2.12187e-06
-5.58323e-06
1.35224e-05
-1.64696e-06
-6.06823e-06
1.38756e-05
-8.99315e-07
-5.83299e-06
1.48242e-05
3.53239e-07
-4.67803e-06
1.60947e-05
2.07424e-06
-3.05071e-06
1.7475e-05
3.64514e-06
-1.5716e-06
1.88865e-05
4.40745e-06
-3.6956e-07
2.02689e-05
4.46094e-06
6.62784e-07
2.14436e-05
4.06387e-06
1.95376e-06
2.23056e-05
2.93671e-06
3.58114e-06
2.28783e-05
9.70976e-07
5.16317e-06
-1.22337e-06
6.07766e-06
4.381e-05
-5.6706e-06
9.95764e-06
4.32903e-05
-5.9886e-06
9.6242e-06
4.26768e-05
-4.98716e-06
9.66206e-06
4.1977e-05
-3.78989e-06
9.84516e-06
4.07595e-05
-2.63097e-06
9.46092e-06
3.85641e-05
-1.2578e-06
8.32919e-06
3.53199e-05
-2.63766e-07
7.19405e-06
3.14627e-05
-6.52799e-07
6.91645e-06
2.78982e-05
-2.89899e-06
7.56385e-06
2.54936e-05
-5.75633e-06
8.37753e-06
2.43192e-05
-6.89352e-06
8.46773e-06
2.38369e-05
-5.99548e-06
7.53897e-06
2.36394e-05
-4.34199e-06
5.8951e-06
2.37263e-05
-2.61545e-06
4.06256e-06
2.42186e-05
-9.86241e-07
2.38693e-06
2.51216e-05
2.84372e-07
9.00066e-07
2.64207e-05
7.9081e-07
-4.31868e-07
2.80968e-05
3.43616e-07
-1.69425e-06
3.01167e-05
-8.49616e-07
-2.96248e-06
3.24717e-05
-2.26669e-06
-4.42717e-06
3.50597e-05
-3.1606e-06
-6.25319e-06
3.7479e-05
-2.96508e-06
-8.21374e-06
3.91344e-05
-2.17638e-06
-9.56611e-06
3.94269e-05
-1.46795e-06
-9.73107e-06
3.80475e-05
-9.79767e-07
-8.88158e-06
3.53658e-05
-1.22273e-06
-7.73859e-06
3.22462e-05
-2.62583e-06
-7.10438e-06
2.93129e-05
-4.00702e-06
-7.46825e-06
2.68652e-05
-4.08902e-06
-8.66786e-06
2.54092e-05
-3.35673e-06
-9.86522e-06
2.54327e-05
-2.2943e-06
-9.94266e-06
2.6829e-05
-2.54081e-07
-8.34437e-06
2.90721e-05
2.90469e-06
-5.68791e-06
3.16911e-05
6.01474e-06
-3.04969e-06
3.44633e-05
7.65294e-06
-7.81229e-07
3.72514e-05
7.94868e-06
1.18965e-06
3.97931e-05
7.05299e-06
3.47218e-06
4.18564e-05
4.5768e-06
6.15404e-06
4.32715e-05
6.85437e-07
8.63939e-06
-3.29813e-06
9.94191e-06
6.86465e-05
-9.30112e-06
1.35087e-05
6.7637e-05
-9.64505e-06
1.24481e-05
6.66667e-05
-8.23427e-06
1.20771e-05
6.57705e-05
-6.34593e-06
1.25955e-05
6.43351e-05
-4.40121e-06
1.28663e-05
6.17715e-05
-2.2046e-06
1.19128e-05
5.7912e-05
-6.02189e-07
1.02176e-05
5.28386e-05
-8.05599e-07
9.24649e-06
4.71272e-05
-3.54399e-06
9.86504e-06
4.21308e-05
-7.74686e-06
1.14235e-05
3.89387e-05
-1.02236e-05
1.2215e-05
3.73415e-05
-9.64692e-06
1.12814e-05
3.65592e-05
-7.39663e-06
9.14735e-06
3.63366e-05
-4.77993e-06
6.79775e-06
3.67938e-05
-2.33397e-06
4.73605e-06
3.79621e-05
-4.78016e-07
2.90618e-06
3.9814e-05
1.33319e-07
1.23341e-06
4.23129e-05
-8.80317e-07
-2.90261e-07
4.544e-05
-3.20271e-06
-1.80309e-06
4.92144e-05
-6.11386e-06
-3.5209e-06
5.34679e-05
-8.12295e-06
-5.93583e-06
5.75944e-05
-7.93028e-06
-9.05966e-06
6.07975e-05
-6.23412e-06
-1.1906e-05
6.22719e-05
-4.35772e-06
-1.3195e-05
6.13896e-05
-2.86232e-06
-1.25075e-05
5.82737e-05
-2.75657e-06
-1.06e-05
5.38764e-05
-4.60673e-06
-8.96047e-06
4.91035e-05
-6.34768e-06
-8.8582e-06
4.44573e-05
-6.12458e-06
-1.0433e-05
4.07651e-05
-5.02818e-06
-1.27089e-05
3.91838e-05
-4.05376e-06
-1.40362e-05
4.01641e-05
-2.06688e-06
-1.3034e-05
4.31383e-05
1.7608e-06
-9.94853e-06
4.72224e-05
6.09985e-06
-6.24815e-06
5.18387e-05
8.86115e-06
-2.84667e-06
5.66284e-05
9.6405e-06
5.02532e-07
6.12015e-05
8.73413e-06
3.88715e-06
6.51339e-05
5.02536e-06
7.82801e-06
6.78827e-05
-7.84476e-07
1.158e-05
-6.2936e-06
1.36527e-05
9.68365e-05
-1.30064e-05
1.70998e-05
9.49485e-05
-1.28157e-05
1.5169e-05
9.35253e-05
-1.13754e-05
1.35557e-05
9.26806e-05
-9.12047e-06
1.38315e-05
9.14873e-05
-6.27882e-06
1.50771e-05
8.91868e-05
-3.17199e-06
1.52135e-05
8.56179e-05
-1.06206e-06
1.34482e-05
8.03954e-05
-9.10076e-07
1.13034e-05
7.3066e-05
-3.26305e-06
1.10596e-05
6.4714e-05
-7.93546e-06
1.32964e-05
5.78821e-05
-1.20983e-05
1.57567e-05
5.38666e-05
-1.3083e-05
1.57211e-05
5.18254e-05
-1.10735e-05
1.32961e-05
5.087e-05
-7.73903e-06
1.03665e-05
5.08919e-05
-4.48371e-06
8.06451e-06
5.19068e-05
-2.08961e-06
6.26403e-06
5.38527e-05
-1.42064e-06
4.65923e-06
5.6672e-05
-3.17385e-06
3.29114e-06
6.0447e-05
-7.26096e-06
2.19199e-06
6.54613e-05
-1.28108e-05
9.74614e-07
7.17089e-05
-1.72927e-05
-1.35853e-06
7.83402e-05
-1.78169e-05
-5.59565e-06
8.41527e-05
-1.4831e-05
-1.08696e-05
8.80492e-05
-1.05924e-05
-1.49489e-05
8.89584e-05
-6.60496e-06
-1.60199e-05
8.64473e-05
-4.98093e-06
-1.40828e-05
8.13873e-05
-6.90404e-06
-1.10862e-05
7.50874e-05
-9.02145e-06
-9.57023e-06
6.82586e-05
-8.16011e-06
-1.06599e-05
6.16608e-05
-6.10022e-06
-1.36917e-05
5.68671e-05
-5.07057e-06
-1.68672e-05
5.54567e-05
-4.00606e-06
-1.79573e-05
5.77136e-05
-1.21909e-06
-1.60443e-05
6.26901e-05
2.58878e-06
-1.22761e-05
6.93272e-05
5.34247e-06
-8.05933e-06
7.67285e-05
6.58535e-06
-3.4397e-06
8.40927e-05
6.48426e-06
1.57693e-06
9.07469e-05
2.59847e-06
7.08745e-06
9.56469e-05
-4.51483e-06
1.27982e-05
-1.06412e-05
1.66475e-05
0.000126537
-1.73207e-05
1.99049e-05
0.000122907
-1.43465e-05
1.84393e-05
0.00012058
-1.31628e-05
1.52679e-05
0.000120281
-1.19282e-05
1.39821e-05
0.000120171
-8.48158e-06
1.54796e-05
0.000118826
-4.03211e-06
1.74294e-05
0.000116365
-1.42345e-06
1.69071e-05
0.000112564
-1.2764e-06
1.3775e-05
0.000105643
-2.65915e-06
1.14023e-05
9.48962e-05
-6.06485e-06
1.31133e-05
8.32502e-05
-1.08804e-05
1.77255e-05
7.46736e-05
-1.44353e-05
2.02361e-05
6.99356e-05
-1.44146e-05
1.83599e-05
6.75864e-05
-1.11578e-05
1.46442e-05
6.67017e-05
-7.1256e-06
1.18344e-05
6.69762e-05
-4.1667e-06
1.02607e-05
6.81904e-05
-3.40562e-06
9.2267e-06
7.01661e-05
-5.89679e-06
8.62716e-06
7.30707e-05
-1.2201e-05
8.75828e-06
7.77557e-05
-2.17643e-05
9.27338e-06
8.50771e-05
-3.08735e-05
8.45984e-06
9.45604e-05
-3.41213e-05
4.27031e-06
0.000104599
-3.06968e-05
-3.38083e-06
0.000113177
-2.31795e-05
-1.19086e-05
0.000118075
-1.43141e-05
-1.73804e-05
0.000117878
-8.65939e-06
-1.7614e-05
0.000113276
-9.51188e-06
-1.41482e-05
0.000106322
-1.21828e-05
-1.07295e-05
9.83099e-05
-1.06861e-05
-1.01161e-05
8.96949e-05
-6.8352e-06
-1.26706e-05
8.15213e-05
-4.68531e-06
-1.7059e-05
7.58444e-05
-4.08116e-06
-2.08908e-05
7.45575e-05
-3.26469e-06
-2.21609e-05
7.791e-05
-2.43401e-06
-2.06586e-05
8.5021e-05
-2.85635e-06
-1.72403e-05
9.4471e-05
-3.18975e-06
-1.22467e-05
0.000104661
-2.66302e-06
-5.79283e-06
0.000114709
-5.52273e-06
1.61497e-06
0.000123254
-1.28798e-05
9.75567e-06
-1.83335e-05
1.68513e-05
0.000154951
-2.5512e-05
1.91826e-05
0.000148879
-1.41661e-05
2.13268e-05
0.000143661
-1.11811e-05
1.85506e-05
0.00014399
-1.39497e-05
1.50207e-05
0.000146696
-1.22595e-05
1.47738e-05
0.000147362
-5.54933e-06
1.77689e-05
0.000146043
-1.26217e-06
1.99636e-05
0.000144594
-2.01417e-06
1.76072e-05
0.000141218
-3.57753e-06
1.24801e-05
0.000131993
-4.2721e-06
1.1264e-05
0.000117235
-6.69685e-06
1.66744e-05
0.000102421
-1.15116e-05
2.30345e-05
9.22708e-05
-1.50566e-05
2.37871e-05
8.69963e-05
-1.39523e-05
1.98244e-05
8.47204e-05
-9.83468e-06
1.58956e-05
8.40283e-05
-6.22547e-06
1.39968e-05
8.41347e-05
-5.11756e-06
1.3387e-05
8.45094e-05
-7.95666e-06
1.35672e-05
8.51e-05
-1.62516e-05
1.50933e-05
8.71172e-05
-3.03531e-05
1.80337e-05
9.26978e-05
-4.56681e-05
2.01621e-05
0.000102642
-5.36533e-05
1.79116e-05
0.000115974
-5.15133e-05
9.81167e-06
0.000130808
-4.25879e-05
-2.1277e-06
0.000143082
-2.86778e-05
-1.32169e-05
0.000148067
-1.59407e-05
-1.84009e-05
0.000145371
-1.28663e-05
-1.70523e-05
0.000138776
-1.57342e-05
-1.29932e-05
0.000131222
-1.42004e-05
-1.02067e-05
0.000123042
-8.21299e-06
-1.06918e-05
0.00011402
-3.67557e-06
-1.45265e-05
0.000105062
-1.74125e-06
-1.99731e-05
9.85583e-05
-1.41813e-06
-2.48962e-05
9.68373e-05
-3.89936e-06
-2.80877e-05
0.000100912
-1.05712e-05
-2.8536e-05
0.000109757
-1.66264e-05
-2.51877e-05
0.000120559
-1.73255e-05
-1.8515e-05
0.000131917
-1.90737e-05
-9.85131e-06
0.000144063
-2.76993e-05
3.0752e-07
-3.27661e-05
1.11496e-05
0.000178847
-4.0949e-05
1.37402e-05
0.00017366
-1.6636e-05
2.16198e-05
0.000163655
-4.60121e-06
2.21194e-05
0.000161068
-1.11036e-05
1.7876e-05
0.000167113
-1.71866e-05
1.44796e-05
0.000172349
-1.02791e-05
1.61395e-05
0.000171379
-6.80662e-07
2.09402e-05
0.000169074
-1.03512e-06
2.23881e-05
0.000170095
-7.55403e-06
1.69105e-05
0.000169032
-8.86775e-06
1.08294e-05
0.000158487
-5.32716e-06
1.34132e-05
0.000140245
-5.60651e-06
2.24098e-05
0.000122424
-1.0375e-05
2.76851e-05
0.000110824
-1.31847e-05
2.55629e-05
0.000105565
-1.1415e-05
2.08675e-05
0.000103993
-8.21305e-06
1.78657e-05
0.000103877
-6.89197e-06
1.672e-05
0.000103879
-9.65768e-06
1.66741e-05
0.000103189
-1.88111e-05
1.83684e-05
0.0001022
-3.57447e-05
2.27315e-05
0.00010356
-5.6448e-05
2.8283e-05
0.00011028
-7.01973e-05
3.00933e-05
0.000122981
-7.0948e-05
2.38886e-05
0.000140787
-6.24181e-05
1.07141e-05
0.000160032
-4.67582e-05
-4.10932e-06
0.000172058
-2.77062e-05
-1.42059e-05
0.000171247
-1.66624e-05
-1.67478e-05
0.000162603
-1.62011e-05
-1.44765e-05
0.000154848
-1.6069e-05
-1.09515e-05
0.000150907
-1.16872e-05
-8.7614e-06
0.000147619
-5.71656e-06
-1.00916e-05
0.000141406
3.40743e-07
-1.51277e-05
0.000132671
4.28482e-06
-2.22127e-05
0.000124984
1.63687e-06
-3.02685e-05
0.000122531
-1.09806e-05
-3.72782e-05
0.000127408
-2.64051e-05
-3.91169e-05
0.000136943
-3.25708e-05
-3.4065e-05
0.000147121
-3.40036e-05
-2.46469e-05
0.000158523
-4.32524e-05
-1.2918e-05
-5.20902e-05
6.26347e-07
0.000199061
-6.1055e-05
6.24547e-06
0.000199414
-2.70509e-05
1.94074e-05
0.00018835
2.04757e-07
2.40219e-05
0.000178818
-1.93626e-06
2.05359e-05
0.000182036
-1.74722e-05
1.41666e-05
0.00019282
-1.8309e-05
1.22161e-05
0.000196669
-3.84202e-06
1.71919e-05
0.00019064
3.23009e-06
2.32332e-05
0.000186822
-7.90786e-06
2.2409e-05
0.000192502
-2.12179e-05
1.49363e-05
0.000196457
-1.83988e-05
1.21632e-05
0.000185937
-7.31272e-06
1.98383e-05
0.000164359
-3.47502e-06
2.86212e-05
0.000143737
-6.08341e-06
3.00165e-05
0.000131522
-8.15505e-06
2.63379e-05
0.00012736
-8.41386e-06
2.2797e-05
0.000127701
-9.164e-06
2.06866e-05
0.000129459
-1.28129e-05
1.93336e-05
0.000130215
-2.17181e-05
1.93561e-05
0.000128536
-3.81683e-05
2.28715e-05
0.000125945
-6.05915e-05
3.05046e-05
0.000126998
-7.91702e-05
3.76545e-05
0.000135315
-8.45069e-05
3.6402e-05
0.000151679
-7.84534e-05
2.42991e-05
0.000173371
-6.39855e-05
6.8594e-06
0.00019008
-4.12597e-05
-7.65588e-06
0.000189975
-1.95381e-05
-1.41032e-05
0.000175364
-9.21419e-06
-1.38535e-05
0.000160914
-8.40711e-06
-9.96609e-06
0.000157448
-1.10446e-05
-5.15984e-06
0.000164153
-1.17258e-05
-3.13072e-06
0.000171223
-4.34794e-06
-6.25303e-06
0.000170286
7.92784e-06
-1.40146e-05
0.000162267
1.19432e-05
-2.55014e-05
0.000153955
-1.70633e-06
-3.90226e-05
0.000151985
-2.59235e-05
-4.88923e-05
0.000157851
-4.17645e-05
-4.91737e-05
0.000167119
-4.63506e-05
-4.04804e-05
0.000176569
-5.56812e-05
-2.68858e-05
-6.88199e-05
-1.06979e-05
0.000219623
-7.94508e-05
-2.84308e-06
0.000225525
-4.54794e-05
1.42891e-05
0.000219318
-4.73802e-06
2.30513e-05
0.000205864
6.53206e-06
2.20623e-05
0.000199326
-9.95656e-06
1.45011e-05
0.000207482
-2.30218e-05
7.94275e-06
0.000219691
-1.32644e-05
9.25519e-06
0.00022021
3.09835e-06
1.66475e-05
0.00021034
-1.3189e-06
2.12962e-05
0.000207596
-2.62339e-05
1.80207e-05
0.000218998
-4.07015e-05
1.3465e-05
0.000226464
-2.80234e-05
1.80286e-05
0.000214054
-7.12314e-06
2.77027e-05
0.000189218
2.64939e-06
3.18967e-05
0.000167696
2.25306e-06
3.01325e-05
0.000156785
-2.28861e-06
2.76751e-05
0.000155163
-8.86083e-06
2.60261e-05
0.000158883
-1.75373e-05
2.38115e-05
0.000163266
-2.7932e-05
2.09572e-05
0.000163717
-4.12781e-05
2.08517e-05
0.00015926
-6.00685e-05
2.76103e-05
0.000154656
-7.97959e-05
3.89457e-05
0.000156384
-8.97707e-05
4.42237e-05
0.000167832
-8.78436e-05
3.58094e-05
0.000187197
-7.64811e-05
1.75451e-05
0.000204317
-5.2762e-05
-5.31488e-07
0.000205318
-2.12111e-05
-1.1384e-05
0.000188893
1.81394e-06
-1.3483e-05
0.000169072
7.28772e-06
-8.82122e-06
0.000160177
-1.3749e-06
-3.60525e-07
0.000167493
-1.29999e-05
6.29701e-06
0.000184865
-1.22926e-05
6.53501e-06
0.000198404
4.44426e-06
-4.54962e-07
0.000199703
1.97485e-05
-1.40375e-05
0.000192538
1.28898e-05
-3.25716e-05
0.000185888
-1.46611e-05
-5.05032e-05
0.000185473
-4.00208e-05
-5.93559e-05
0.00019108
-5.12081e-05
-5.53826e-05
0.000199262
-6.24371e-05
-4.15292e-05
-7.96974e-05
-2.26625e-05
0.000242786
-9.2174e-05
-1.34459e-05
0.000251176
-6.684e-05
6.12617e-06
0.000251163
-2.13813e-05
1.79674e-05
0.000240675
5.2947e-06
2.07349e-05
0.000227332
-4.18527e-07
1.51029e-05
0.000224202
-1.81057e-05
5.79466e-06
0.000235159
-2.06666e-05
1.85825e-06
0.000247451
-6.43775e-06
7.01526e-06
0.000246497
-7.38e-07
1.49809e-05
0.000236389
-2.16041e-05
1.68721e-05
0.000237119
-5.10994e-05
1.34807e-05
0.000251485
-5.44133e-05
1.56116e-05
0.000256565
-2.75369e-05
2.50939e-05
0.000240393
1.20597e-06
3.12558e-05
0.000215427
1.35044e-05
3.08351e-05
0.000196424
1.13062e-05
2.97683e-05
0.00018844
-4.46343e-07
3.02788e-05
0.000190839
-1.89683e-05
2.91339e-05
0.000199303
-3.75817e-05
2.39111e-05
0.000205078
-4.95773e-05
1.80229e-05
0.000201674
-5.94229e-05
2.00853e-05
0.000192388
-7.39208e-05
3.32435e-05
0.000186292
-8.62472e-05
4.60392e-05
0.000189861
-8.82989e-05
4.37016e-05
0.000203189
-8.01909e-05
2.65049e-05
0.00021789
-5.8231e-05
6.49368e-06
0.000221124
-2.18342e-05
-7.7277e-06
0.000208925
1.11679e-05
-1.32047e-05
0.000190876
2.28318e-05
-1.0286e-05
0.000178657
1.21754e-05
-1.44639e-07
0.000179703
-7.20422e-06
1.1306e-05
0.000195089
-1.56684e-05
1.68871e-05
0.000216028
-2.3033e-06
1.37101e-05
0.000229818
1.99074e-05
1.52642e-06
0.000231784
2.42546e-05
-1.89661e-05
0.000227309
1.12715e-06
-4.27676e-05
0.000222956
-2.87396e-05
-6.08587e-05
0.00022163
-4.61099e-05
-6.57807e-05
0.000224991
-6.06561e-05
-5.63257e-05
-8.262e-05
-3.65279e-05
0.000270249
-9.65505e-05
-2.71194e-05
0.000278505
-8.33657e-05
-4.83604e-06
0.000280549
-4.37459e-05
9.71302e-06
0.000274362
-7.57222e-06
1.57876e-05
0.000261953
3.06499e-06
1.42457e-05
0.00025113
-7.32703e-06
5.63233e-06
0.000252353
-1.86049e-05
-2.15957e-06
0.00026616
-1.74492e-05
6.59229e-08
0.000277875
-1.2406e-05
9.84208e-06
0.000274555
-2.26569e-05
1.58788e-05
0.000265958
-5.00688e-05
1.3126e-05
0.000271042
-6.77444e-05
1.16125e-05
0.00028401
-5.10692e-05
1.94196e-05
0.000283315
-1.34387e-05
2.76683e-05
0.000265447
1.57055e-05
2.86517e-05
0.000243599
2.5145e-05
2.80633e-05
0.00022857
1.61846e-05
3.0056e-05
0.000225349
-9.57842e-06
2.94883e-05
0.000235148
-4.25735e-05
2.20333e-05
0.000249269
-6.20601e-05
1.10137e-05
0.000252463
-6.28148e-05
6.9153e-06
0.000241289
-6.44115e-05
1.91018e-05
0.000226884
-7.43073e-05
3.95994e-05
0.000220086
-7.94122e-05
4.73423e-05
0.000224105
-7.27517e-05
3.42773e-05
0.000234026
-5.30028e-05
1.31412e-05
0.000239443
-1.85943e-05
-2.98888e-06
0.000233979
1.74245e-05
-1.20188e-05
0.000221708
3.4011e-05
-1.41339e-05
0.000210734
2.43541e-05
-6.76403e-06
0.000207384
2.10305e-06
6.68044e-06
0.000215228
-1.21116e-05
1.78747e-05
0.000232695
-5.26869e-06
2.09851e-05
0.00025242
1.44592e-05
1.45569e-05
0.000266246
2.40213e-05
-2.60534e-06
0.00027081
1.0314e-05
-2.82871e-05
0.000267957
-1.46841e-05
-5.36547e-05
0.000261398
-3.31949e-05
-6.86247e-05
0.000257214
-5.09244e-05
-6.80338e-05
-7.79042e-05
-5.19911e-05
0.000304468
-9.37453e-05
-4.14489e-05
0.000310112
-9.04438e-05
-1.68334e-05
0.000308991
-6.07551e-05
-1.1731e-06
0.00030313
-2.48259e-05
7.62115e-06
0.000295228
-1.72051e-06
1.08306e-05
0.00028622
1.44692e-06
6.13482e-06
0.000281796
-9.44798e-06
-2.72102e-06
0.000289343
-2.14807e-05
-3.80071e-06
0.000303654
-2.66204e-05
6.05685e-06
0.000308611
-3.09938e-05
1.51201e-05
0.000300494
-4.66898e-05
1.28678e-05
0.000295561
-6.68186e-05
6.51287e-06
0.00030301
-6.41806e-05
1.02609e-05
0.000308652
-3.14441e-05
2.10781e-05
0.000299376
6.93641e-06
2.73938e-05
0.000281043
2.89931e-05
2.85386e-05
0.000265748
2.94152e-05
2.75324e-05
0.000259524
7.22079e-06
2.09618e-05
0.00026662
-3.38797e-05
7.70754e-06
0.000287031
-6.95332e-05
-5.62693e-06
0.00030361
-7.27539e-05
-1.09001e-05
0.000298269
-5.83098e-05
4.78157e-07
0.000277451
-5.64242e-05
2.63273e-05
0.000258959
-6.20464e-05
4.54911e-05
0.000252202
-5.63843e-05
4.08091e-05
0.00025576
-3.65214e-05
2.01284e-05
0.000261664
-6.83957e-06
1.79534e-06
0.000262239
2.38077e-05
-9.8186e-06
0.000256832
3.92598e-05
-1.73516e-05
0.000250019
3.10265e-05
-1.72664e-05
0.000246558
9.24155e-06
-6.29261e-06
0.000249165
-5.51634e-06
8.13173e-06
0.000258369
-2.2843e-06
1.73608e-05
0.000274272
9.50224e-06
1.81258e-05
0.000294575
1.22947e-05
8.81935e-06
0.000310705
3.63749e-06
-1.30447e-05
0.000314068
-7.39135e-06
-4.20902e-05
0.000306414
-1.75635e-05
-6.59521e-05
0.000297658
-3.68161e-05
-7.46739e-05
-6.90214e-05
-6.4924e-05
0.000347665
-8.29339e-05
-5.4225e-05
0.000347704
-8.39326e-05
-3.09241e-05
0.00033971
-6.52046e-05
-1.41865e-05
0.000330179
-3.77739e-05
-2.58134e-06
0.000324662
-1.11034e-05
7.14128e-06
0.000321323
4.87562e-06
7.94434e-06
0.000319134
1.60547e-06
-7.18792e-07
0.000323247
-1.70433e-05
-5.46036e-06
0.000334751
-3.42601e-05
2.85019e-06
0.000342732
-3.90973e-05
1.43952e-05
0.000337343
-4.19435e-05
1.36431e-05
0.000324631
-5.3566e-05
2.85982e-06
0.000316944
-5.89432e-05
7.78639e-07
0.000313534
-3.95105e-05
1.29732e-05
0.000306681
-5.3918e-06
2.63718e-05
0.000298587
2.04208e-05
2.96909e-05
0.000295485
2.9258e-05
2.08574e-05
0.000295898
1.86778e-05
3.08958e-06
0.000299272
-1.66624e-05
-1.51595e-05
0.000315451
-6.49793e-05
-2.46505e-05
0.0003419
-8.73732e-05
-2.26848e-05
0.000351691
-6.86617e-05
-9.07353e-06
0.000332837
-4.59699e-05
1.68063e-05
0.000303935
-4.11347e-05
4.17131e-05
0.000285734
-3.54475e-05
4.64167e-05
0.000283872
-1.64499e-05
2.92904e-05
0.00029173
8.53318e-06
7.19367e-06
0.000299082
2.91654e-05
-8.34821e-06
0.00030054
3.71204e-05
-1.94945e-05
0.000298333
2.81723e-05
-2.61144e-05
0.000297107
9.40732e-06
-2.26228e-05
0.000298418
-2.59184e-06
-1.01908e-05
0.000301964
1.10479e-06
2.74921e-06
0.000309944
7.07784e-06
1.02731e-05
0.00032631
-4.24292e-07
8.92236e-06
0.000346481
-1.14131e-05
-5.44612e-06
0.000356946
-9.7893e-06
-3.20006e-05
0.000353125
-6.02979e-06
-6.03246e-05
0.000345038
-2.23381e-05
-7.70471e-05
-5.69596e-05
-7.40398e-05
0.000399153
-6.47688e-05
-6.39691e-05
0.000395294
-6.68092e-05
-4.45435e-05
0.000380948
-5.75524e-05
-2.82313e-05
0.000364982
-4.24083e-05
-1.35498e-05
0.000356503
-1.84735e-05
1.41444e-06
0.000355219
6.20849e-06
8.58704e-06
0.000357282
1.20267e-05
3.54014e-06
0.000362706
-7.41412e-06
-2.56146e-06
0.000372092
-3.30688e-05
2.63215e-06
0.000379279
-4.20598e-05
1.50042e-05
0.00037441
-3.68224e-05
1.74216e-05
0.000356168
-3.56174e-05
4.66254e-06
0.000334295
-3.8276e-05
-6.77513e-06
0.000318758
-2.89346e-05
-3.03798e-06
0.000312676
-7.18578e-06
7.76179e-06
0.000316579
1.16587e-05
1.01849e-05
0.000327573
2.06763e-05
-6.32391e-07
0.000337228
1.92013e-05
-1.95712e-05
0.000341471
-2.51686e-06
-3.55477e-05
0.000350146
-5.08753e-05
-3.69836e-05
0.000372938
-9.472e-05
-2.32569e-05
0.000392141
-9.07017e-05
-3.27902e-06
0.00038235
-5.34837e-05
2.00772e-05
0.000350777
-2.70646e-05
4.25894e-05
0.000323931
-1.45394e-05
5.10661e-05
0.000316314
1.24288e-06
3.85164e-05
0.000323195
2.01316e-05
1.5493e-05
0.000332104
3.27964e-05
-3.90007e-06
0.000335512
3.40293e-05
-1.67088e-05
0.000335895
2.25925e-05
-2.5425e-05
0.000339285
3.86918e-06
-2.87404e-05
0.000346039
-7.24451e-06
-2.36902e-05
0.000352092
-2.57589e-06
-1.11576e-05
0.000356281
4.22685e-06
2.29457e-06
0.000363191
-3.80665e-06
6.51163e-06
0.00037667
-1.67111e-05
-4.45554e-06
0.000391178
-1.34533e-05
-2.74516e-05
0.000397998
-3.07006e-06
-5.42661e-05
0.00039732
-1.24783e-05
-7.40278e-05
-4.21004e-05
-7.73948e-05
0.0004549
-4.26868e-05
-6.99577e-05
0.000452048
-4.60038e-05
-5.72505e-05
0.000436105
-4.36863e-05
-4.2116e-05
0.000412778
-3.7749e-05
-2.61927e-05
0.000396279
-1.9305e-05
-8.21894e-06
0.000392481
7.58668e-06
6.17913e-06
0.000396932
1.99801e-05
9.85021e-06
0.000404122
4.03663e-06
6.31171e-06
0.000411538
-2.42537e-05
6.22744e-06
0.00041649
-3.84803e-05
1.44523e-05
0.000412978
-3.3607e-05
2.10532e-05
0.000397266
-2.48329e-05
1.37505e-05
0.000374634
-1.94858e-05
-3.54165e-06
0.000356616
-1.14666e-05
-1.57192e-05
0.000351245
2.72176e-07
-1.67747e-05
0.000358354
7.87067e-06
-1.34781e-05
0.000372122
9.86587e-06
-1.45288e-05
0.000385695
1.08505e-05
-2.48426e-05
0.000395306
3.36868e-06
-3.88662e-05
0.00040359
-3.06289e-05
-4.16508e-05
0.0004171
-8.0722e-05
-2.56088e-05
0.000430736
-9.87122e-05
2.73014e-07
0.00042517
-6.55443e-05
2.34998e-05
0.000397651
-2.12277e-05
4.14257e-05
0.000368332
6.46225e-06
5.16393e-05
0.000353798
2.21754e-05
4.81018e-05
0.000352431
3.16776e-05
3.10299e-05
0.000354111
3.4758e-05
1.05573e-05
0.000354126
2.99249e-05
-3.20938e-06
0.000356176
1.51356e-05
-9.66593e-06
0.000365046
-6.35921e-06
-1.51322e-05
0.000378881
-1.97519e-05
-1.99333e-05
0.000390061
-1.37736e-05
-1.46941e-05
0.000393867
6.92726e-07
1.79817e-06
0.000394144
3.26033e-06
1.1692e-05
0.000399704
-5.73409e-06
1.44686e-07
0.000415133
-8.32036e-06
-2.53148e-05
0.000434814
-4.06949e-06
-4.97113e-05
0.000447961
-9.05166e-06
-6.66413e-05
-2.70564e-05
-7.39915e-05
0.000513587
-2.48672e-05
-6.67185e-05
0.000514642
-2.67882e-05
-6.34389e-05
0.00049968
-2.71835e-05
-5.42334e-05
0.000470667
-2.47046e-05
-4.1204e-05
0.000444642
-1.02082e-05
-2.3459e-05
0.000434455
1.29832e-05
-3.84269e-06
0.000438162
2.42084e-05
9.93968e-06
0.00044656
1.0494e-05
1.43484e-05
0.000452544
-1.49757e-05
1.46683e-05
0.000453483
-2.91533e-05
1.80231e-05
0.000448092
-2.63577e-05
2.23266e-05
0.000435557
-1.75785e-05
1.7936e-05
0.000420139
-9.61072e-06
2.23321e-06
0.000410524
-1.98019e-06
-1.54433e-05
0.000410992
3.11867e-06
-2.35235e-05
0.000417861
1.07588e-06
-1.87833e-05
0.000426251
-3.56511e-06
-1.03695e-05
0.000435325
-1.74574e-06
-1.16997e-05
0.000444643
3.39758e-06
-2.4057e-05
0.000453372
-1.12121e-05
-3.24314e-05
0.000462829
-5.48049e-05
-2.46076e-05
0.000472415
-8.83327e-05
-3.48123e-06
0.000471258
-6.94838e-05
1.98967e-05
0.000451752
-1.72844e-05
3.90984e-05
0.000424229
2.58912e-05
4.99262e-05
0.000402799
4.51919e-05
4.90092e-05
0.000390342
4.51681e-05
3.93475e-05
0.000383658
3.54331e-05
2.75974e-05
0.000382436
2.39035e-05
1.62194e-05
0.000388808
1.07969e-05
5.37994e-06
0.000402361
-7.51769e-06
-3.67999e-06
0.00041781
-2.39547e-05
-8.88526e-06
0.000428548
-2.22482e-05
-7.3046e-06
0.000431915
-1.99673e-06
2.92569e-06
0.000431324
1.52338e-05
1.33319e-05
0.000433536
1.59539e-05
7.99383e-06
0.000445781
9.07234e-06
-1.57622e-05
0.00046864
2.73721e-06
-4.21488e-05
0.00049155
-5.80035e-06
-5.78802e-05
-1.69829e-05
-6.43934e-05
0.000569394
-1.64281e-05
-5.98663e-05
0.000575458
-1.21603e-05
-6.2141e-05
0.000564534
-9.12168e-06
-5.9717e-05
0.000536474
-6.73727e-06
-5.246e-05
0.000506602
3.49659e-06
-3.84589e-05
0.000489052
2.06838e-05
-1.77255e-05
0.00048456
2.82633e-05
3.1395e-06
0.000486603
1.49004e-05
1.66322e-05
0.000489268
-8.00294e-06
2.19275e-05
0.000489127
-2.07952e-05
2.48715e-05
0.00048519
-1.86405e-05
2.62388e-05
0.000478958
-1.13516e-05
1.81256e-05
0.000474759
-4.57674e-06
-1.21631e-06
0.000476431
1.08719e-06
-1.91021e-05
0.000481328
1.11197e-06
-2.14465e-05
0.000482312
-7.24762e-06
-8.39868e-06
0.000477821
-1.41468e-05
6.65603e-06
0.000474908
-8.31084e-06
1.01394e-05
0.000480479
6.60748e-06
9.81923e-07
0.000493044
5.41144e-06
-7.68335e-06
0.000506285
-2.86881e-05
-5.25569e-06
0.000514562
-6.8613e-05
8.55541e-06
0.000512034
-6.42481e-05
2.38065e-05
0.000494376
-1.21236e-05
3.55106e-05
0.000468094
4.20789e-05
4.38379e-05
0.000444637
6.62181e-05
4.49584e-05
0.00042933
6.13291e-05
3.82994e-05
0.000421983
4.38e-05
3.06877e-05
0.000422159
2.81021e-05
2.67359e-05
0.000430087
1.73958e-05
2.26469e-05
0.000444409
5.48449e-06
1.35453e-05
0.000460166
-7.74031e-06
3.05624e-06
0.000471005
-1.01683e-05
1.23576e-06
0.000475302
4.75778e-06
1.15759e-05
0.000477275
2.34781e-05
2.31722e-05
0.000481966
3.01925e-05
2.01673e-05
0.000493101
2.40557e-05
-2.44262e-07
0.000512456
1.06157e-05
-2.64799e-05
0.000535623
-4.8546e-06
-4.55219e-05
-1.52038e-05
-5.485e-05
0.000625671
-2.65328e-05
-5.04968e-05
0.000631864
-1.06906e-05
-5.31257e-05
0.000624281
5.79906e-06
-5.87719e-05
0.000607122
1.21107e-05
-6.16119e-05
0.000588517
1.59391e-05
-5.47589e-05
0.000572948
2.53597e-05
-3.51383e-05
0.000558677
3.16783e-05
-9.10151e-06
0.000544459
2.25416e-05
1.128e-05
0.000532991
1.36654e-06
2.21692e-05
0.000527829
-1.68122e-05
2.8957e-05
0.00053063
-2.49979e-05
3.503e-05
0.000541189
-2.81489e-05
3.3573e-05
0.000556924
-2.85558e-05
1.97819e-05
0.000570773
-2.31579e-05
3.40037e-06
0.000573424
-1.44854e-05
-7.56046e-07
0.000560866
-1.02247e-05
1.2608e-05
0.000541001
-7.56053e-06
3.34215e-05
0.000528077
3.70575e-06
4.38194e-05
0.000530928
2.16198e-05
3.10466e-05
0.000545043
2.62469e-05
2.19514e-06
0.000558999
1.88456e-06
-1.5367e-05
0.000565275
-3.67308e-05
-3.44531e-06
0.000560699
-4.92436e-05
2.37917e-05
0.000543608
-1.47839e-05
4.1894e-05
0.000519119
3.94923e-05
4.55051e-05
0.000498174
7.53717e-05
4.02132e-05
0.000487001
8.10759e-05
3.13522e-05
0.000483842
6.6258e-05
2.39843e-05
0.000485106
4.54784e-05
1.97551e-05
0.000489819
2.81852e-05
1.62565e-05
0.000498556
1.57438e-05
1.17466e-05
0.000510627
7.56719e-06
7.30338e-06
0.000522837
6.76096e-06
6.69905e-06
0.000532052
1.51232e-05
1.48189e-05
0.000537248
2.58117e-05
2.98894e-05
0.000540325
2.97592e-05
3.8784e-05
0.00054609
2.45737e-05
2.70107e-05
0.000559922
1.0334e-05
-3.7145e-06
0.000582647
-1.03955e-05
-3.40096e-05
-2.68176e-05
-4.81918e-05
0.000680039
-2.98285e-05
-5.3636e-05
0.000684381
-5.88786e-06
-5.2104e-05
0.000675046
2.00053e-05
-5.0335e-05
0.000657542
3.09949e-05
-5.33631e-05
0.000642218
2.94937e-05
-5.46107e-05
0.000635698
2.73691e-05
-4.63189e-05
0.000634497
2.68825e-05
-2.99504e-05
0.000629381
2.12329e-05
-1.21487e-05
0.000615849
7.42802e-06
2.89937e-06
0.000598848
-9.88323e-06
1.62954e-05
0.000588482
-2.64672e-05
3.03488e-05
0.000593076
-4.34263e-05
4.09571e-05
0.000613632
-5.86158e-05
4.02178e-05
0.000639719
-6.24164e-05
2.88887e-05
0.000652967
-4.91777e-05
1.91935e-05
0.000642439
-2.66442e-05
2.25111e-05
0.000615984
-4.35835e-06
3.7604e-05
0.000591898
1.73561e-05
4.81917e-05
0.000582713
3.39924e-05
3.59069e-05
0.000587634
3.34141e-05
1.01176e-06
0.000599251
1.05089e-05
-3.20766e-05
0.000610332
-2.18096e-05
-3.46403e-05
0.000613769
-3.82324e-05
-4.3184e-06
0.000606509
-2.03403e-05
2.95856e-05
0.000593998
2.2586e-05
4.5028e-05
0.000585821
6.28487e-05
4.00509e-05
0.0005847
8.1731e-05
2.20518e-05
0.000584925
7.79846e-05
1.47308e-06
0.000581992
5.96931e-05
-1.1419e-05
0.000577694
3.64757e-05
-1.11124e-05
0.000575776
1.7823e-05
-3.23579e-07
0.000577376
1.03618e-05
1.29764e-05
0.000580259
1.40244e-05
2.33001e-05
0.000582182
2.16994e-05
3.23017e-05
0.000583786
2.41905e-05
4.31059e-05
0.000587638
1.81804e-05