/*--------------------------------*- C++ -*----------------------------------*\
| =========                 |                                                 |
| \\      /  F ield         | OpenFOAM: The Open Source CFD Toolbox           |
|  \\    /   O peration     | Version:  2306                                  |
|   \\  /    A nd           | Website:  www.openfoam.com                      |
|    \\/     M anipulation  |                                                 |
\*---------------------------------------------------------------------------*/
FoamFile
{
    version     2.0;
    format      ascii;
    arch        "LSB;label=32;scalar=64";
    class       surfaceScalarField;
    location    "0.5";
    object      phi_0;
}
// * * * * * * * * * * * * * * * * * * * * * * * * * * * * * * * * * * * * * //

dimensions      [0 3 -1 0 0 0 0];

oriented        oriented;

internalField   nonuniform List<scalar> 
175300
(
6.80992e-06
-6.83634e-07
2.26761e-06
6.77486e-06
-7.68397e-07
2.25359e-06
6.68742e-06
-6.11764e-07
2.19681e-06
6.55863e-06
-4.34481e-07
2.08007e-06
6.32649e-06
-2.87357e-07
1.85424e-06
5.87984e-06
-1.13061e-07
1.57383e-06
5.19424e-06
1.06464e-08
1.39317e-06
4.43938e-06
-9.33248e-08
1.39463e-06
3.9015e-06
-5.04493e-07
1.52636e-06
3.7193e-06
-9.63609e-07
1.67453e-06
3.75748e-06
-1.07638e-06
1.71604e-06
3.83993e-06
-8.75884e-07
1.56161e-06
3.89359e-06
-6.12013e-07
1.20332e-06
3.95105e-06
-3.53883e-07
7.4318e-07
4.06118e-06
-8.63842e-08
3.09093e-07
4.21521e-06
1.47135e-07
-4.09503e-08
4.40181e-06
2.90506e-07
-3.30697e-07
4.62398e-06
2.77799e-07
-5.83737e-07
4.88439e-06
1.48329e-07
-8.37141e-07
5.20102e-06
-1.64161e-08
-1.13785e-06
5.58809e-06
-1.20777e-07
-1.50828e-06
5.96093e-06
-9.61819e-08
-1.87209e-06
6.16532e-06
-1.59411e-08
-2.07682e-06
6.07423e-06
3.9764e-08
-2.07925e-06
5.65517e-06
9.37893e-08
-1.99171e-06
5.04819e-06
4.70387e-08
-1.88846e-06
4.52291e-06
-2.60187e-07
-1.78683e-06
4.21672e-06
-6.09726e-07
-1.77963e-06
4.06464e-06
-6.47328e-07
-1.93068e-06
4.04741e-06
-4.50471e-07
-2.08019e-06
4.21421e-06
-1.81498e-07
-1.99823e-06
4.54147e-06
2.20291e-07
-1.60892e-06
4.95049e-06
7.4381e-07
-1.06871e-06
5.37243e-06
1.19926e-06
-6.01331e-07
5.78662e-06
1.42005e-06
-2.67326e-07
6.18491e-06
1.38951e-06
8.8854e-08
6.47571e-06
1.33962e-06
4.94058e-07
6.63007e-06
1.07231e-06
1.0753e-06
6.71362e-06
4.83964e-07
1.71711e-06
-2.28709e-07
2.14161e-06
2.32369e-05
-2.75637e-06
6.24888e-06
2.30265e-05
-2.88369e-06
6.21313e-06
2.2712e-05
-2.33038e-06
6.24976e-06
2.2283e-05
-1.73894e-06
6.15326e-06
2.14801e-05
-1.17424e-06
5.63737e-06
2.00068e-05
-4.90761e-07
4.83011e-06
1.78794e-05
-4.68213e-08
4.25526e-06
1.55922e-05
-4.36637e-07
4.25497e-06
1.38658e-05
-1.81464e-06
4.66339e-06
1.30366e-05
-3.26368e-06
5.03276e-06
1.28129e-05
-3.57668e-06
4.97805e-06
1.27914e-05
-2.89903e-06
4.35578e-06
1.28215e-05
-2.00479e-06
3.28466e-06
1.29734e-05
-1.1406e-06
2.07418e-06
1.33221e-05
-2.97028e-07
9.74878e-07
1.38474e-05
3.94476e-07
3.43914e-08
1.45425e-05
7.18179e-07
-7.93529e-07
1.54133e-05
5.47377e-07
-1.56984e-06
1.64481e-05
2.57576e-08
-2.37734e-06
1.76556e-05
-5.56042e-07
-3.32078e-06
1.89931e-05
-8.76335e-07
-4.43419e-06
2.02064e-05
-7.46617e-07
-5.48574e-06
2.08955e-05
-4.4532e-07
-6.03676e-06
2.06962e-05
-2.31573e-07
-5.92401e-06
1.95183e-05
-9.42183e-08
-5.43404e-06
1.77538e-05
-3.42412e-07
-4.95355e-06
1.60423e-05
-1.25801e-06
-4.76429e-06
1.47203e-05
-2.1221e-06
-5.0448e-06
1.38363e-05
-2.15816e-06
-5.66538e-06
1.3545e-05
-1.64027e-06
-6.09992e-06
1.39795e-05
-8.49621e-07
-5.7732e-06
1.49878e-05
4.80658e-07
-4.54512e-06
1.62859e-05
2.27144e-06
-2.90116e-06
1.76759e-05
3.85195e-06
-1.4527e-06
1.90833e-05
4.56043e-06
-2.52951e-07
2.04462e-05
4.5627e-06
7.80761e-07
2.15718e-05
4.0894e-06
2.12162e-06
2.23856e-05
2.8227e-06
3.76754e-06
2.29332e-05
7.33728e-07
5.29471e-06
-1.46693e-06
6.11422e-06
4.39126e-05
-5.94884e-06
9.87434e-06
4.34096e-05
-6.09054e-06
9.58675e-06
4.28116e-05
-5.0033e-06
9.71305e-06
4.20872e-05
-3.80052e-06
9.92041e-06
4.07805e-05
-2.5975e-06
9.48395e-06
3.84453e-05
-1.16596e-06
8.30507e-06
3.50586e-05
-2.12025e-07
7.1984e-06
3.1131e-05
-7.79934e-07
6.99887e-06
2.76262e-05
-3.22972e-06
7.68974e-06
2.53608e-05
-6.06988e-06
8.45823e-06
2.42884e-05
-6.95506e-06
8.44574e-06
2.38387e-05
-5.84359e-06
7.42331e-06
2.36551e-05
-4.13829e-06
5.7352e-06
2.37772e-05
-2.45974e-06
3.9092e-06
2.43146e-05
-8.81802e-07
2.25902e-06
2.52554e-05
3.52845e-07
7.90067e-07
2.65884e-05
8.0457e-07
-5.42316e-07
2.83046e-05
2.73466e-07
-1.8115e-06
3.03711e-05
-9.67936e-07
-3.11085e-06
3.27708e-05
-2.33834e-06
-4.63209e-06
3.53755e-05
-3.09716e-06
-6.51444e-06
3.77607e-05
-2.79086e-06
-8.46716e-06
3.93202e-05
-2.00071e-06
-9.71514e-06
3.94583e-05
-1.34248e-06
-9.73249e-06
3.79108e-05
-9.31341e-07
-8.77638e-06
3.51202e-05
-1.33982e-06
-7.62295e-06
3.19741e-05
-2.87942e-06
-7.0787e-06
2.90623e-05
-4.191e-06
-7.56853e-06
2.66864e-05
-4.1418e-06
-8.8276e-06
2.53711e-05
-3.36682e-06
-9.96049e-06
2.55611e-05
-2.23877e-06
-9.88267e-06
2.70873e-05
-4.79938e-08
-8.14254e-06
2.9402e-05
3.24572e-06
-5.4347e-06
3.20564e-05
6.37465e-06
-2.81811e-06
3.48385e-05
7.90544e-06
-5.46747e-07
3.76122e-05
8.10363e-06
1.43322e-06
4.0099e-05
7.02874e-06
3.77737e-06
4.20898e-05
4.29075e-06
6.46141e-06
4.34344e-05
2.19816e-07
8.83171e-06
-3.73617e-06
9.95297e-06
6.87683e-05
-9.66375e-06
1.33129e-05
6.78029e-05
-9.80944e-06
1.22742e-05
6.68863e-05
-8.2789e-06
1.20706e-05
6.5978e-05
-6.35562e-06
1.27005e-05
6.44451e-05
-4.33679e-06
1.29319e-05
6.1732e-05
-2.0668e-06
1.18737e-05
5.76958e-05
-5.16256e-07
1.01628e-05
5.24463e-05
-9.28805e-07
9.30748e-06
4.66666e-05
-3.95908e-06
1.00648e-05
4.17872e-05
-8.23465e-06
1.16203e-05
3.8779e-05
-1.0403e-05
1.22444e-05
3.72883e-05
-9.4687e-06
1.11388e-05
3.65514e-05
-7.0899e-06
8.93443e-06
3.6383e-05
-4.53289e-06
6.60205e-06
3.69072e-05
-2.17494e-06
4.58062e-06
3.81373e-05
-3.94786e-07
2.77786e-06
4.0048e-05
1.10001e-07
1.11319e-06
4.26164e-05
-1.04082e-06
-4.24405e-07
4.58266e-05
-3.46405e-06
-1.95775e-06
4.96838e-05
-6.30165e-06
-3.75813e-06
5.39762e-05
-8.05817e-06
-6.28907e-06
5.80703e-05
-7.62618e-06
-9.46842e-06
6.11681e-05
-5.87896e-06
-1.22229e-05
6.24614e-05
-4.07431e-06
-1.32963e-05
6.13512e-05
-2.73385e-06
-1.23813e-05
5.80407e-05
-2.91433e-06
-1.03708e-05
5.35316e-05
-4.95316e-06
-8.82782e-06
4.87046e-05
-6.55837e-06
-8.93617e-06
4.40741e-05
-6.14825e-06
-1.06669e-05
4.0531e-05
-5.0492e-06
-1.29382e-05
3.92106e-05
-4.05359e-06
-1.40889e-05
4.04456e-05
-1.87899e-06
-1.2852e-05
4.35886e-05
2.15983e-06
-9.6304e-06
4.77725e-05
6.54792e-06
-5.91145e-06
5.24399e-05
9.20759e-06
-2.51193e-06
5.7238e-05
9.90155e-06
8.39871e-07
6.1765e-05
8.67196e-06
4.33985e-06
6.56002e-05
4.55144e-06
8.29416e-06
6.81989e-05
-1.46703e-06
1.18927e-05
-6.86763e-06
1.3673e-05
9.6881e-05
-1.32876e-05
1.68434e-05
9.50721e-05
-1.30101e-05
1.47863e-05
9.37959e-05
-1.14972e-05
1.33745e-05
9.29939e-05
-9.14432e-06
1.39091e-05
9.17172e-05
-6.16704e-06
1.52174e-05
8.92902e-05
-2.99073e-06
1.52093e-05
8.5568e-05
-9.60359e-07
1.33077e-05
8.00892e-05
-9.835e-07
1.12392e-05
7.24665e-05
-3.6316e-06
1.12593e-05
6.40493e-05
-8.52905e-06
1.3672e-05
5.74396e-05
-1.24949e-05
1.59712e-05
5.36729e-05
-1.30194e-05
1.56209e-05
5.17611e-05
-1.07193e-05
1.30343e-05
5.08894e-05
-7.40047e-06
1.01276e-05
5.09943e-05
-4.26752e-06
7.90369e-06
5.20841e-05
-1.9984e-06
6.15403e-06
5.4099e-05
-1.50317e-06
4.57384e-06
5.70045e-05
-3.48486e-06
3.21887e-06
6.0905e-05
-7.7593e-06
2.10435e-06
6.60747e-05
-1.32448e-05
7.83779e-07
7.24324e-05
-1.73268e-05
-1.75893e-06
7.90687e-05
-1.73884e-05
-6.19138e-06
8.47907e-05
-1.42072e-05
-1.14752e-05
8.85013e-05
-1.00023e-05
-1.53237e-05
8.91259e-05
-6.24132e-06
-1.602e-05
8.63157e-05
-5.09616e-06
-1.3783e-05
8.1043e-05
-7.33914e-06
-1.07805e-05
7.46062e-05
-9.24375e-06
-9.52231e-06
6.76915e-05
-8.07852e-06
-1.08908e-05
6.11383e-05
-6.04342e-06
-1.40526e-05
5.66023e-05
-5.1165e-06
-1.7144e-05
5.55812e-05
-3.94904e-06
-1.79694e-05
5.81799e-05
-9.47913e-07
-1.58008e-05
6.33951e-05
2.93729e-06
-1.19107e-05
7.01795e-05
5.65089e-06
-7.62063e-06
7.76353e-05
6.91756e-06
-2.90741e-06
8.49742e-05
6.51752e-06
2.15642e-06
9.15216e-05
1.99246e-06
7.7666e-06
9.61744e-05
-5.35032e-06
1.3339e-05
-1.11911e-05
1.68051e-05
0.00012636
-1.71394e-05
1.98116e-05
0.000122761
-1.43592e-05
1.79245e-05
0.000120765
-1.3442e-05
1.48137e-05
0.000120672
-1.20789e-05
1.38998e-05
0.000120513
-8.31232e-06
1.56664e-05
0.000119048
-3.76597e-06
1.75475e-05
0.000116514
-1.33766e-06
1.67374e-05
0.000112518
-1.33843e-06
1.34883e-05
0.000105132
-2.86852e-06
1.14133e-05
9.39531e-05
-6.54585e-06
1.3589e-05
8.23377e-05
-1.14524e-05
1.82635e-05
7.4141e-05
-1.46754e-05
2.03423e-05
6.97256e-05
-1.41871e-05
1.80858e-05
6.75499e-05
-1.07689e-05
1.43306e-05
6.67679e-05
-6.84479e-06
1.16562e-05
6.71085e-05
-4.06349e-06
1.01956e-05
6.83667e-05
-3.5502e-06
9.21981e-06
7.04028e-05
-6.38933e-06
8.6699e-06
7.34493e-05
-1.30364e-05
8.82904e-06
7.83955e-05
-2.26281e-05
9.24476e-06
8.60037e-05
-3.12131e-05
8.12004e-06
9.56508e-05
-3.3694e-05
3.52202e-06
0.000105671
-2.97711e-05
-4.37133e-06
0.000114045
-2.20917e-05
-1.2766e-05
0.000118561
-1.34413e-05
-1.77434e-05
0.000117913
-8.53417e-06
-1.74153e-05
0.000112982
-1.00089e-05
-1.37091e-05
0.000105854
-1.24602e-05
-1.04783e-05
9.7711e-05
-1.04601e-05
-1.02206e-05
8.89998e-05
-6.56446e-06
-1.30467e-05
8.09014e-05
-4.61999e-06
-1.75306e-05
7.55738e-05
-4.10506e-06
-2.12349e-05
7.47779e-05
-3.25981e-06
-2.2238e-05
7.85837e-05
-2.47307e-06
-2.04813e-05
8.60339e-05
-2.89814e-06
-1.68318e-05
9.56513e-05
-2.94754e-06
-1.16027e-05
0.000105864
-2.48231e-06
-4.99634e-06
0.000115857
-6.05813e-06
2.49213e-06
0.000124117
-1.37878e-05
1.06418e-05
-1.86265e-05
1.73599e-05
0.000154628
-2.42896e-05
1.96137e-05
0.000148188
-1.33878e-05
2.10132e-05
0.000143483
-1.15623e-05
1.79123e-05
0.000144412
-1.45364e-05
1.46412e-05
0.000147173
-1.21253e-05
1.48695e-05
0.000147587
-5.04356e-06
1.80578e-05
0.000146203
-1.13256e-06
1.99483e-05
0.000144796
-2.2266e-06
1.71397e-05
0.000141088
-3.72623e-06
1.20886e-05
0.000131132
-4.42249e-06
1.15613e-05
0.000115881
-7.11195e-06
1.74886e-05
0.000101267
-1.20354e-05
2.35554e-05
9.16655e-05
-1.52178e-05
2.36591e-05
8.68132e-05
-1.36977e-05
1.94328e-05
8.47416e-05
-9.52002e-06
1.56349e-05
8.41166e-05
-6.09357e-06
1.39339e-05
8.42122e-05
-5.29738e-06
1.34449e-05
8.45546e-05
-8.60681e-06
1.3731e-05
8.52019e-05
-1.74524e-05
1.53755e-05
8.74996e-05
-3.17827e-05
1.82982e-05
9.35478e-05
-4.65353e-05
2.00841e-05
0.000103952
-5.34496e-05
1.72233e-05
0.000117592
-5.05131e-05
8.57024e-06
0.000132405
-4.10783e-05
-3.53031e-06
0.000144155
-2.70613e-05
-1.41576e-05
0.000148331
-1.52019e-05
-1.85488e-05
0.000145048
-1.32419e-05
-1.66727e-05
0.000138276
-1.61235e-05
-1.25911e-05
0.000130704
-1.39073e-05
-1.0096e-05
0.000122451
-7.7091e-06
-1.09214e-05
0.000113318
-3.3434e-06
-1.5017e-05
0.000104415
-1.59262e-06
-2.05676e-05
9.82713e-05
-1.54231e-06
-2.54384e-05
9.71287e-05
-4.47056e-06
-2.84199e-05
0.000101798
-1.13352e-05
-2.8461e-05
0.000111015
-1.68308e-05
-2.46083e-05
0.000121921
-1.71102e-05
-1.7591e-05
0.000133365
-1.95544e-05
-8.73501e-06
0.000145464
-2.86757e-05
1.54069e-06
-3.26777e-05
1.22155e-05
0.000178923
-3.85163e-05
1.4904e-05
0.000172618
-1.42456e-05
2.18751e-05
0.000162861
-4.50894e-06
2.1591e-05
0.000161387
-1.24131e-05
1.71885e-05
0.000167942
-1.755e-05
1.42698e-05
0.000172663
-9.3893e-06
1.64964e-05
0.000171161
-1.09625e-07
2.12981e-05
0.000169073
-1.53588e-06
2.20942e-05
0.000170413
-8.201e-06
1.61311e-05
0.00016884
-8.83593e-06
1.05954e-05
0.000157258
-5.11378e-06
1.417e-05
0.000138491
-5.88847e-06
2.33477e-05
0.000121044
-1.08792e-05
2.79291e-05
0.000110187
-1.33519e-05
2.52278e-05
0.000105456
-1.12777e-05
2.05062e-05
0.000104094
-8.11852e-06
1.77172e-05
0.000103978
-7.10158e-06
1.67388e-05
0.000103849
-1.03933e-05
1.68428e-05
0.000103
-2.02342e-05
1.87633e-05
0.000102062
-3.76445e-05
2.33138e-05
0.000103875
-5.79622e-05
2.86789e-05
0.000111302
-7.04489e-05
2.97497e-05
0.000124706
-7.00802e-05
2.26459e-05
0.000142984
-6.08485e-05
8.97307e-06
0.000161921
-4.46784e-05
-5.60336e-06
0.000172675
-2.60666e-05
-1.48224e-05
0.000170566
-1.63228e-05
-1.66231e-05
0.000161581
-1.65054e-05
-1.40939e-05
0.000154252
-1.60285e-05
-1.0638e-05
0.0001507
-1.12766e-05
-8.71581e-06
0.000147366
-5.11872e-06
-1.04271e-05
0.000140866
9.57292e-07
-1.57751e-05
0.000132008
4.43354e-06
-2.30957e-05
0.000124626
7.84706e-07
-3.12581e-05
0.000122888
-1.26074e-05
-3.79299e-05
0.000128483
-2.74968e-05
-3.89408e-05
0.000138324
-3.26536e-05
-3.31498e-05
0.000148584
-3.44646e-05
-2.33545e-05
0.000160188
-4.45045e-05
-1.14078e-05
-5.20401e-05
2.22346e-06
0.000199814
-5.79936e-05
8.04826e-06
0.000198665
-2.28317e-05
2.0324e-05
0.000187012
1.7465e-06
2.38078e-05
0.000178461
-3.48241e-06
1.96648e-05
0.000183016
-1.89487e-05
1.34944e-05
0.000193758
-1.7562e-05
1.23487e-05
0.000196405
-2.39202e-06
1.78597e-05
0.000189859
2.96519e-06
2.35358e-05
0.000186951
-9.72763e-06
2.18366e-05
0.000193361
-2.21694e-05
1.42398e-05
0.000196428
-1.75844e-05
1.24785e-05
0.00018439
-6.39832e-06
2.08768e-05
0.000162238
-3.48957e-06
2.92452e-05
0.000142211
-6.5184e-06
2.99155e-05
0.000130933
-8.46967e-06
2.60031e-05
0.000127396
-8.64232e-06
2.25778e-05
0.000127968
-9.58153e-06
2.05908e-05
0.000129644
-1.36511e-05
1.93427e-05
0.000130066
-2.3148e-05
1.96205e-05
0.000128044
-4.01748e-05
2.35657e-05
0.000125545
-6.25857e-05
3.14241e-05
0.000127316
-8.0106e-05
3.79899e-05
0.000136673
-8.41075e-05
3.54893e-05
0.000153966
-7.71407e-05
2.23863e-05
0.000175761
-6.18144e-05
4.87619e-06
0.000191033
-3.86869e-05
-8.8009e-06
0.000188857
-1.78061e-05
-1.42983e-05
0.000173429
-8.85108e-06
-1.35212e-05
0.000159802
-8.79484e-06
-9.4297e-06
0.000157711
-1.14835e-05
-4.73909e-06
0.000165116
-1.14418e-05
-3.1689e-06
0.000171773
-3.10879e-06
-6.84279e-06
0.000169978
8.96772e-06
-1.50861e-05
0.00016152
1.14551e-05
-2.70251e-05
0.000153558
-3.82452e-06
-4.05765e-05
0.000152471
-2.80792e-05
-4.95685e-05
0.000159083
-4.26326e-05
-4.8583e-05
0.0001686
-4.70212e-05
-3.90455e-05
0.000178153
-5.72192e-05
-2.50681e-05
-6.92249e-05
-8.7143e-06
0.000220834
-7.69434e-05
-4.35065e-07
0.000225485
-4.00975e-05
1.57778e-05
0.00021803
-1.22076e-06
2.32979e-05
0.000204578
5.94405e-06
2.12722e-05
0.000199454
-1.22464e-05
1.34254e-05
0.000208821
-2.33957e-05
7.52518e-06
0.000220442
-1.14699e-05
9.7817e-06
0.000219448
3.9257e-06
1.74006e-05
0.000209394
-3.4991e-06
2.13927e-05
0.000208234
-2.92595e-05
1.74986e-05
0.000220436
-4.09745e-05
1.34479e-05
0.000226407
-2.5853e-05
1.89212e-05
0.000212112
-5.36877e-06
2.85006e-05
0.000186881
2.96222e-06
3.20002e-05
0.000166223
1.74877e-06
2.99398e-05
0.000156381
-3.08557e-06
2.75506e-05
0.000155479
-9.90085e-06
2.5917e-05
0.00015944
-1.87937e-05
2.36134e-05
0.000163506
-2.9309e-05
2.08568e-05
0.000163271
-4.29258e-05
2.13188e-05
0.000158378
-6.204e-05
2.88232e-05
0.000154151
-8.1302e-05
4.00634e-05
0.000157016
-9.00855e-05
4.39831e-05
0.000169735
-8.7117e-05
3.40338e-05
0.000189556
-7.45358e-05
1.52431e-05
0.00020544
-4.93962e-05
-2.27276e-06
0.000204179
-1.79078e-05
-1.1965e-05
0.000186541
3.3063e-06
-1.32114e-05
0.000167339
6.76838e-06
-7.95974e-06
0.0001601
-2.82428e-06
6.12362e-07
0.000169026
-1.37196e-05
6.7405e-06
0.000186832
-1.1141e-05
6.1513e-06
0.00019938
6.50161e-06
-1.6337e-06
0.000199412
2.0396e-05
-1.59544e-05
0.000191825
1.10163e-05
-3.49093e-05
0.00018566
-1.75473e-05
-5.22716e-05
0.000186087
-4.18825e-05
-5.96007e-05
0.000192361
-5.24492e-05
-5.41247e-05
0.000200798
-6.44288e-05
-3.94081e-05
-8.09224e-05
-2.02752e-05
0.000244208
-9.08733e-05
-1.08159e-05
0.00025174
-6.15061e-05
8.00313e-06
0.000250427
-1.62578e-05
1.86837e-05
0.000239094
6.56635e-06
2.03177e-05
0.000226233
-2.23828e-06
1.3951e-05
0.000224714
-1.96391e-05
4.83613e-06
0.000236671
-1.98468e-05
1.89656e-06
0.000248113
-5.05282e-06
7.84839e-06
0.000245588
-1.92962e-06
1.56159e-05
0.000235646
-2.54414e-05
1.67563e-05
0.000238231
-5.36011e-05
1.33519e-05
0.000252905
-5.27961e-05
1.63461e-05
0.000255987
-2.40063e-05
2.6e-05
0.000238157
3.4073e-06
3.14728e-05
0.000213223
1.3792e-05
3.07177e-05
0.000195219
1.03369e-05
2.98286e-05
0.000188368
-2.33164e-06
3.03452e-05
0.00019164
-2.12782e-05
2.88438e-05
0.000200191
-3.93238e-05
2.33495e-05
0.000205057
-5.05276e-05
1.79382e-05
0.000200561
-6.06119e-05
2.12683e-05
0.000191076
-7.55483e-05
3.51302e-05
0.000185923
-8.72504e-05
4.67612e-05
0.000190937
-8.822e-05
4.23256e-05
0.000205102
-7.8704e-05
2.40795e-05
0.000219085
-5.46861e-05
4.49768e-06
0.000220452
-1.7447e-05
-8.6893e-06
0.000206991
1.37774e-05
-1.32276e-05
0.000189121
2.25259e-05
-9.3983e-06
0.000178078
1.0144e-05
1.2687e-06
0.000180755
-8.86581e-06
1.2387e-05
0.000197401
-1.52467e-05
1.69972e-05
0.000218254
-1.23648e-08
1.27385e-05
0.000230791
2.17678e-05
-5.38257e-07
0.000231648
2.33363e-05
-2.17961e-05
0.000226925
-1.85487e-06
-4.55086e-05
0.000222875
-3.1362e-05
-6.22785e-05
0.000222174
-4.79986e-05
-6.5303e-05
0.00022624
-6.32436e-05
-5.42593e-05
-8.48829e-05
-3.37339e-05
0.000271687
-9.67344e-05
-2.40357e-05
0.000279245
-7.92326e-05
-2.51893e-06
0.000280198
-3.80593e-05
1.07721e-05
0.000273063
-4.41029e-06
1.58552e-05
0.00026036
2.87164e-06
1.33933e-05
0.000250455
-9.01046e-06
4.43457e-06
0.000253342
-1.93259e-05
-2.57309e-06
0.000267835
-1.69691e-05
8.02794e-07
0.000278307
-1.28368e-05
1.08386e-05
0.000273528
-2.55533e-05
1.60231e-05
0.000265659
-5.35263e-05
1.27584e-05
0.000272384
-6.78778e-05
1.20071e-05
0.000284853
-4.73755e-05
2.04054e-05
0.000282148
-9.39383e-06
2.80669e-05
0.000263183
1.76876e-05
2.85299e-05
0.000241653
2.49664e-05
2.81732e-05
0.000227699
1.40312e-05
3.01877e-05
0.000225915
-1.32115e-05
2.90276e-05
0.000236765
-4.56645e-05
2.10588e-05
0.000250316
-6.27516e-05
1.0362e-05
0.000251659
-6.25256e-05
7.80357e-06
0.000239295
-6.53189e-05
2.15665e-05
0.000225319
-7.57633e-05
4.16051e-05
0.000219951
-7.98602e-05
4.68401e-05
0.000225201
-7.16415e-05
3.18942e-05
0.000235144
-4.97957e-05
1.08881e-05
0.000239412
-1.40446e-05
-4.26191e-06
0.000232833
2.07152e-05
-1.25337e-05
0.000220351
3.41076e-05
-1.37176e-05
0.00020996
2.21734e-05
-5.33476e-06
0.000207728
-9.09488e-08
8.34899e-06
0.000216885
-1.24071e-05
1.87622e-05
0.000235134
-3.52669e-06
2.06911e-05
0.000254605
1.64837e-05
1.29813e-05
0.000267426
2.40202e-05
-5.46445e-06
0.000271017
8.05633e-06
-3.16568e-05
0.000267635
-1.7351e-05
-5.61946e-05
0.000261122
-3.55458e-05
-6.93113e-05
0.000257742
-5.40883e-05
-6.66704e-05
-8.113e-05
-4.91472e-05
0.000305589
-9.50049e-05
-3.81803e-05
0.000310506
-8.77374e-05
-1.42463e-05
0.000308464
-5.58456e-05
4.69596e-07
0.000302145
-2.06157e-05
8.11773e-06
0.00029405
-6.85939e-08
1.05373e-05
0.000285273
6.66437e-07
5.10755e-06
0.000281976
-1.11465e-05
-3.46198e-06
0.000290814
-2.26096e-05
-3.265e-06
0.000304878
-2.72532e-05
7.23038e-06
0.000308197
-3.25588e-05
1.54505e-05
0.000299437
-4.95271e-05
1.21511e-05
0.000295794
-6.82605e-05
6.29199e-06
0.000303992
-6.17504e-05
1.12145e-05
0.000308311
-2.68349e-05
2.2063e-05
0.000297434
1.04487e-05
2.77176e-05
0.000278914
3.00942e-05
2.85079e-05
0.000264508
2.79437e-05
2.69987e-05
0.000259635
3.22384e-06
1.96519e-05
0.000268505
-3.8724e-05
6.23262e-06
0.000289644
-7.15286e-05
-6.41039e-06
0.000304297
-7.1293e-05
-1.01697e-05
0.000296277
-5.72394e-05
3.19089e-06
0.000274724
-5.74372e-05
2.9391e-05
0.000257435
-6.28568e-05
4.62693e-05
0.000252281
-5.54077e-05
3.88109e-05
0.000256582
-3.36444e-05
1.75487e-05
0.000262133
-2.80304e-06
2.25061e-08
0.00026192
2.68045e-05
-1.07421e-05
0.000256105
3.94746e-05
-1.76918e-05
0.000249435
2.8985e-05
-1.64399e-05
0.000246574
7.11824e-06
-4.49223e-06
0.00024999
-6.09385e-06
9.74927e-06
0.000260066
-1.25507e-06
1.7968e-05
0.000276711
1.05135e-05
1.75018e-05
0.000297029
1.20884e-05
6.69556e-06
0.000312018
2.54246e-06
-1.64691e-05
0.000313945
-8.87028e-06
-4.5491e-05
0.000305712
-1.98066e-05
-6.78052e-05
0.000297573
-4.05241e-05
-7.42661e-05
-7.29257e-05
-6.24716e-05
0.000348199
-8.45088e-05
-5.11741e-05
0.000347213
-8.23209e-05
-2.82877e-05
0.000338479
-6.15693e-05
-1.25261e-05
0.000329125
-3.37655e-05
-1.39533e-06
0.000324043
-8.20432e-06
7.64262e-06
0.000320916
5.48331e-06
7.28889e-06
0.00031923
-1.52074e-07
-1.71688e-06
0.000324299
-1.95868e-05
-5.30613e-06
0.000336031
-3.57226e-05
4.07952e-06
0.000342756
-3.96721e-05
1.49655e-05
0.000335928
-4.32505e-05
1.26581e-05
0.000323226
-5.5077e-05
1.85589e-06
0.000316288
-5.80542e-05
1.44839e-06
0.000312762
-3.58658e-05
1.45984e-05
0.000305433
-1.70738e-06
2.72936e-05
0.00029769
2.23732e-05
2.91439e-05
0.00029529
2.89905e-05
1.89656e-05
0.00029604
1.56478e-05
7.27004e-07
0.000300468
-2.21508e-05
-1.68065e-05
0.000318592
-6.94956e-05
-2.48531e-05
0.000344692
-8.68475e-05
-2.15811e-05
0.000351044
-6.54124e-05
-6.59692e-06
0.00032956
-4.47432e-05
2.00007e-05
0.000300993
-4.13999e-05
4.34177e-05
0.000284781
-3.45815e-05
4.52142e-05
0.00028454
-1.39516e-05
2.65232e-05
0.000292821
1.14638e-05
4.97568e-06
0.000299657
3.09849e-05
-9.74461e-06
0.000300504
3.68777e-05
-2.04501e-05
0.00029815
2.63068e-05
-2.61899e-05
0.000297176
7.56521e-06
-2.14177e-05
0.00029884
-3.03153e-06
-8.40263e-06
0.000302841
1.75787e-06
4.11527e-06
0.000311681
6.94621e-06
1.06826e-05
0.00032888
-1.5921e-06
7.85516e-06
0.000348578
-1.18354e-05
-8.23264e-06
0.000357358
-9.54538e-06
-3.55959e-05
0.000352472
-7.40303e-06
-6.3068e-05
0.000344791
-2.62199e-05
-7.76269e-05
-6.10801e-05
-7.22e-05
0.000399364
-6.61852e-05
-6.15126e-05
0.00039405
-6.5859e-05
-4.21241e-05
0.000378747
-5.53448e-05
-2.63501e-05
0.000363255
-3.93077e-05
-1.18186e-05
0.000355826
-1.50328e-05
2.72221e-06
0.000355251
8.08713e-06
8.59254e-06
0.00035777
1.07353e-05
2.68367e-06
0.000363704
-1.07695e-05
-2.75534e-06
0.000373199
-3.54646e-05
3.70077e-06
0.000379326
-4.22637e-05
1.58735e-05
0.000372668
-3.65691e-05
1.64813e-05
0.000353359
-3.60418e-05
2.76409e-06
0.000331816
-3.79357e-05
-7.42663e-06
0.000317309
-2.67542e-05
-2.17518e-06
0.000312386
-4.47813e-06
8.35971e-06
0.000317348
1.33482e-05
9.29792e-06
0.000328682
2.10267e-05
-2.77715e-06
0.000337824
1.76745e-05
-2.19532e-05
0.000341965
-7.21129e-06
-3.66074e-05
0.000352228
-5.72384e-05
-3.59524e-05
0.000376162
-9.71625e-05
-2.09513e-05
0.000392946
-8.73552e-05
-5.50426e-07
0.000379518
-4.93778e-05
2.27818e-05
0.000347016
-2.54092e-05
4.43629e-05
0.000322029
-1.34706e-05
5.05095e-05
0.000316561
3.1434e-06
3.59937e-05
0.000324281
2.20504e-05
1.28725e-05
0.000332785
3.35724e-05
-5.65196e-06
0.000335619
3.31999e-05
-1.78251e-05
0.000336098
2.05501e-05
-2.60461e-05
0.000339982
2.00362e-06
-2.84893e-05
0.000346938
-7.638e-06
-2.23581e-05
0.000352838
-1.87112e-06
-9.26771e-06
0.000357115
4.01538e-06
3.5959e-06
0.000364696
-5.27894e-06
6.05722e-06
0.000378656
-1.72586e-05
-6.74996e-06
0.000392529
-1.25961e-05
-3.07004e-05
0.000398283
-3.51787e-06
-5.71641e-05
0.000397367
-1.57109e-05
-7.52969e-05
-4.5797e-05
-7.63923e-05
0.000455126
-4.3844e-05
-6.85161e-05
0.000450723
-4.55938e-05
-5.5216e-05
0.000433143
-4.24869e-05
-4.01132e-05
0.000409877
-3.55604e-05
-2.41139e-05
0.000394856
-1.5989e-05
-6.19772e-06
0.000392516
1.01702e-05
7.24317e-06
0.000397722
1.93723e-05
9.73927e-06
0.000405109
6.27751e-07
5.90677e-06
0.000412384
-2.7324e-05
6.62313e-06
0.00041656
-3.90679e-05
1.5374e-05
0.000411566
-3.27279e-05
2.08483e-05
0.000394555
-2.40308e-05
1.18178e-05
0.000371854
-1.8615e-05
-5.73748e-06
0.000355068
-1.00763e-05
-1.66978e-05
0.000351327
1.61615e-06
-1.67936e-05
0.000359562
8.53025e-06
-1.36026e-05
0.000373626
1.01404e-05
-1.55714e-05
0.000386919
1.05757e-05
-2.67255e-05
0.000396237
6.56386e-07
-4.01011e-05
0.000404907
-3.65922e-05
-4.0653e-05
0.000419129
-8.569e-05
-2.25749e-05
0.000431511
-9.73891e-05
3.52819e-06
0.000422922
-6.01772e-05
2.59581e-05
0.000393934
-1.70893e-05
4.29957e-05
0.000365795
8.57953e-06
5.18594e-05
0.000353086
2.34489e-05
4.66246e-05
0.000352516
3.23587e-05
2.87172e-05
0.000354093
3.45336e-05
8.66332e-06
0.00035413
2.84836e-05
-4.20127e-06
0.000356847
1.26517e-05
-1.026e-05
0.000366566
-8.64105e-06
-1.57189e-05
0.000380549
-2.02271e-05
-1.97702e-05
0.000391038
-1.24981e-05
-1.2993e-05
0.000394165
1.60725e-06
3.78845e-06
0.00039462
2.60994e-06
1.15693e-05
0.000401187
-6.5658e-06
-2.41348e-06
0.00041744
-8.29518e-06
-2.85046e-05
0.000436816
-4.51571e-06
-5.21879e-05
0.000448984
-1.11436e-05
-6.79605e-05
-2.96312e-05
-7.38926e-05
0.00051418
-2.55031e-05
-6.63408e-05
0.000513527
-2.66252e-05
-6.22931e-05
0.000496282
-2.64737e-05
-5.26244e-05
0.000466601
-2.2962e-05
-3.92672e-05
0.000442076
-7.31285e-06
-2.11142e-05
0.000433996
1.53154e-05
-1.73371e-06
0.000438985
2.37224e-05
1.10394e-05
0.00044756
7.41581e-06
1.4549e-05
0.000453035
-1.79177e-05
1.47704e-05
0.0004532
-2.99503e-05
1.8472e-05
0.000446857
-2.55981e-05
2.22666e-05
0.00043361
-1.64854e-05
1.64437e-05
0.000418386
-8.47678e-06
-1.13072e-07
0.00040988
-1.01171e-06
-1.72404e-05
0.000411442
3.36602e-06
-2.37801e-05
0.00041874
7.04571e-07
-1.80223e-05
0.000427213
-3.56232e-06
-1.01799e-05
0.000436469
-1.03351e-06
-1.30177e-05
0.00044595
2.94743e-06
-2.58043e-05
0.000454769
-1.5358e-05
-3.26676e-05
0.00046437
-6.05689e-05
-2.27129e-05
0.000473258
-8.93441e-05
-5.29368e-07
0.000469908
-6.43265e-05
2.2571e-05
0.00044863
-1.11197e-05
4.08395e-05
0.000421244
2.95001e-05
5.03743e-05
0.000400877
4.60432e-05
4.82076e-05
0.000389281
4.43096e-05
3.80797e-05
0.000383262
3.39456e-05
2.64007e-05
0.00038288
2.22247e-05
1.50427e-05
0.000390197
8.68221e-06
4.20714e-06
0.000404331
-9.83455e-06
-4.5703e-06
0.000419581
-2.49347e-05
-9.06039e-06
0.00042949
-2.07965e-05
-6.36203e-06
0.000432146
3.44186e-07
4.51147e-06
0.000431554
1.609e-05
1.37137e-05
0.000434623
1.52339e-05
5.91895e-06
0.000448174
7.91867e-06
-1.90731e-05
0.000471622
1.33677e-06
-4.46494e-05
0.000493826
-7.56748e-06
-5.89152e-05
-1.85182e-05
-6.46334e-05
0.000570591
-1.61559e-05
-5.99882e-05
0.000574856
-1.14907e-05
-6.17632e-05
0.000561474
-8.4066e-06
-5.88177e-05
0.000532233
-5.40577e-06
-5.10334e-05
0.000503313
5.75664e-06
-3.62741e-05
0.000487552
2.24796e-05
-1.50717e-05
0.000484362
2.7659e-05
5.33322e-06
0.00048694
1.20798e-05
1.78237e-05
0.000489514
-1.07482e-05
2.24653e-05
0.000488929
-2.16716e-05
2.51998e-05
0.000484539
-1.80642e-05
2.58036e-05
0.000478251
-1.03943e-05
1.61785e-05
0.000474567
-3.59814e-06
-3.81106e-06
0.000476839
1.58887e-06
-2.04402e-05
0.000481605
5.80621e-07
-2.06677e-05
0.000481843
-8.15391e-06
-6.57821e-06
0.000477126
-1.39713e-05
7.62362e-06
0.000475129
-6.6522e-06
9.38964e-06
0.000481923
7.59821e-06
-2.97337e-07
0.000495041
2.87547e-06
-8.33832e-06
0.000507893
-3.42603e-05
-4.22621e-06
0.000515063
-7.12966e-05
1.05061e-05
0.00051065
-6.00037e-05
2.54073e-05
0.00049137
-4.75689e-06
3.65853e-05
0.000464896
4.6986e-05
4.42651e-05
0.000442313
6.70856e-05
4.44493e-05
0.000428115
5.96757e-05
3.73979e-05
0.000421804
4.16094e-05
3.0124e-05
0.000422939
2.63516e-05
2.63666e-05
0.000431688
1.58342e-05
2.17709e-05
0.000446468
3.74156e-06
1.21435e-05
0.000461999
-8.82597e-06
2.22269e-06
0.000472105
-9.31598e-06
1.93258e-06
0.000475891
6.90287e-06
1.32582e-05
0.000478002
2.48413e-05
2.37966e-05
0.000483305
2.98013e-05
1.84482e-05
0.000495336
2.23042e-05
-3.50045e-06
0.000515402
8.19041e-06
-2.93855e-05
0.000538424
-6.97812e-06
-4.71013e-05
-1.60854e-05
-5.54424e-05
0.000627209
-2.51677e-05
-5.05454e-05
0.000631435
-8.16912e-06
-5.34916e-05
0.000622224
7.55874e-06
-5.91501e-05
0.000604485
1.29743e-05
-6.1172e-05
0.000586172
1.70806e-05
-5.28838e-05
0.000570897
2.66353e-05
-3.20629e-05
0.000556601
3.14764e-05
-6.05036e-06
0.000542565
2.02654e-05
1.33194e-05
0.000531834
-1.64834e-06
2.33877e-05
0.000527761
-1.89419e-05
2.9985e-05
0.000531694
-2.60045e-05
3.54955e-05
0.000543147
-2.84955e-05
3.25565e-05
0.000559058
-2.81477e-05
1.7673e-05
0.000571833
-2.19653e-05
1.97544e-06
0.000572435
-1.33463e-05
-5.03094e-08
0.000558282
-9.52824e-06
1.49796e-05
0.000538543
-6.34012e-06
3.53974e-05
0.000527423
5.97159e-06
4.32135e-05
0.000532294
2.32499e-05
2.76204e-05
0.00054715
2.46561e-05
-1.23675e-06
0.000560486
-2.91377e-06
-1.56614e-05
0.000565409
-4.05866e-05
-3.30149e-07
0.000559196
-4.75547e-05
2.7067e-05
0.000540854
-8.41012e-06
4.31246e-05
0.000516424
4.53174e-05
4.51545e-05
0.000496674
7.76069e-05
3.90573e-05
0.000486803
8.01113e-05
3.01095e-05
0.000484382
6.37553e-05
2.31673e-05
0.000485968
4.28604e-05
1.92324e-05
0.000490994
2.60619e-05
1.56662e-05
0.000500122
1.4231e-05
1.10688e-05
0.000512373
6.8849e-06
6.92883e-06
0.000524364
7.20064e-06
7.29585e-06
0.000533148
1.62391e-05
1.65618e-05
0.000538043
2.64333e-05
3.16407e-05
0.000541219
2.92194e-05
3.85404e-05
0.000547654
2.28047e-05
2.38967e-05
0.000562567
7.46521e-06
-8.07413e-06
0.000585997
-1.33501e-05
-3.69793e-05
-2.80004e-05
-4.89901e-05
0.00068147
-2.74491e-05
-5.38177e-05
0.000683567
-1.8779e-06
-5.15258e-05
0.000672477
2.28916e-05
-5.02308e-05
0.0006547
3.16424e-05
-5.35724e-05
0.000640448
2.91372e-05
-5.40144e-05
0.000635106
2.71598e-05
-4.4528e-05
0.000633988
2.64719e-05
-2.76278e-05
0.0006279
1.98734e-05
-9.96379e-06
0.000613476
5.15435e-06
4.8553e-06
0.000596724
-1.24902e-05
1.83175e-05
0.000587952
-2.91429e-05
3.22734e-05
0.000594839
-4.60082e-05
4.1815e-05
0.000617041
-6.01365e-05
3.93438e-05
0.000642557
-6.16401e-05
2.72774e-05
0.000652986
-4.63205e-05
1.86756e-05
0.00063959
-2.32341e-05
2.38561e-05
0.000612319
-1.11827e-06
3.93958e-05
0.000589614
2.00612e-05
4.77883e-05
0.000582486
3.50914e-05
3.21146e-05
0.000588875
3.15798e-05
-4.11679e-06
0.000601061
6.36763e-06
-3.46442e-05
0.000611542
-2.53422e-05
-3.23576e-05
0.000613588
-3.78577e-05
2.25929e-07
0.000605212
-1.58383e-05
3.28961e-05
0.000592991
2.80877e-05
4.54374e-05
0.000585947
6.61929e-05
3.81919e-05
0.00058546
8.21094e-05
1.91694e-05
0.00058535
7.61372e-05
-1.02272e-06
0.000581868
5.66562e-05
-1.22661e-05
0.000577548
3.34107e-05
-1.02521e-05
0.000576024
1.58997e-05
1.37775e-06
0.00057792
1.00633e-05
1.45895e-05
0.000580757
1.47391e-05
2.4592e-05
0.000582567
2.21944e-05
3.37096e-05
0.000584355
2.35845e-05
4.4504e-05
0.000588803
1.66463e-05