/*--------------------------------*- C++ -*----------------------------------*\
| =========                 |                                                 |
| \\      /  F ield         | OpenFOAM: The Open Source CFD Toolbox           |
|  \\    /   O peration     | Version:  2306                                  |
|   \\  /    A nd           | Website:  www.openfoam.com                      |
|    \\/     M anipulation  |                                                 |
\*---------------------------------------------------------------------------*/
FoamFile
{
    version     2.0;
    format      ascii;
    arch        "LSB;label=32;scalar=64";
    class       volScalarField;
    location    "0.5";
    object      pPrime2Mean;
}
// * * * * * * * * * * * * * * * * * * * * * * * * * * * * * * * * * * * * * //

dimensions      [0 4 -4 0 0 0 0];

internalField   nonuniform List<scalar> 
60000
(
2.5701e-10
3.98636e-10
2.03624e-10
1.77808e-10
3.92492e-10
4.36039e-10
3.29314e-10
1.85414e-10
1.39176e-10
5.35917e-10
7.2691e-10
6.17262e-10
6.46614e-10
7.11239e-10
7.39049e-10
4.60958e-10
2.69643e-10
2.23842e-10
1.88467e-10
1.97463e-10
4.25834e-10
7.46098e-10
7.85111e-10
6.18839e-10
2.62445e-10
8.52647e-11
2.02989e-10
1.23179e-09
1.28289e-09
8.578e-10
8.58925e-10
9.27647e-10
5.48086e-10
2.23706e-10
3.01685e-10
3.85306e-10
1.02488e-09
1.14938e-09
2.48014e-10
3.88005e-11
2.61802e-10
3.90031e-10
1.95608e-10
1.691e-10
3.80622e-10
4.37913e-10
3.36444e-10
1.82014e-10
1.33482e-10
5.21924e-10
7.12889e-10
6.04568e-10
6.40642e-10
7.15923e-10
7.54943e-10
4.70404e-10
2.71994e-10
2.2554e-10
1.89486e-10
1.97108e-10
4.26133e-10
7.47989e-10
7.88437e-10
6.22684e-10
2.61151e-10
8.86213e-11
1.92556e-10
1.22414e-09
1.28539e-09
8.61004e-10
8.70066e-10
9.56694e-10
5.79999e-10
2.40998e-10
3.15445e-10
3.62594e-10
1.01845e-09
1.1683e-09
2.63974e-10
3.32697e-11
2.95155e-10
4.11808e-10
2.03658e-10
1.72794e-10
3.84387e-10
4.41033e-10
3.42332e-10
1.90192e-10
1.36793e-10
5.40039e-10
7.36234e-10
6.07206e-10
6.40713e-10
7.24811e-10
7.72185e-10
4.74227e-10
2.70096e-10
2.2327e-10
1.85924e-10
1.93901e-10
4.2408e-10
7.5109e-10
7.99175e-10
6.36086e-10
2.64926e-10
9.31115e-11
1.85365e-10
1.24177e-09
1.31362e-09
8.73133e-10
8.76211e-10
9.59461e-10
5.69149e-10
2.31462e-10
2.99462e-10
3.585e-10
1.06139e-09
1.22995e-09
2.83272e-10
3.27823e-11
3.19415e-10
4.34737e-10
2.11527e-10
1.74391e-10
3.8384e-10
4.42118e-10
3.46052e-10
1.99704e-10
1.31595e-10
5.43028e-10
7.58504e-10
6.02926e-10
6.36543e-10
7.36238e-10
7.98841e-10
4.85911e-10
2.71825e-10
2.22412e-10
1.81557e-10
1.8853e-10
4.16403e-10
7.4739e-10
8.08705e-10
6.54864e-10
2.70666e-10
9.9987e-11
1.69747e-10
1.24849e-09
1.33841e-09
8.89535e-10
8.96521e-10
9.84362e-10
5.69113e-10
2.28072e-10
2.67223e-10
3.68751e-10
1.12244e-09
1.30979e-09
3.06221e-10
3.02586e-11
3.40253e-10
4.68884e-10
2.25577e-10
1.76332e-10
3.82945e-10
4.42519e-10
3.47284e-10
2.08334e-10
1.26548e-10
5.29491e-10
7.87712e-10
5.99791e-10
6.28555e-10
7.49541e-10
8.31977e-10
5.02288e-10
2.75984e-10
2.24255e-10
1.76773e-10
1.8166e-10
4.06025e-10
7.45212e-10
8.21819e-10
6.75191e-10
2.78691e-10
1.05667e-10
1.57759e-10
1.27293e-09
1.37892e-09
9.08382e-10
9.21258e-10
1.02414e-09
5.7168e-10
2.16551e-10
2.53502e-10
4.16886e-10
1.21925e-09
1.41308e-09
3.35176e-10
2.76725e-11
3.43875e-10
4.80616e-10
2.38325e-10
1.81341e-10
3.73694e-10
4.36659e-10
3.45839e-10
2.10696e-10
1.2515e-10
5.02466e-10
7.90744e-10
5.95046e-10
6.1284e-10
7.61368e-10
8.75626e-10
5.29289e-10
2.84637e-10
2.29464e-10
1.75272e-10
1.80236e-10
3.89707e-10
7.2124e-10
8.27369e-10
7.10619e-10
2.89357e-10
1.07549e-10
1.56824e-10
1.33288e-09
1.42246e-09
9.19621e-10
9.41108e-10
1.09072e-09
6.01583e-10
2.17178e-10
2.5042e-10
4.86166e-10
1.41535e-09
1.55314e-09
3.54368e-10
2.7937e-11
3.65051e-10
4.94562e-10
2.27734e-10
1.66776e-10
3.55536e-10
4.18975e-10
3.34055e-10
2.01075e-10
1.31111e-10
5.01307e-10
7.91434e-10
5.78577e-10
5.87131e-10
7.6996e-10
9.35066e-10
5.70798e-10
2.99174e-10
2.40457e-10
1.73789e-10
1.70378e-10
3.64114e-10
6.6956e-10
7.6423e-10
6.7453e-10
2.76943e-10
9.87973e-11
1.57805e-10
1.42449e-09
1.57295e-09
9.90437e-10
9.55792e-10
1.11556e-09
6.43952e-10
2.31448e-10
2.33012e-10
4.8697e-10
1.64116e-09
1.89415e-09
4.40647e-10
3.02345e-11
3.73538e-10
5.32976e-10
2.43939e-10
1.52021e-10
3.10797e-10
3.77592e-10
3.16348e-10
1.87736e-10
1.18105e-10
5.38095e-10
8.2382e-10
5.74336e-10
5.67902e-10
7.61794e-10
9.89033e-10
6.26986e-10
3.20593e-10
2.57649e-10
1.70287e-10
1.37104e-10
3.10244e-10
6.1102e-10
7.5019e-10
6.76555e-10
2.77713e-10
8.72748e-11
1.55351e-10
1.40053e-09
1.4923e-09
9.85284e-10
1.02021e-09
1.18016e-09
6.60025e-10
2.35526e-10
1.95296e-10
3.82867e-10
1.68357e-09
2.28539e-09
6.56929e-10
2.41187e-11
3.96907e-10
5.40676e-10
2.49746e-10
1.49765e-10
2.68072e-10
3.38724e-10
2.93324e-10
1.80924e-10
9.34488e-11
4.91565e-10
9.36303e-10
6.13769e-10
5.60438e-10
7.76155e-10
1.07742e-09
6.96189e-10
3.48516e-10
2.74883e-10
1.78575e-10
1.2171e-10
2.7636e-10
5.89804e-10
7.46653e-10
6.75572e-10
3.00267e-10
7.72663e-11
1.98369e-10
1.56638e-09
1.54312e-09
8.93459e-10
8.90297e-10
1.12732e-09
6.41413e-10
2.30909e-10
1.68708e-10
2.46104e-10
1.55447e-09
2.70617e-09
9.75417e-10
3.83225e-12
3.20193e-10
5.9723e-10
2.45025e-10
1.41363e-10
2.11353e-10
2.73401e-10
2.60702e-10
1.80924e-10
8.58784e-11
3.45793e-10
8.65572e-10
6.5019e-10
5.7804e-10
7.96002e-10
1.18966e-09
7.87187e-10
3.90608e-10
2.92464e-10
2.15255e-10
1.8262e-10
3.20214e-10
6.51192e-10
8.44942e-10
7.54959e-10
3.59686e-10
8.43823e-11
2.29977e-10
1.65283e-09
1.55284e-09
8.71873e-10
8.1994e-10
1.04467e-09
6.00452e-10
2.31382e-10
1.68996e-10
1.4313e-10
1.23803e-09
3.03256e-09
1.42826e-09
6.43358e-11
1.86545e-10
6.37729e-10
2.73397e-10
1.53297e-10
1.99257e-10
2.44457e-10
2.44861e-10
1.92099e-10
8.57311e-11
2.29608e-10
7.29254e-10
5.86089e-10
4.77998e-10
7.17924e-10
1.20822e-09
9.74782e-10
4.40729e-10
3.07925e-10
2.50963e-10
3.09055e-10
4.60689e-10
8.26763e-10
1.00359e-09
9.02802e-10
4.98848e-10
1.34785e-10
2.5395e-10
1.57514e-09
1.34936e-09
6.40054e-10
5.94561e-10
8.77224e-10
5.29324e-10
2.49313e-10
1.94283e-10
1.03382e-10
8.00277e-10
2.92895e-09
1.8381e-09
2.07251e-10
8.44287e-11
6.14191e-10
3.2988e-10
1.68902e-10
1.97634e-10
2.27407e-10
2.4239e-10
1.88448e-10
9.83432e-11
1.62863e-10
5.33696e-10
5.21446e-10
3.97717e-10
4.91203e-10
1.01922e-09
1.09239e-09
5.47802e-10
3.3483e-10
2.87235e-10
4.1743e-10
5.57408e-10
1.10887e-09
1.42277e-09
1.23654e-09
7.10578e-10
1.91299e-10
2.08037e-10
1.17785e-09
1.11596e-09
5.10384e-10
4.54053e-10
7.88302e-10
5.5771e-10
2.8597e-10
2.37621e-10
1.06886e-10
4.80377e-10
2.35215e-09
2.05862e-09
3.15768e-10
3.42605e-11
4.6182e-10
3.8401e-10
1.94854e-10
2.13654e-10
2.38068e-10
2.47509e-10
2.08374e-10
1.05373e-10
1.54733e-10
5.06607e-10
4.62838e-10
3.48915e-10
3.08201e-10
7.56557e-10
1.10911e-09
6.5184e-10
4.50901e-10
5.23485e-10
6.52819e-10
6.27255e-10
1.19816e-09
1.93876e-09
1.6545e-09
9.65512e-10
3.08542e-10
2.62505e-10
9.16036e-10
8.44009e-10
3.94455e-10
3.79851e-10
6.46787e-10
5.31744e-10
3.30893e-10
2.81407e-10
9.76749e-11
2.63802e-10
1.44232e-09
1.96338e-09
4.32519e-10
6.11509e-11
3.3987e-10
3.68378e-10
2.06878e-10
1.85472e-10
2.16609e-10
2.0324e-10
2.18217e-10
1.11893e-10
1.24163e-10
4.88835e-10
4.38645e-10
3.47432e-10
2.57635e-10
3.57618e-10
8.13789e-10
6.17092e-10
5.19356e-10
8.94752e-10
9.59634e-10
5.41576e-10
8.62559e-10
2.20147e-09
2.17913e-09
1.25183e-09
5.03976e-10
2.9126e-10
6.79246e-10
7.26601e-10
4.16498e-10
4.38041e-10
7.97274e-10
6.766e-10
3.92311e-10
3.2445e-10
1.28953e-10
1.73895e-10
7.7559e-10
1.4974e-09
5.00932e-10
1.82698e-10
3.20972e-10
4.41683e-10
2.62255e-10
2.17046e-10
2.10859e-10
1.68083e-10
2.08445e-10
1.267e-10
1.28087e-10
5.55676e-10
7.19476e-10
4.66645e-10
3.1379e-10
3.63943e-10
7.68674e-10
6.79085e-10
4.67935e-10
7.48051e-10
7.40758e-10
3.00007e-10
4.24439e-10
1.60406e-09
2.11672e-09
1.29288e-09
6.45248e-10
3.10461e-10
4.64663e-10
6.74952e-10
5.56637e-10
5.06742e-10
6.74853e-10
6.18314e-10
3.97807e-10
4.45546e-10
2.03119e-10
1.56369e-10
3.93249e-10
8.92429e-10
4.72881e-10
3.54615e-10
1.83853e-10
3.60877e-10
3.00484e-10
2.33578e-10
2.17212e-10
1.93246e-10
1.67396e-10
1.11405e-10
9.34622e-11
3.5429e-10
5.6513e-10
4.75344e-10
3.43693e-10
4.0112e-10
6.81526e-10
6.00152e-10
3.29164e-10
5.31356e-10
6.33708e-10
1.06733e-10
2.24416e-10
1.31624e-09
2.21719e-09
1.59322e-09
7.8669e-10
3.7601e-10
2.55766e-10
4.66414e-10
4.71497e-10
4.328e-10
6.95037e-10
6.40592e-10
4.14372e-10
4.98655e-10
2.72472e-10
1.72334e-10
2.6274e-10
5.48287e-10
5.45822e-10
3.1866e-10
1.25674e-10
2.60022e-10
3.22857e-10
2.78574e-10
2.45994e-10
1.66042e-10
1.03824e-10
8.37664e-11
5.75992e-11
2.36752e-10
3.7209e-10
3.71213e-10
3.7177e-10
5.22551e-10
6.93572e-10
6.88159e-10
4.39373e-10
8.17274e-10
1.2333e-09
1.92759e-10
5.27108e-11
6.56565e-10
1.44499e-09
1.44516e-09
9.91779e-10
6.10482e-10
3.09487e-10
2.5668e-10
3.90074e-10
4.22838e-10
4.44804e-10
3.77052e-10
4.24542e-10
4.76261e-10
4.22207e-10
2.64646e-10
2.91382e-10
4.0946e-10
4.6068e-10
3.35867e-10
1.03743e-10
6.62444e-11
1.92648e-10
2.61667e-10
2.97431e-10
2.26685e-10
1.4871e-10
8.42652e-11
5.6877e-11
2.61585e-10
5.34316e-10
3.81412e-10
2.83871e-10
3.27862e-10
5.30894e-10
4.50704e-10
3.40288e-10
6.14404e-10
1.03977e-09
2.17872e-10
4.20163e-11
2.13855e-10
8.31476e-10
1.11127e-09
7.63962e-10
5.06246e-10
3.29262e-10
4.20336e-10
5.98691e-10
8.44594e-10
1.03701e-09
6.43431e-10
3.36032e-10
3.49397e-10
3.74411e-10
2.22465e-10
2.57788e-10
4.80059e-10
6.68933e-10
3.08202e-10
7.98313e-11
6.1663e-11
1.00042e-10
2.55893e-10
3.79183e-10
3.55572e-10
1.80047e-10
7.27431e-11
5.60835e-11
1.85895e-10
5.63751e-10
6.03505e-10
5.3534e-10
5.36806e-10
5.98936e-10
4.89519e-10
3.79329e-10
5.78165e-10
9.1577e-10
2.74801e-10
9.27693e-11
3.30007e-10
6.32048e-10
8.39315e-10
8.26823e-10
6.25088e-10
4.7323e-10
5.26447e-10
5.67382e-10
7.03274e-10
1.08499e-09
1.0366e-09
8.12823e-10
6.10558e-10
3.97056e-10
2.1743e-10
2.12457e-10
3.21806e-10
3.94293e-10
1.29026e-10
1.19839e-10
6.60187e-11
1.44902e-10
2.17892e-10
2.78541e-10
2.57856e-10
2.17189e-10
1.36085e-10
6.30855e-11
1.52295e-11
1.69555e-10
2.84629e-10
2.1889e-10
3.11809e-10
6.9673e-10
7.81931e-10
4.36005e-10
3.22262e-10
4.83475e-10
1.43194e-10
4.06254e-11
1.17136e-10
3.77981e-10
5.69674e-10
7.51539e-10
6.63133e-10
6.28305e-10
6.54572e-10
6.75457e-10
7.93537e-10
1.12376e-09
9.23058e-10
4.67062e-10
4.20935e-10
4.28351e-10
3.1303e-10
3.10662e-10
3.81648e-10
3.15398e-10
1.61457e-10
9.36739e-11
8.6487e-11
1.68914e-10
3.10563e-10
2.96012e-10
2.23977e-10
2.23825e-10
1.94941e-10
1.13738e-10
5.98525e-11
1.14491e-10
2.9627e-10
2.20043e-10
1.63659e-10
2.20404e-10
4.26458e-10
4.05302e-10
2.94656e-10
1.29312e-10
9.21845e-11
1.06467e-10
1.8114e-10
2.16761e-10
4.21196e-10
7.58443e-10
5.25832e-10
3.66299e-10
6.21653e-10
8.46521e-10
9.42363e-10
1.18446e-09
1.59696e-09
1.64213e-09
1.26077e-09
6.88997e-10
3.52185e-10
2.26052e-10
1.25466e-10
1.74152e-10
1.28344e-10
1.09538e-10
9.9507e-11
1.37407e-10
2.01061e-10
2.24277e-10
2.08138e-10
1.82828e-10
1.52576e-10
1.11159e-10
8.79151e-11
7.45023e-11
8.58108e-11
2.00266e-10
2.86593e-10
3.49405e-10
4.28992e-10
3.81518e-10
3.00504e-10
1.78778e-10
7.77293e-11
1.75001e-11
1.54717e-10
4.58093e-10
5.15509e-10
7.4269e-10
6.14888e-10
2.39468e-10
3.07934e-10
7.45381e-10
1.37047e-09
1.94429e-09
1.80142e-09
1.21198e-09
1.06138e-09
1.51837e-09
1.61787e-09
9.7771e-10
5.38809e-10
2.58628e-10
1.68772e-10
1.0906e-10
1.60338e-10
2.3964e-10
2.50005e-10
2.37349e-10
2.77182e-10
2.56864e-10
1.35515e-10
1.56863e-10
3.08738e-10
3.34871e-10
2.28369e-10
1.74169e-10
1.98378e-10
2.36604e-10
2.66572e-10
2.6719e-10
2.18027e-10
1.63438e-10
9.72592e-11
4.11263e-11
1.37397e-11
8.37493e-11
2.84808e-10
6.11207e-10
7.49954e-10
7.93223e-10
9.58556e-10
1.28115e-09
1.70935e-09
2.15909e-09
2.33711e-09
1.99867e-09
1.43286e-09
9.40775e-10
6.72954e-10
5.97853e-10
5.47172e-10
3.40322e-10
2.41738e-10
1.47458e-10
8.14387e-11
5.357e-11
8.5557e-11
1.51602e-10
2.54151e-10
2.90895e-10
1.98868e-10
1.24138e-10
1.24415e-10
1.8474e-10
4.77185e-10
5.67986e-10
3.58648e-10
2.1638e-10
1.70168e-10
1.67243e-10
2.05551e-10
2.02032e-10
1.95189e-10
1.24223e-10
2.71611e-11
9.02465e-11
1.83325e-10
3.90018e-10
5.00056e-10
5.20721e-10
7.40986e-10
1.002e-09
1.33801e-09
1.6966e-09
1.78477e-09
1.68333e-09
1.66773e-09
1.63226e-09
1.19369e-09
6.38602e-10
4.6884e-10
4.60315e-10
3.30524e-10
2.55616e-10
2.61594e-10
3.80936e-10
5.71437e-10
7.33555e-10
7.97247e-10
6.65518e-10
2.89822e-10
9.57296e-11
2.80398e-10
3.85544e-10
4.15227e-10
5.87695e-10
8.25048e-10
7.07096e-10
4.10658e-10
1.78521e-10
3.43025e-10
4.9071e-10
3.57526e-10
5.4245e-10
5.66177e-10
1.79602e-10
7.12562e-11
2.45143e-10
3.83308e-10
3.71591e-10
5.38268e-10
7.56888e-10
1.29899e-09
2.11863e-09
2.56547e-09
2.2434e-09
1.68177e-09
1.22072e-09
9.25215e-10
6.56209e-10
4.82177e-10
4.63083e-10
6.99835e-11
3.83394e-15
1.15976e-10
3.55225e-10
4.71687e-10
3.35536e-10
2.43933e-10
1.35988e-10
4.26632e-11
1.1037e-10
1.95267e-10
2.22972e-10
2.54586e-10
2.37976e-10
2.21653e-10
4.02626e-10
5.89252e-10
5.38739e-10
2.63537e-10
1.20753e-10
3.06023e-10
7.42796e-10
9.45562e-10
1.21365e-09
1.75006e-09
1.62048e-09
1.11483e-09
9.71284e-10
1.0073e-09
6.50992e-10
2.02842e-10
2.1365e-10
4.74211e-10
6.56464e-10
9.25307e-10
1.88992e-09
1.90005e-09
1.06272e-09
4.79431e-10
2.0681e-10
7.42068e-11
5.78755e-14
1.08902e-10
3.46345e-10
4.68661e-10
3.2994e-10
2.4254e-10
1.35888e-10
4.1722e-11
1.08369e-10
1.9305e-10
2.2272e-10
2.54638e-10
2.37398e-10
2.13893e-10
4.00051e-10
5.93378e-10
5.43503e-10
2.64654e-10
1.15319e-10
2.85176e-10
7.0185e-10
8.96494e-10
1.16225e-09
1.71085e-09
1.60862e-09
1.10805e-09
9.64472e-10
1.00324e-09
6.50674e-10
1.97115e-10
2.02804e-10
4.67353e-10
6.61395e-10
9.35385e-10
2.01759e-09
2.00508e-09
1.11006e-09
4.81999e-10
2.08523e-10
7.54305e-11
6.23606e-13
1.1661e-10
3.60462e-10
4.81231e-10
3.34253e-10
2.45966e-10
1.3987e-10
4.36208e-11
1.13745e-10
1.96051e-10
2.2403e-10
2.55905e-10
2.37003e-10
2.04402e-10
3.96528e-10
5.9346e-10
5.47592e-10
2.64339e-10
1.12904e-10
2.84115e-10
7.09991e-10
9.0832e-10
1.16879e-09
1.73167e-09
1.64664e-09
1.12686e-09
9.67538e-10
1.00403e-09
6.62837e-10
1.97736e-10
1.89718e-10
4.44556e-10
6.35295e-10
9.32168e-10
2.07418e-09
2.04177e-09
1.13132e-09
4.99298e-10
2.19977e-10
7.50962e-11
2.07232e-12
1.20601e-10
3.71434e-10
4.94741e-10
3.40086e-10
2.50775e-10
1.51993e-10
4.56825e-11
1.19562e-10
1.99371e-10
2.26768e-10
2.60558e-10
2.38562e-10
1.92817e-10
3.90352e-10
5.93522e-10
5.55396e-10
2.64736e-10
1.07862e-10
2.77106e-10
7.04226e-10
8.982e-10
1.14906e-09
1.73027e-09
1.67066e-09
1.1318e-09
9.57495e-10
9.88221e-10
6.65269e-10
1.96754e-10
1.73902e-10
4.16866e-10
6.04985e-10
9.71979e-10
2.14559e-09
2.12764e-09
1.19038e-09
5.28353e-10
2.27245e-10
7.27522e-11
4.5662e-12
1.28196e-10
3.82653e-10
5.08419e-10
3.4684e-10
2.53307e-10
1.59045e-10
4.98279e-11
1.24724e-10
2.04335e-10
2.29488e-10
2.68767e-10
2.4391e-10
1.80425e-10
3.80377e-10
6.00157e-10
5.63647e-10
2.67317e-10
1.04602e-10
2.7533e-10
7.10325e-10
9.07376e-10
1.13341e-09
1.70507e-09
1.69148e-09
1.13861e-09
9.50486e-10
9.68623e-10
6.60943e-10
1.92778e-10
1.56336e-10
3.79712e-10
5.56062e-10
9.65418e-10
2.17206e-09
2.21032e-09
1.27287e-09
5.73566e-10
2.315e-10
6.89194e-11
6.26433e-12
1.23922e-10
3.90527e-10
5.28599e-10
3.61102e-10
2.54741e-10
1.563e-10
5.3247e-11
1.2344e-10
2.07562e-10
2.34262e-10
2.75292e-10
2.54324e-10
1.6859e-10
3.68047e-10
6.04252e-10
5.74649e-10
2.72404e-10
1.05222e-10
2.85751e-10
7.13676e-10
8.883e-10
1.13294e-09
1.75306e-09
1.73487e-09
1.11243e-09
9.2117e-10
9.51939e-10
6.68687e-10
1.8813e-10
1.35317e-10
3.37657e-10
4.77399e-10
9.12635e-10
2.1883e-09
2.2592e-09
1.38842e-09
6.53525e-10
2.3199e-10
6.05045e-11
1.1766e-11
1.0601e-10
3.43873e-10
4.96207e-10
3.53027e-10
2.53526e-10
1.48187e-10
7.05893e-11
1.41837e-10
2.03267e-10
2.39994e-10
2.75982e-10
2.6043e-10
1.58211e-10
3.51137e-10
6.01189e-10
5.82212e-10
2.76689e-10
1.02199e-10
2.93558e-10
7.21143e-10
8.20503e-10
9.71512e-10
1.59517e-09
1.75381e-09
1.17649e-09
9.44593e-10
9.57127e-10
6.86728e-10
1.92318e-10
1.13953e-10
2.83535e-10
4.06372e-10
8.31293e-10
2.17735e-09
2.35883e-09
1.52056e-09
7.87919e-10
2.50116e-10
5.9357e-11
2.75359e-11
1.22987e-10
3.33289e-10
4.88765e-10
3.49855e-10
2.5106e-10
1.50804e-10
8.23924e-11
1.9017e-10
2.35796e-10
2.61038e-10
2.79992e-10
2.64498e-10
1.46641e-10
3.27878e-10
5.884e-10
5.79281e-10
2.7361e-10
8.38994e-11
2.66266e-10
6.96228e-10
7.36075e-10
8.34035e-10
1.34444e-09
1.51704e-09
1.0404e-09
9.04436e-10
1.0071e-09
7.95182e-10
2.41168e-10
1.13601e-10
2.31608e-10
3.14196e-10
7.14187e-10
2.1417e-09
2.46698e-09
1.72006e-09
9.32893e-10
2.92997e-10
4.69799e-11
5.01296e-11
1.49257e-10
3.53546e-10
5.16415e-10
3.8467e-10
2.7014e-10
1.6903e-10
8.99338e-11
1.70828e-10
2.35232e-10
2.73399e-10
2.82002e-10
2.58583e-10
1.35877e-10
2.86601e-10
5.35914e-10
5.4157e-10
2.60195e-10
6.30866e-11
1.8482e-10
6.57993e-10
6.67479e-10
7.15935e-10
1.1378e-09
1.30705e-09
8.53169e-10
7.79069e-10
9.50704e-10
8.19076e-10
3.04952e-10
1.28829e-10
2.11232e-10
2.44643e-10
5.41899e-10
2.09201e-09
2.51478e-09
1.94414e-09
1.09757e-09
3.11094e-10
2.81136e-11
8.10627e-11
1.54165e-10
3.08767e-10
4.81546e-10
3.84734e-10
2.87282e-10
1.97101e-10
1.38193e-10
2.0869e-10
2.46007e-10
2.75162e-10
2.69153e-10
2.38891e-10
1.26399e-10
2.45499e-10
4.725e-10
4.86657e-10
2.45016e-10
7.12437e-11
8.87556e-11
5.23828e-10
5.55131e-10
6.12868e-10
9.68357e-10
1.01956e-09
6.26939e-10
7.20324e-10
1.06337e-09
9.50574e-10
3.82506e-10
1.75698e-10
2.1918e-10
2.22359e-10
3.23027e-10
1.83977e-09
2.46465e-09
2.10386e-09
1.36541e-09
3.60449e-10
1.63831e-11
1.10336e-10
1.90774e-10
2.87992e-10
4.23385e-10
3.59573e-10
3.04392e-10
2.31648e-10
1.92796e-10
2.77822e-10
2.85715e-10
2.8764e-10
2.56803e-10
2.0071e-10
1.10384e-10
2.07571e-10
3.82212e-10
3.92482e-10
2.09686e-10
7.38898e-11
4.6174e-11
4.15177e-10
4.38071e-10
4.72718e-10
7.60413e-10
7.27851e-10
4.46788e-10
6.77143e-10
1.22513e-09
1.248e-09
6.48316e-10
3.05025e-10
3.49685e-10
2.92591e-10
2.74025e-10
1.47382e-09
2.29165e-09
2.09832e-09
1.73046e-09
5.37823e-10
3.88482e-11
1.16554e-10
1.70993e-10
2.20361e-10
3.53245e-10
3.1698e-10
2.87796e-10
2.35826e-10
1.9038e-10
2.89339e-10
2.91772e-10
2.79454e-10
2.6136e-10
1.79959e-10
8.76836e-11
1.54398e-10
2.97459e-10
3.03321e-10
1.65409e-10
5.22453e-11
6.45813e-11
3.87992e-10
3.87308e-10
4.08638e-10
6.25463e-10
5.38284e-10
2.57839e-10
5.01528e-10
1.32212e-09
1.37617e-09
8.39811e-10
5.10003e-10
5.77294e-10
4.74975e-10
3.81206e-10
1.41049e-09
2.21149e-09
1.93405e-09
2.01512e-09
8.09173e-10
1.32013e-10
3.59043e-11
1.94081e-10
1.44551e-10
2.2137e-10
2.26787e-10
2.4229e-10
2.15858e-10
1.51878e-10
2.71268e-10
3.18988e-10
3.00824e-10
2.93924e-10
1.70585e-10
7.59681e-11
1.04844e-10
2.27144e-10
2.34363e-10
1.24086e-10
4.15328e-11
1.21663e-10
5.02233e-10
4.41225e-10
3.43472e-10
5.02439e-10
4.72715e-10
2.62095e-10
3.14407e-10
1.12549e-09
1.61952e-09
1.23217e-09
8.39114e-10
8.00846e-10
7.31406e-10
5.98836e-10
1.5309e-09
2.23318e-09
1.69115e-09
2.05113e-09
1.09789e-09
2.15632e-10
6.63282e-12
9.44942e-11
8.16029e-11
1.35805e-10
1.71455e-10
2.17429e-10
2.14882e-10
1.34844e-10
2.62283e-10
3.09588e-10
2.79988e-10
3.07434e-10
1.77788e-10
8.52512e-11
1.20476e-10
2.04489e-10
1.30889e-10
9.67744e-11
4.36756e-11
8.36027e-11
3.91773e-10
4.38127e-10
2.81588e-10
4.22496e-10
4.04565e-10
2.47486e-10
2.65378e-10
9.08476e-10
1.30987e-09
1.1865e-09
1.19533e-09
1.26631e-09
9.91311e-10
6.72703e-10
1.3552e-09
2.09646e-09
1.34387e-09
1.83574e-09
1.23671e-09
3.24946e-10
4.66767e-11
1.35548e-10
7.07004e-11
7.74772e-11
1.22466e-10
1.89527e-10
1.9597e-10
1.04399e-10
2.75918e-10
3.94086e-10
3.41949e-10
3.56964e-10
2.59607e-10
1.87662e-10
1.72512e-10
2.44714e-10
1.59961e-10
6.56698e-11
4.98509e-11
6.16066e-11
2.74251e-10
4.1449e-10
1.78749e-10
3.01858e-10
3.61033e-10
2.9986e-10
2.72154e-10
5.99426e-10
1.09935e-09
1.01841e-09
8.07465e-10
9.49557e-10
9.95259e-10
8.52005e-10
9.89563e-10
1.49795e-09
1.00604e-09
1.39833e-09
1.34104e-09
3.09029e-10
8.42808e-11
5.16749e-11
3.69868e-11
8.90987e-11
1.00143e-10
1.72601e-10
1.49943e-10
1.27233e-10
2.85991e-10
3.19999e-10
2.70981e-10
2.93755e-10
2.63286e-10
2.05883e-10
2.35026e-10
4.53211e-10
2.73219e-10
2.85127e-11
1.01511e-10
1.38366e-10
4.14107e-10
8.047e-10
4.28342e-10
3.40565e-10
3.85008e-10
3.13615e-10
3.44464e-10
7.70785e-10
1.07638e-09
1.17454e-09
1.31007e-09
1.58404e-09
1.29501e-09
8.90795e-10
9.7431e-10
1.27326e-09
7.2426e-10
8.04739e-10
9.04948e-10
3.58562e-10
6.57772e-10
5.00051e-10
9.21628e-11
9.78678e-11
5.68384e-11
1.61941e-10
1.1834e-10
6.60224e-11
2.40901e-10
3.71983e-10
3.1816e-10
3.30061e-10
3.32435e-10
2.86644e-10
2.89602e-10
3.7612e-10
2.58518e-10
3.2753e-11
2.46947e-10
2.39504e-10
4.47416e-10
8.84532e-10
4.63567e-10
2.32058e-10
3.88087e-10
3.85725e-10
4.12951e-10
7.13715e-10
1.09178e-09
1.2991e-09
1.21643e-09
1.42895e-09
1.87547e-09
1.34677e-09
1.02033e-09
1.37156e-09
1.09273e-09
4.73681e-10
5.39696e-10
3.43225e-10
6.08136e-10
8.30791e-10
2.56517e-10
2.02161e-10
2.05004e-10
1.75473e-10
1.23459e-10
1.201e-10
5.07897e-10
5.36787e-10
3.37594e-10
3.29716e-10
3.28823e-10
2.82852e-10
2.94956e-10
3.33128e-10
3.01524e-10
3.3911e-11
3.09224e-10
3.51394e-10
5.01965e-10
7.95057e-10
6.64021e-10
4.18405e-10
4.46521e-10
4.2912e-10
4.94291e-10
8.74493e-10
1.30396e-09
1.55355e-09
1.73665e-09
1.7726e-09
1.4706e-09
1.0677e-09
8.63401e-10
1.08909e-09
9.25315e-10
4.30653e-10
3.41971e-10
4.22267e-10
1.25002e-09
1.27256e-09
6.85854e-10
3.14815e-10
2.88827e-10
1.92285e-10
1.38033e-10
5.75407e-11
1.21593e-10
5.39442e-10
8.92499e-10
9.45086e-10
6.15066e-10
3.95346e-10
3.02848e-10
3.05921e-10
2.83187e-10
1.30728e-10
3.66836e-10
5.69333e-10
8.88635e-10
1.15256e-09
7.21391e-10
3.65931e-10
4.19506e-10
4.7996e-10
5.81107e-10
8.32614e-10
1.185e-09
1.43304e-09
1.74016e-09
1.99508e-09
1.98061e-09
1.55831e-09
9.01073e-10
5.99533e-10
6.53178e-10
2.76488e-10
2.39791e-10
2.23137e-10
1.9643e-10
2.07824e-10
4.27441e-10
5.02606e-10
4.45179e-10
3.00994e-10
2.22127e-10
1.23585e-10
7.39976e-11
1.74023e-10
2.41637e-10
4.94871e-10
6.90327e-10
4.75137e-10
3.61251e-10
4.11752e-10
3.44059e-10
2.26257e-10
9.09483e-11
5.87768e-11
2.39856e-10
9.11128e-10
1.16169e-09
7.68037e-10
6.82137e-10
7.39899e-10
8.30349e-10
8.93396e-10
9.86519e-10
1.01555e-09
1.24237e-09
1.26943e-09
1.02724e-09
9.82644e-10
9.38808e-10
7.20777e-10
6.60352e-10
5.24177e-10
2.54399e-10
2.16701e-10
3.85913e-10
3.74376e-10
2.10099e-10
3.02105e-10
2.99387e-10
2.4056e-10
3.12824e-10
2.86967e-10
9.50094e-11
1.26523e-10
3.3367e-10
5.91673e-10
7.61213e-10
5.98136e-10
3.558e-10
2.31709e-10
2.56505e-10
2.6689e-10
1.68146e-10
1.46491e-10
2.7428e-10
4.97976e-10
5.82962e-10
6.13914e-10
5.14214e-10
4.1433e-10
6.41656e-10
9.80477e-10
1.35052e-09
1.3834e-09
1.22179e-09
1.31497e-09
1.54937e-09
1.49373e-09
8.80624e-10
4.18157e-10
2.30655e-10
1.69693e-10
1.40601e-10
1.72806e-10
2.81681e-10
4.49096e-10
3.88469e-10
2.62297e-10
2.24736e-10
1.78757e-10
1.72459e-10
2.42382e-10
2.65501e-10
1.94231e-10
8.5003e-11
5.31194e-11
1.83197e-10
3.38205e-10
3.98209e-10
3.66835e-10
3.09902e-10
3.0109e-10
2.54865e-10
1.46216e-10
1.54104e-10
4.59476e-10
7.15854e-10
6.30171e-10
6.95574e-10
5.4565e-10
4.57154e-10
6.9777e-10
1.14236e-09
1.37727e-09
1.43234e-09
1.21901e-09
7.80548e-10
8.84565e-10
1.4842e-09
1.37474e-09
7.9931e-10
4.65805e-10
2.55857e-10
2.28249e-10
1.70628e-10
1.36514e-10
1.72046e-10
2.27968e-10
2.5747e-10
2.67623e-10
1.94805e-10
1.3602e-10
2.95695e-10
4.49924e-10
4.34266e-10
2.73618e-10
1.85898e-10
2.06837e-10
2.5393e-10
2.22453e-10
1.81773e-10
1.59472e-10
1.26998e-10
1.20545e-10
8.08772e-11
1.27891e-10
2.39118e-10
3.32448e-10
4.80013e-10
5.33414e-10
5.43432e-10
7.41123e-10
1.13434e-09
1.39986e-09
1.5157e-09
1.59644e-09
1.49346e-09
1.23819e-09
9.8869e-10
7.57483e-10
6.21248e-10
5.20196e-10
3.6359e-10
3.64171e-10
3.12047e-10
2.04149e-10
1.03482e-10
9.41826e-11
1.36733e-10
2.4529e-10
3.36547e-10
2.58675e-10
1.22401e-10
1.2691e-10
3.28136e-10
7.43693e-10
8.30634e-10
5.87159e-10
3.67152e-10
2.41803e-10
1.87688e-10
1.66907e-10
1.41468e-10
1.05734e-10
6.04461e-11
6.12462e-11
1.11389e-10
1.92171e-10
3.35652e-10
4.41747e-10
5.07012e-10
8.4019e-10
1.18152e-09
1.38761e-09
1.51325e-09
1.46068e-09
1.32328e-09
1.32614e-09
1.38966e-09
1.07972e-09
6.69355e-10
5.38503e-10
4.77235e-10
2.39795e-10
1.10599e-10
9.60529e-11
1.681e-10
3.39838e-10
5.18004e-10
6.12364e-10
5.80817e-10
3.04933e-10
1.00609e-10
2.71411e-10
4.35573e-10
6.14576e-10
9.95242e-10
1.34582e-09
1.16184e-09
6.56449e-10
2.92053e-10
2.38183e-10
3.21627e-10
2.71459e-10
2.20625e-10
2.1565e-10
7.31316e-11
9.89885e-11
3.03825e-10
4.38597e-10
5.76681e-10
9.95474e-10
1.29709e-09
1.60517e-09
2.15911e-09
2.49835e-09
2.26441e-09
1.77468e-09
1.37274e-09
1.07588e-09
7.96891e-10
6.06083e-10
4.44612e-10
8.48653e-11
2.81483e-11
8.46759e-11
6.59027e-11
7.53099e-11
3.07121e-10
3.03712e-10
1.67962e-10
9.03705e-11
1.79194e-10
2.80677e-10
3.2214e-10
3.38657e-10
4.89009e-10
7.06e-10
4.72872e-10
2.99967e-10
2.31295e-10
1.74864e-10
1.24816e-10
2.48125e-10
8.27191e-10
1.17395e-09
1.06219e-09
7.76297e-10
4.85568e-10
4.59316e-10
6.83736e-10
6.20094e-10
6.78473e-10
2.11249e-09
4.15263e-09
3.63001e-09
2.66068e-09
2.2556e-09
1.91205e-09
1.5075e-09
1.23901e-09
6.76127e-10
2.9894e-10
8.60624e-11
2.6329e-11
8.1045e-11
6.60474e-11
7.55026e-11
3.10577e-10
3.09189e-10
1.71369e-10
9.40942e-11
1.85826e-10
2.87956e-10
3.26878e-10
3.43736e-10
4.92966e-10
7.14219e-10
4.74707e-10
2.97135e-10
2.28316e-10
1.71427e-10
1.19616e-10
2.33542e-10
7.96835e-10
1.13922e-09
1.02915e-09
7.48168e-10
4.65132e-10
4.40619e-10
6.59152e-10
5.87595e-10
6.27523e-10
2.02805e-09
4.10664e-09
3.6325e-09
2.70452e-09
2.28559e-09
1.95809e-09
1.55961e-09
1.29417e-09
7.21279e-10
3.07117e-10
8.69899e-11
2.46777e-11
7.98422e-11
6.75351e-11
7.54253e-11
3.14581e-10
3.11957e-10
1.72997e-10
9.41678e-11
1.85978e-10
2.89413e-10
3.28575e-10
3.46925e-10
5.0331e-10
7.40058e-10
4.97887e-10
3.00225e-10
2.28837e-10
1.72788e-10
1.20562e-10
2.31089e-10
8.02569e-10
1.15836e-09
1.05275e-09
7.66826e-10
4.71793e-10
4.48714e-10
6.68292e-10
5.97548e-10
6.31264e-10
2.05881e-09
4.2284e-09
3.8211e-09
2.79357e-09
2.33453e-09
1.98453e-09
1.55852e-09
1.29165e-09
7.32453e-10
3.12931e-10
8.62131e-11
2.21108e-11
7.80994e-11
6.97009e-11
7.53923e-11
3.21676e-10
3.1873e-10
1.77543e-10
9.59879e-11
1.89068e-10
2.95434e-10
3.3416e-10
3.5228e-10
5.16593e-10
7.73872e-10
5.23722e-10
3.05145e-10
2.29457e-10
1.73502e-10
1.19805e-10
2.23017e-10
7.97285e-10
1.19291e-09
1.06005e-09
7.78848e-10
4.73359e-10
4.50017e-10
6.5736e-10
5.74147e-10
5.84809e-10
2.01259e-09
4.35034e-09
4.00869e-09
2.90067e-09
2.4239e-09
2.05973e-09
1.60082e-09
1.32857e-09
7.636e-10
3.18739e-10
8.42268e-11
1.92958e-11
7.72271e-11
7.38021e-11
7.46709e-11
3.29712e-10
3.25486e-10
1.82027e-10
9.69384e-11
1.90342e-10
3.03161e-10
3.4194e-10
3.59942e-10
5.35271e-10
8.19398e-10
5.54403e-10
3.07107e-10
2.33163e-10
1.78885e-10
1.25589e-10
2.20988e-10
7.96066e-10
1.22965e-09
1.07181e-09
8.06172e-10
4.85621e-10
4.711e-10
6.82109e-10
5.69177e-10
5.29649e-10
1.93541e-09
4.55178e-09
4.22802e-09
3.04152e-09
2.5492e-09
2.16197e-09
1.65377e-09
1.37248e-09
7.99192e-10
3.29568e-10
8.18174e-11
1.63356e-11
7.76154e-11
7.79813e-11
7.47356e-11
3.39491e-10
3.30439e-10
1.86036e-10
9.85213e-11
1.87983e-10
3.08664e-10
3.48993e-10
3.65857e-10
5.54962e-10
8.76115e-10
5.92763e-10
3.13045e-10
2.38933e-10
1.84795e-10
1.27988e-10
2.24189e-10
8.46843e-10
1.32107e-09
1.12391e-09
8.38345e-10
5.06673e-10
5.01324e-10
7.3379e-10
6.08054e-10
4.89601e-10
1.79903e-09
4.74226e-09
4.46766e-09
3.22472e-09
2.72998e-09
2.31384e-09
1.73319e-09
1.43513e-09
8.40344e-10
3.45369e-10
8.38505e-11
1.25904e-11
7.81537e-11
9.17775e-11
6.74432e-11
3.43554e-10
3.38452e-10
1.88669e-10
1.03229e-10
1.86328e-10
3.06403e-10
3.53949e-10
3.69442e-10
5.71207e-10
9.40653e-10
6.41393e-10
3.25912e-10
2.51781e-10
2.01443e-10
1.32984e-10
1.94388e-10
8.14681e-10
1.4218e-09
1.25785e-09
9.09343e-10
5.51771e-10
5.47602e-10
8.69569e-10
7.11452e-10
4.78786e-10
1.64195e-09
4.82865e-09
4.82407e-09
3.45612e-09
2.99437e-09
2.54759e-09
1.85428e-09
1.51236e-09
8.88229e-10
3.68874e-10
9.22384e-11
9.35051e-12
7.40286e-11
1.08636e-10
5.91319e-11
3.16837e-10
3.1834e-10
1.82287e-10
1.12273e-10
2.15591e-10
3.22584e-10
3.541e-10
3.59453e-10
5.64209e-10
1.00565e-09
7.06869e-10
3.4994e-10
2.74725e-10
2.33521e-10
1.47625e-10
1.60093e-10
7.30085e-10
1.35024e-09
1.24302e-09
9.58737e-10
5.97112e-10
5.58175e-10
9.17814e-10
9.09211e-10
5.63594e-10
1.54269e-09
4.83768e-09
5.27397e-09
3.66632e-09
3.38332e-09
2.92319e-09
2.03408e-09
1.62083e-09
9.5061e-10
3.81957e-10
1.09164e-10
8.5268e-12
6.18819e-11
1.05857e-10
5.65258e-11
2.93431e-10
2.81912e-10
1.73785e-10
1.08217e-10
2.37383e-10
3.54829e-10
3.70118e-10
3.53915e-10
5.64774e-10
1.07755e-09
7.90424e-10
3.86975e-10
3.08336e-10
2.79382e-10
1.68915e-10
1.17906e-10
6.66414e-10
1.37201e-09
1.24732e-09
1.00018e-09
6.85337e-10
6.62275e-10
9.52461e-10
8.58656e-10
5.99786e-10
1.43683e-09
4.65806e-09
5.5145e-09
3.64034e-09
3.80555e-09
3.36432e-09
2.32694e-09
1.775e-09
1.02411e-09
4.33754e-10
1.19837e-10
4.07515e-12
5.09896e-11
1.17313e-10
5.5527e-11
2.82395e-10
2.71266e-10
1.75825e-10
9.86846e-11
2.01173e-10
3.11548e-10
3.4133e-10
3.30561e-10
5.72865e-10
1.15471e-09
8.9662e-10
4.3955e-10
3.45558e-10
3.25266e-10
1.87276e-10
6.19933e-11
4.95708e-10
1.31546e-09
1.19828e-09
9.76374e-10
7.44649e-10
7.75017e-10
1.1132e-09
9.22135e-10
5.00321e-10
1.29083e-09
4.38218e-09
5.38424e-09
3.52535e-09
3.89754e-09
4.09659e-09
2.75656e-09
1.99263e-09
1.13899e-09
5.07921e-10
1.99173e-10
2.97428e-12
9.07526e-12
5.05562e-11
8.01192e-11
2.83357e-10
2.68943e-10
1.91743e-10
9.9055e-11
1.81197e-10
2.62561e-10
2.70117e-10
2.37444e-10
4.45063e-10
1.15295e-09
9.99306e-10
5.08629e-10
3.94144e-10
3.92142e-10
2.30583e-10
5.75843e-11
2.95128e-10
1.26982e-09
1.17702e-09
9.64982e-10
8.14186e-10
9.11113e-10
1.2214e-09
1.16304e-09
4.94019e-10
8.08687e-10
3.56512e-09
4.82414e-09
3.12403e-09
3.4296e-09
4.59641e-09
3.36673e-09
2.37283e-09
1.32036e-09
6.42935e-10
3.00854e-10
1.83558e-11
9.82279e-12
2.12204e-11
1.27711e-10
3.65611e-10
3.41765e-10