/*--------------------------------*- C++ -*----------------------------------*\
| =========                 |                                                 |
| \\      /  F ield         | OpenFOAM: The Open Source CFD Toolbox           |
|  \\    /   O peration     | Version:  2306                                  |
|   \\  /    A nd           | Website:  www.openfoam.com                      |
|    \\/     M anipulation  |                                                 |
\*---------------------------------------------------------------------------*/
FoamFile
{
    version     2.0;
    format      ascii;
    arch        "LSB;label=32;scalar=64";
    class       volVectorField;
    location    "0.5";
    object      U;
}
// * * * * * * * * * * * * * * * * * * * * * * * * * * * * * * * * * * * * * //

dimensions      [0 1 -1 0 0 0 0];

internalField   nonuniform List<vector> 
60000
(
(0.0106429 -1.60375e-05 0.00224108)
(0.0106139 -2.5001e-05 0.00188621)
(0.0105024 -1.96215e-05 0.00174855)
(0.0103601 -1.37076e-05 0.00175731)
(0.0101416 -1.48321e-05 0.00169335)
(0.00966823 -1.57868e-05 0.00146447)
(0.00879894 -1.24238e-05 0.00120002)
(0.00760345 -1.08899e-05 0.00106094)
(0.00649109 -1.46344e-05 0.00107155)
(0.00589547 -2.50094e-05 0.00118937)
(0.00580045 -3.25607e-05 0.00132339)
(0.00590865 -3.03541e-05 0.00128471)
(0.00601157 -2.38302e-05 0.00098293)
(0.00608728 -1.38357e-05 0.000578366)
(0.00621425 -1.66598e-06 0.000253376)
(0.00641266 9.26982e-06 2.84624e-05)
(0.00667162 1.90668e-05 -0.000164763)
(0.00699375 2.22127e-05 -0.00040839)
(0.00736753 1.91181e-05 -0.000761568)
(0.00780675 1.29423e-05 -0.00123397)
(0.00836771 8.81265e-06 -0.00178237)
(0.00900133 6.23859e-06 -0.00228401)
(0.00951809 3.67279e-06 -0.00258817)
(0.00968885 -1.6213e-06 -0.0026385)
(0.00932608 -4.22733e-06 -0.00251671)
(0.00848017 3.66567e-06 -0.00233947)
(0.00753303 3.8718e-07 -0.00218083)
(0.0068445 -1.02234e-05 -0.00211092)
(0.00643582 -9.13128e-06 -0.00212682)
(0.00624509 2.91211e-06 -0.00209421)
(0.0063379 1.08537e-05 -0.00184427)
(0.00673037 1.98395e-05 -0.00125939)
(0.0073141 3.44174e-05 -0.000449494)
(0.00796093 4.7895e-05 0.000255604)
(0.00862395 5.66261e-05 0.0007061)
(0.00929002 5.7137e-05 0.0011232)
(0.00986201 6.29609e-05 0.00167234)
(0.0102364 6.0931e-05 0.00226611)
(0.0104462 4.11771e-05 0.00265494)
(0.0105774 9.28415e-06 0.00260882)
(0.0329226 -0.000207196 0.00556884)
(0.0327015 -0.000235267 0.00464389)
(0.0322722 -0.000191325 0.00441071)
(0.031826 -0.000138801 0.00462138)
(0.0311451 -9.36884e-05 0.00460306)
(0.0296902 -3.79088e-05 0.00403774)
(0.0271798 3.4978e-06 0.00329042)
(0.0238873 -2.68017e-05 0.00289956)
(0.0207894 -0.000144495 0.00298542)
(0.0188739 -0.000274086 0.00331694)
(0.0181686 -0.000313298 0.00352331)
(0.0180376 -0.000263026 0.00322022)
(0.018027 -0.000186513 0.00238313)
(0.0181155 -0.000106988 0.00143873)
(0.018453 -2.72369e-05 0.000717173)
(0.0190426 3.97796e-05 0.000180944)
(0.0198748 7.87584e-05 -0.000348624)
(0.0209734 7.47139e-05 -0.00104661)
(0.0223024 3.67646e-05 -0.00203713)
(0.0238625 -1.39108e-05 -0.00334958)
(0.0257064 -4.65373e-05 -0.00486932)
(0.0276291 -4.0945e-05 -0.0062535)
(0.0291628 -1.60386e-05 -0.00706504)
(0.0297413 2.59374e-06 -0.00709986)
(0.028865 1.58105e-05 -0.00655274)
(0.026674 3.98904e-06 -0.00586744)
(0.0240844 -8.13036e-05 -0.00543124)
(0.0218517 -0.000175512 -0.00539836)
(0.0201295 -0.000187857 -0.00559316)
(0.0190952 -0.000134839 -0.00557375)
(0.0191035 -6.07151e-05 -0.00487931)
(0.0201408 5.31117e-05 -0.00328262)
(0.0218045 0.000206376 -0.00115484)
(0.0237071 0.000343888 0.000719453)
(0.0257101 0.000411166 0.00204903)
(0.02774 0.00041351 0.00329082)
(0.0295756 0.000392372 0.00473626)
(0.0310163 0.000307801 0.00615337)
(0.0320706 0.00013566 0.00695553)
(0.0327288 -7.19283e-05 0.00664316)
(0.0564486 -0.000598301 0.00826512)
(0.0558907 -0.000636903 0.00659981)
(0.0550689 -0.000525212 0.00607798)
(0.0543375 -0.000394518 0.00654524)
(0.0533172 -0.000269663 0.00688258)
(0.0511907 -0.000121893 0.00628861)
(0.0476212 -2.20999e-05 0.00512213)
(0.0428412 -9.09867e-05 0.00435127)
(0.0377781 -0.000369184 0.00443891)
(0.0337974 -0.000679482 0.00502922)
(0.0316159 -0.000769476 0.00534135)
(0.0307148 -0.000647207 0.00481622)
(0.0303058 -0.000459818 0.00359094)
(0.0302002 -0.000267232 0.00231632)
(0.0305811 -8.1696e-05 0.00139038)
(0.0314731 6.62151e-05 0.000703328)
(0.0328734 0.000132374 -2.89184e-06)
(0.0347962 9.54244e-05 -0.000961576)
(0.0371766 -1.98227e-05 -0.00236527)
(0.0399964 -0.000157057 -0.0043159)
(0.0432759 -0.000242413 -0.00671526)
(0.0466466 -0.000222228 -0.00907199)
(0.049439 -0.000149704 -0.0106235)
(0.0508734 -9.1673e-05 -0.0108496)
(0.0501652 -5.64874e-05 -0.00989275)
(0.0473034 -9.99932e-05 -0.00851972)
(0.0433677 -0.000276608 -0.00758595)
(0.0393913 -0.000453439 -0.00750114)
(0.0357643 -0.00047091 -0.00804951)
(0.0330204 -0.000370895 -0.00850667)
(0.032052 -0.000212949 -0.00795257)
(0.0331292 5.40851e-05 -0.00585123)
(0.0356466 0.000425946 -0.00271485)
(0.0388463 0.0007695 0.000264624)
(0.0423628 0.000935816 0.0025476)
(0.045999 0.000949478 0.00461344)
(0.0494594 0.00085059 0.00683186)
(0.0524633 0.000585001 0.00896542)
(0.0548125 0.000150313 0.0102726)
(0.0561952 -0.000316711 0.00994686)
(0.080287 -0.00112782 0.0108796)
(0.0791831 -0.00117489 0.00824222)
(0.0778871 -0.000983798 0.00682296)
(0.0769498 -0.000752757 0.00724033)
(0.0758557 -0.000520076 0.0082265)
(0.0735905 -0.000247314 0.00815772)
(0.0698303 -5.45209e-05 0.00681156)
(0.0645919 -0.000123548 0.00543009)
(0.0580935 -0.000541568 0.0052177)
(0.0514287 -0.00108657 0.0061491)
(0.0464964 -0.00131662 0.00691687)
(0.0439335 -0.0011613 0.00638579)
(0.0427013 -0.000856019 0.00482848)
(0.0421057 -0.000530548 0.00328361)
(0.0422406 -0.000223665 0.00230294)
(0.0431789 1.35287e-05 0.00169874)
(0.0449273 0.000100647 0.00111834)
(0.04747 -1.81057e-06 0.000275317)
(0.0507381 -0.000247435 -0.00110764)
(0.0547571 -0.000541564 -0.00328923)
(0.0595736 -0.000727347 -0.00636185)
(0.0646516 -0.00068721 -0.0098642)
(0.0691138 -0.000519248 -0.0127168)
(0.0720783 -0.000359424 -0.0138444)
(0.0725176 -0.000246025 -0.0129668)
(0.0699917 -0.000284384 -0.0109237)
(0.0653654 -0.000542433 -0.00911976)
(0.0598766 -0.000785631 -0.00852924)
(0.0541906 -0.000791118 -0.00923188)
(0.0489781 -0.000664654 -0.0104982)
(0.0456365 -0.000491266 -0.010958)
(0.0453562 -0.000136802 -0.00934044)
(0.0479226 0.000439144 -0.00586526)
(0.052221 0.00102817 -0.00205111)
(0.0574149 0.00136132 0.00115269)
(0.062992 0.00142125 0.00408246)
(0.0684841 0.00125803 0.00712054)
(0.0735563 0.000776559 0.010106)
(0.0776898 3.49614e-05 0.0123479)
(0.0800606 -0.000703055 0.0127113)
(0.102921 -0.00169224 0.0134447)
(0.100875 -0.00173635 0.010322)
(0.098884 -0.00149057 0.00735764)
(0.0979 -0.00115765 0.00682671)
(0.0971659 -0.000803264 0.00829291)
(0.0953643 -0.000402784 0.00939559)
(0.0922518 -0.000109848 0.00851554)
(0.087819 -0.000114821 0.00644624)
(0.0813092 -0.000550983 0.00534655)
(0.0725072 -0.00128899 0.00636565)
(0.0637531 -0.00178873 0.00810095)
(0.0580477 -0.00174637 0.00810935)
(0.0552027 -0.00137523 0.00624978)
(0.0537342 -0.000919854 0.00426349)
(0.0532525 -0.000492309 0.00321833)
(0.0537929 -0.000170987 0.00291369)
(0.0553565 -7.25e-05 0.00283081)
(0.0578739 -0.000274847 0.00260246)
(0.0612931 -0.00073296 0.00188697)
(0.0658456 -0.00132069 0.000243008)
(0.0719189 -0.00174699 -0.00282885)
(0.0790036 -0.0017197 -0.00731276)
(0.0858218 -0.001352 -0.0120749)
(0.0912267 -0.000937173 -0.0152774)
(0.0940037 -0.000610784 -0.0156635)
(0.0930975 -0.000546554 -0.0135948)
(0.0888159 -0.000855036 -0.0108496)
(0.0825664 -0.00114432 -0.00920255)
(0.0754636 -0.00107953 -0.0093721)
(0.0680778 -0.000885634 -0.0110468)
(0.061606 -0.000763642 -0.0129253)
(0.0580483 -0.000506356 -0.0130168)
(0.0586415 6.89963e-05 -0.0105196)
(0.0627386 0.000774339 -0.0067611)
(0.06912 0.00125838 -0.00309609)
(0.0767623 0.00142712 0.00055691)
(0.0846231 0.00131735 0.00447287)
(0.0921971 0.000712071 0.0084752)
(0.0987078 -0.000283285 0.012108)
(0.102646 -0.00121153 0.0141778)
(0.122355 -0.00222415 0.0144531)
(0.118889 -0.00214709 0.0128622)
(0.115364 -0.00195025 0.00886679)
(0.114475 -0.00157492 0.00626183)
(0.11486 -0.00108059 0.00709285)
(0.114238 -0.000552274 0.00949478)
(0.112223 -0.000190994 0.010125)
(0.109515 -0.000117259 0.007906)
(0.105021 -0.000402174 0.00532996)
(0.0964398 -0.00111145 0.00554525)
(0.0845631 -0.0018915 0.0082898)
(0.0741632 -0.00221325 0.00975955)
(0.0681035 -0.00196242 0.00803393)
(0.0650963 -0.00141862 0.0053305)
(0.0636864 -0.000869626 0.00387317)
(0.0634257 -0.000471777 0.00378177)
(0.0641736 -0.000370543 0.00434258)
(0.0657231 -0.000697607 0.00502919)
(0.067941 -0.00146912 0.00550224)
(0.0712928 -0.00255681 0.00529471)
(0.076953 -0.0035165 0.00355069)
(0.0852523 -0.00375513 -0.000551618)
(0.0949678 -0.00322249 -0.0067179)
(0.104392 -0.00228107 -0.0129689)
(0.111309 -0.00134711 -0.0164618)
(0.113673 -0.000919609 -0.0160037)
(0.111044 -0.00119842 -0.0131673)
(0.10504 -0.00155004 -0.0104425)
(0.0976841 -0.00136777 -0.00938605)
(0.0896308 -0.00096994 -0.0104106)
(0.0812938 -0.000805443 -0.0129146)
(0.0741185 -0.000736088 -0.015052)
(0.070478 -0.000453046 -0.0150537)
(0.0715869 -1.2123e-05 -0.013045)
(0.076871 0.000296638 -0.0101403)
(0.0852147 0.000467922 -0.00650568)
(0.0947902 0.000507699 -0.00212313)
(0.104566 -2.82443e-05 0.00260624)
(0.114046 -0.00109777 0.00761489)
(0.121019 -0.00197146 0.0122251)
(0.135628 -0.00297705 0.0112528)
(0.131996 -0.00215984 0.0137919)
(0.125054 -0.00204725 0.0115082)
(0.12301 -0.00205646 0.00715262)
(0.125704 -0.0014744 0.00563437)
(0.127646 -0.000665553 0.0081206)
(0.126774 -0.000255169 0.010921)
(0.125349 -0.000253075 0.00999968)
(0.12432 -0.000310946 0.00605054)
(0.119634 -0.000622326 0.00424875)
(0.108425 -0.00136477 0.00703079)
(0.0940817 -0.00215521 0.0104868)
(0.08274 -0.00239169 0.0100196)
(0.0765003 -0.00194826 0.0068327)
(0.0736834 -0.00128331 0.00451594)
(0.0725902 -0.000789179 0.00412061)
(0.0724494 -0.000663972 0.00490341)
(0.0727536 -0.00109535 0.0060948)
(0.0730941 -0.00223881 0.00741138)
(0.0738085 -0.00405454 0.00878415)
(0.0766712 -0.00587015 0.00944706)
(0.0834419 -0.00667509 0.00774793)
(0.0937562 -0.00623937 0.00267361)
(0.106468 -0.00492824 -0.00500907)
(0.119389 -0.00308035 -0.0123501)
(0.127593 -0.00169579 -0.0157364)
(0.128113 -0.00164663 -0.014896)
(0.1231 -0.00210424 -0.0123172)
(0.116613 -0.00179297 -0.0101661)
(0.109904 -0.000982653 -0.0096286)
(0.102525 -0.000535466 -0.0112143)
(0.0944019 -0.000506748 -0.014098)
(0.0870693 -0.000548446 -0.0167542)
(0.0830845 -0.000711019 -0.0182652)
(0.0840926 -0.00115214 -0.0181257)
(0.09021 -0.00146398 -0.0157262)
(0.0992538 -0.00138755 -0.0115239)
(0.108753 -0.00176779 -0.00682899)
(0.118975 -0.00296052 -0.00155597)
(0.129939 -0.00360533 0.00501006)
(0.139621 -0.00477286 0.00435055)
(0.140232 -0.00207647 0.011159)
(0.131396 -0.00125475 0.0127645)
(0.124591 -0.00216368 0.00934676)
(0.12745 -0.00227154 0.00537374)
(0.134016 -0.0010308 0.00579301)
(0.135545 -0.000140285 0.00964244)
(0.132485 -0.000391364 0.0114282)
(0.131981 -0.000787266 0.00794753)
(0.134213 -0.000554612 0.00363072)
(0.130361 -0.000496656 0.00481772)
(0.117638 -0.00125057 0.00956942)
(0.101746 -0.00213089 0.0113185)
(0.0897041 -0.0022553 0.00875184)
(0.0836317 -0.00169202 0.00579794)
(0.0814971 -0.00109662 0.00470819)
(0.0811327 -0.000879911 0.0050141)
(0.0812942 -0.00131363 0.00580373)
(0.0811293 -0.00270655 0.00692902)
(0.0802493 -0.0051859 0.00894729)
(0.0796926 -0.00800131 0.0118071)
(0.0823827 -0.00960163 0.0135171)
(0.0900744 -0.00943029 0.0115042)
(0.10224 -0.00807898 0.00517015)
(0.117965 -0.00573375 -0.00356823)
(0.132286 -0.00321092 -0.0107647)
(0.136902 -0.00226957 -0.0135833)
(0.131195 -0.00267487 -0.0129136)
(0.123246 -0.0025523 -0.0108212)
(0.118893 -0.00152223 -0.00887045)
(0.117148 -0.000481754 -0.00851815)
(0.113842 0.000111485 -0.0104533)
(0.107421 0.000192274 -0.014188)
(0.100094 -0.000451895 -0.0191072)
(0.0953952 -0.00201663 -0.0235257)
(0.0963787 -0.00351847 -0.0243627)
(0.102896 -0.00384088 -0.0209911)
(0.111117 -0.00403595 -0.0160892)
(0.118937 -0.00547346 -0.0109694)
(0.129173 -0.00645528 -0.00421452)
(0.138258 -0.00770353 -0.00200608)
(0.143973 -0.00295033 0.00667543)
(0.138593 -6.87312e-05 0.0111851)
(0.128303 -0.00112387 0.0099669)
(0.125187 -0.00294122 0.00560682)
(0.132846 -0.00211794 0.00355584)
(0.140365 -5.99875e-05 0.00627681)
(0.138294 0.000104402 0.00987409)
(0.131853 -0.00154992 0.00907256)
(0.132988 -0.00224531 0.00435323)
(0.139995 -0.00105806 0.0029724)
(0.138506 -0.000268219 0.00741479)
(0.124999 -0.000883687 0.0111621)
(0.107897 -0.00165813 0.0102752)
(0.0957961 -0.00172293 0.00770373)
(0.0905954 -0.00138958 0.00636696)
(0.0898523 -0.001214 0.00607859)
(0.0910575 -0.00160144 0.00595132)
(0.0923406 -0.00296716 0.00607179)
(0.0921589 -0.00560931 0.00752851)
(0.090089 -0.00904072 0.011056)
(0.0885221 -0.0115664 0.0152696)
(0.0914117 -0.0119644 0.0167416)
(0.100249 -0.0108002 0.0130476)
(0.11464 -0.00850353 0.0048278)
(0.130959 -0.00527523 -0.00442195)
(0.138462 -0.00278901 -0.0104832)
(0.131001 -0.00213347 -0.0116644)
(0.117598 -0.00222866 -0.00928948)
(0.110324 -0.00203832 -0.00583264)
(0.112764 -0.00135809 -0.00365103)
(0.11995 -6.71789e-05 -0.00419991)
(0.122775 0.00115525 -0.0078665)
(0.118513 0.000995909 -0.0146461)
(0.111413 -0.00129779 -0.0230139)
(0.106918 -0.0044188 -0.0285127)
(0.108508 -0.0059536 -0.0278038)
(0.114951 -0.00623711 -0.0229173)
(0.121745 -0.0076209 -0.0171713)
(0.128586 -0.00933733 -0.0106218)
(0.137504 -0.0107794 -0.00631222)
(0.14465 -0.00526176 0.00189248)
(0.144861 0.00013467 0.00757693)
(0.136679 0.000608123 0.00839371)
(0.127693 -0.00231023 0.00519285)
(0.128285 -0.00347528 0.00192278)
(0.138049 -0.00116526 0.00267852)
(0.143955 0.000883439 0.00649708)
(0.138758 -0.000802576 0.00820135)
(0.131353 -0.00428589 0.00533708)
(0.135331 -0.00474773 0.00255364)
(0.145938 -0.00200558 0.0052723)
(0.144825 -2.71226e-05 0.00984806)
(0.129979 -1.31377e-05 0.0106671)
(0.112971 -0.000644548 0.00913272)
(0.102354 -0.0011151 0.0084232)
(0.0988947 -0.00157577 0.00841275)
(0.100248 -0.00229297 0.00787377)
(0.103679 -0.00355801 0.00676459)
(0.10591 -0.00580612 0.00659902)
(0.10439 -0.00908967 0.00918318)
(0.100261 -0.012168 0.0142241)
(0.0982918 -0.0134198 0.0182914)
(0.102352 -0.0128175 0.0174208)
(0.113012 -0.0108457 0.0105822)
(0.127208 -0.00729837 0.000521414)
(0.135173 -0.00315298 -0.00774756)
(0.128683 -0.000551066 -0.0104443)
(0.113918 -0.000150088 -0.00760997)
(0.103002 -0.00119706 -0.00207485)
(0.102589 -0.00218235 0.00258397)
(0.112527 -0.00133563 0.00388547)
(0.124881 0.00115791 0.000895982)
(0.129802 0.00262314 -0.00654904)
(0.126526 0.000806612 -0.0171181)
(0.120841 -0.00337837 -0.0264135)
(0.11796 -0.00657003 -0.029659)
(0.119925 -0.00771196 -0.0267019)
(0.125191 -0.0091863 -0.0207983)
(0.130699 -0.0114722 -0.0140546)
(0.138218 -0.0132849 -0.00885975)
(0.144415 -0.00859152 -0.00202793)
(0.147728 -0.00162819 0.00295362)
(0.144348 0.00139536 0.00513144)
(0.135648 -0.000585699 0.00405948)
(0.128846 -0.00342458 0.00117968)
(0.13189 -0.00289144 0.000351263)
(0.141573 1.23296e-06 0.00316491)
(0.146235 0.000432915 0.00628764)
(0.140533 -0.00359468 0.00579881)
(0.134559 -0.00768953 0.00318868)
(0.141339 -0.00674768 0.00410988)
(0.151173 -0.00228577 0.00833213)
(0.147241 0.000884071 0.0101799)
(0.132416 0.00146275 0.00937127)
(0.118196 0.000570008 0.00934719)
(0.110229 -0.00105665 0.010314)
(0.10887 -0.00306845 0.0103222)
(0.113044 -0.00493859 0.00859723)
(0.118762 -0.00659478 0.00652129)
(0.119888 -0.00883313 0.00698489)
(0.114918 -0.0116036 0.0114162)
(0.108908 -0.0134027 0.0170567)
(0.107611 -0.0135513 0.0188383)
(0.113063 -0.0121928 0.0141008)
(0.123143 -0.00865065 0.00456299)
(0.130364 -0.00326156 -0.0048495)
(0.127076 0.00114434 -0.00931905)
(0.116027 0.0024447 -0.0076063)
(0.10583 0.000846553 -0.00168685)
(0.101913 -0.00173566 0.00498998)
(0.107192 -0.00242361 0.00879896)
(0.119769 8.16939e-05 0.00788777)
(0.13144 0.00329199 0.00183972)
(0.13578 0.0031454 -0.008588)
(0.133965 -0.000970643 -0.0197876)
(0.130664 -0.00537099 -0.0266979)
(0.128493 -0.00757768 -0.0273865)
(0.129016 -0.00954927 -0.023334)
(0.132692 -0.0125276 -0.0164854)
(0.139805 -0.0144535 -0.011296)
(0.145227 -0.011646 -0.00463177)
(0.148288 -0.00495463 -0.000792809)
(0.147271 0.000153564 0.00151445)
(0.141877 0.000542121 0.00248941)
(0.134233 -0.00191987 0.00119139)
(0.130369 -0.00332013 -0.000332509)
(0.13548 -0.00201508 0.00107955)
(0.144972 -0.00067424 0.00433201)
(0.147893 -0.00283447 0.00548882)
(0.141548 -0.00768001 0.00372297)
(0.138796 -0.00981817 0.00338236)
(0.146797 -0.00628026 0.00668919)
(0.152455 -0.000680709 0.00912896)
(0.146153 0.0025936 0.00866714)
(0.133632 0.00294843 0.00874433)
(0.123027 0.00108343 0.0102785)
(0.117736 -0.00256087 0.010451)
(0.119656 -0.00645428 0.00811361)
(0.128128 -0.0083919 0.00495047)
(0.134653 -0.00896084 0.00378712)
(0.131635 -0.0103942 0.00707715)
(0.122769 -0.0122199 0.013458)
(0.116142 -0.0127521 0.0176402)
(0.115556 -0.0117618 0.0156308)
(0.12047 -0.00876531 0.00803907)
(0.126199 -0.00331168 -0.00127511)
(0.12632 0.00217706 -0.00773301)
(0.120335 0.00443037 -0.00874303)
(0.113157 0.00286754 -0.00463208)
(0.108852 -0.000372115 0.00204608)
(0.109778 -0.0022511 0.00762152)
(0.117064 -0.000793607 0.00943793)
(0.128058 0.00268766 0.00661468)
(0.137821 0.00419028 -0.0010083)
(0.142846 0.00141736 -0.0116462)
(0.14279 -0.0031521 -0.0207245)
(0.139518 -0.00610008 -0.0249177)
(0.135612 -0.0085337 -0.0242791)
(0.135381 -0.0122097 -0.0191437)
(0.14332 -0.014509 -0.0139738)
(0.147559 -0.0135494 -0.00719726)
(0.148594 -0.00836036 -0.00338936)
(0.146324 -0.00256308 -0.00111834)
(0.143067 0.000380944 0.00128695)
(0.138848 -0.000162101 0.00189283)
(0.134386 -0.00219284 0.000405747)
(0.134553 -0.00330013 0.000312425)
(0.141648 -0.00317162 0.00292104)
(0.148291 -0.00398811 0.00500338)
(0.146451 -0.00728405 0.00389579)
(0.140505 -0.0105663 0.00228899)
(0.141617 -0.00929402 0.00409529)
(0.147584 -0.00364285 0.00713992)
(0.147148 0.00195697 0.00816893)
(0.13875 0.00463655 0.00859558)
(0.129509 0.00394601 0.00918324)
(0.1241 -6.81242e-05 0.00737054)
(0.123606 -0.00615118 0.00295474)
(0.130897 -0.0102413 -0.000769407)
(0.143202 -0.00988739 -0.00159854)
(0.14687 -0.00883138 0.0016992)
(0.138116 -0.00983822 0.00861528)
(0.126642 -0.0107944 0.0147364)
(0.120308 -0.0098137 0.0154136)
(0.120329 -0.006909 0.0103299)
(0.123896 -0.00212691 0.00240824)
(0.126053 0.00313942 -0.00506128)
(0.124373 0.00579922 -0.00936255)
(0.120734 0.00449726 -0.00882377)
(0.11791 0.00105585 -0.00411108)
(0.117579 -0.00132894 0.00153787)
(0.120326 -0.000790937 0.00512408)
(0.126254 0.00165481 0.00567509)
(0.135472 0.00303871 0.00242152)
(0.145807 0.00174172 -0.00523332)
(0.151049 -0.0011419 -0.0145819)
(0.148841 -0.00367265 -0.0211042)
(0.143386 -0.00654674 -0.0231901)
(0.140651 -0.011065 -0.0206093)
(0.149402 -0.0135155 -0.0156927)
(0.151467 -0.0135569 -0.0101246)
(0.149366 -0.00999275 -0.00659215)
(0.14443 -0.00501653 -0.00357176)
(0.141103 -0.000974359 0.000633369)
(0.139744 0.000617835 0.00314619)
(0.138182 -0.000537575 0.00188102)
(0.137757 -0.00311221 0.000393753)
(0.14177 -0.00490065 0.00218701)
(0.147804 -0.0053682 0.00502433)
(0.148744 -0.00664817 0.00445286)
(0.143117 -0.00936166 0.00134652)
(0.137596 -0.010017 0.00116592)
(0.136409 -0.00601979 0.00487429)
(0.134818 -0.000110438 0.00858671)
(0.130533 0.00391151 0.00987397)
(0.127655 0.00484398 0.00773153)
(0.127807 0.00236431 0.00198028)
(0.128111 -0.00377964 -0.00439413)
(0.130693 -0.0105488 -0.0071208)
(0.142144 -0.0120843 -0.00583816)
(0.153726 -0.00878625 -0.0019132)
(0.15073 -0.00704036 0.00457986)
(0.137138 -0.00759556 0.011325)
(0.125451 -0.00682661 0.0141572)
(0.121523 -0.00378231 0.0115939)
(0.12403 0.00026267 0.00542793)
(0.128377 0.00408416 -0.00205499)
(0.130353 0.00599402 -0.00863057)
(0.129549 0.00484623 -0.011625)
(0.128472 0.00182745 -0.0101189)
(0.12858 -0.000214597 -0.00632177)
(0.129572 0.000179759 -0.00258244)
(0.131519 0.00121988 0.000528848)
(0.136465 0.000577411 0.00150127)
(0.145767 -0.000761155 -0.00237078)
(0.154076 -0.00109948 -0.0101713)
(0.15477 -0.00151569 -0.0175164)
(0.15044 -0.00432636 -0.0213771)
(0.147789 -0.0095131 -0.0206048)
(0.156007 -0.0111483 -0.0159069)
(0.156886 -0.0114259 -0.0122465)
(0.152952 -0.00949755 -0.00970172)
(0.145573 -0.00637212 -0.00624791)
(0.140364 -0.0024139 -0.000528994)
(0.138992 0.000857022 0.00391023)
(0.13937 0.00110226 0.00383861)
(0.140533 -0.00193535 0.00185278)
(0.143599 -0.00542327 0.00237597)
(0.148001 -0.00640884 0.00510352)
(0.149298 -0.005852 0.00515687)
(0.144172 -0.00645332 0.00118991)
(0.134863 -0.00735126 -0.00150386)
(0.126954 -0.00561888 0.000758233)
(0.122809 -0.00149796 0.00476011)
(0.122284 0.00216513 0.00575213)
(0.125724 0.00389817 0.00225507)
(0.130817 0.00323023 -0.00387954)
(0.133454 -0.00116061 -0.00850776)
(0.134118 -0.00897194 -0.0082768)
(0.140178 -0.0143813 -0.00417021)
(0.152149 -0.0121013 0.000435704)
(0.155363 -0.0069394 0.00514606)
(0.144341 -0.0047102 0.010281)
(0.13028 -0.00368512 0.0131756)
(0.123359 -0.0010626 0.0116883)
(0.124474 0.00234121 0.00674699)
(0.128814 0.00466568 0.000393042)
(0.131462 0.00511242 -0.00539995)
(0.131443 0.00358363 -0.00858706)
(0.131756 0.000989725 -0.00886053)
(0.134155 -0.000573692 -0.00764118)
(0.137025 8.92804e-05 -0.00521412)
(0.138819 0.00084502 -0.00115245)
(0.140291 -0.000772373 0.00179127)
(0.144266 -0.00275879 -0.000482493)
(0.150969 -0.00193366 -0.0072857)
(0.155687 -0.000298159 -0.014257)
(0.156072 -0.002241 -0.0184848)
(0.155057 -0.00737111 -0.0189164)
(0.161038 -0.00801462 -0.014846)
(0.161948 -0.00842608 -0.0131907)
(0.159042 -0.00766588 -0.0118395)
(0.150619 -0.00633203 -0.009124)
(0.142356 -0.00315907 -0.00330069)
(0.138928 0.00099164 0.00302415)
(0.139692 0.00255569 0.00584818)
(0.142074 -0.000154323 0.00500436)
(0.144741 -0.00438246 0.00374754)
(0.147415 -0.00618341 0.00454567)
(0.148334 -0.00519187 0.00535282)
(0.144904 -0.00417454 0.00290241)
(0.13709 -0.00393816 -0.00135735)
(0.128762 -0.00280947 -0.00325328)
(0.124357 -0.000512451 -0.00216245)
(0.125051 0.00132732 -0.00103704)
(0.129298 0.00218571 -0.00213872)
(0.134709 0.00239421 -0.00541304)
(0.139107 0.000347668 -0.00834717)
(0.141635 -0.00618814 -0.00753811)
(0.144762 -0.0140566 -0.00260665)
(0.15134 -0.0153478 0.00299012)
(0.154649 -0.00927945 0.00680273)
(0.147311 -0.00341101 0.00999953)
(0.134835 -0.000493829 0.0126302)
(0.126466 0.00161236 0.0124361)
(0.124601 0.0037401 0.00873124)
(0.125574 0.00514304 0.00371194)
(0.125853 0.00507342 5.86683e-05)
(0.125568 0.00313499 -0.00131977)
(0.127256 7.93504e-05 -0.00178224)
(0.131909 -0.00175367 -0.002511)
(0.137104 -0.000944289 -0.00170854)
(0.139775 0.000450768 0.00217608)
(0.139757 -0.000390609 0.00513805)
(0.139983 -0.00227742 0.002169)
(0.143791 -0.00213685 -0.00498854)
(0.151025 -0.000692903 -0.0111511)
(0.157613 -0.00148492 -0.014463)
(0.160255 -0.00503492 -0.0156116)
(0.164108 -0.00466268 -0.0122838)
(0.166208 -0.00520924 -0.0127197)
(0.164847 -0.00528578 -0.0130175)
(0.156617 -0.00488851 -0.0118183)
(0.146049 -0.00257305 -0.0067968)
(0.139862 0.00132101 0.000523758)
(0.139519 0.0034485 0.00579958)
(0.14227 0.00139095 0.00699682)
(0.144908 -0.00282948 0.00560593)
(0.14612 -0.00531263 0.00472149)
(0.145596 -0.0048685 0.00499801)
(0.142647 -0.00326147 0.00392954)
(0.137453 -0.00188772 0.000475282)
(0.132679 -0.000559551 -0.0030822)
(0.1313 0.000681895 -0.00433069)
(0.133071 0.00107942 -0.00332869)
(0.135629 0.000749477 -0.00207186)
(0.138342 0.000838532 -0.00280963)
(0.141624 0.000718666 -0.00530342)
(0.144532 -0.00270863 -0.00608663)
(0.146968 -0.00979033 -0.00300547)
(0.150597 -0.014165 0.00201777)
(0.153396 -0.0105106 0.00617991)
(0.149811 -0.00307536 0.00926398)
(0.140665 0.00247019 0.0113744)
(0.132047 0.00524285 0.0114943)
(0.126897 0.00600759 0.00963986)
(0.124085 0.00540106 0.00708985)
(0.122668 0.00383129 0.00483665)
(0.12332 0.00125669 0.00334317)
(0.126754 -0.00209215 0.00240446)
(0.132006 -0.00437598 0.00141225)
(0.136706 -0.00347333 0.00116556)
(0.138918 -0.000361513 0.00339129)
(0.138842 0.001435 0.00615551)
(0.138452 0.000792661 0.00458853)
(0.140343 -0.00020728 -0.00163622)
(0.14646 -0.000467136 -0.00754794)
(0.154938 -0.00123015 -0.0103162)
(0.161111 -0.00302806 -0.011456)
(0.164143 -0.00262793 -0.0099267)
(0.167589 -0.00269128 -0.0109277)
(0.167741 -0.00279754 -0.0122352)
(0.161306 -0.00242727 -0.0130867)
(0.151265 -0.000368855 -0.010566)
(0.143834 0.00264211 -0.00394366)
(0.141063 0.00384055 0.00316261)
(0.14126 0.00178668 0.00697037)
(0.142261 -0.00156966 0.00692201)
(0.142783 -0.00328658 0.00563425)
(0.142239 -0.00287614 0.00518362)
(0.140539 -0.00182867 0.00426126)
(0.138529 -0.0008649 0.00138273)
(0.137996 -1.63546e-06 -0.001884)
(0.139539 0.000121408 -0.00316674)
(0.140956 -0.000876646 -0.00210529)
(0.140044 -0.00202475 -6.86973e-06)
(0.13819 -0.00150337 0.00128817)
(0.138522 0.000297127 0.00104552)
(0.141583 -0.000587465 0.000845199)
(0.145666 -0.00645984 0.00251213)
(0.149198 -0.0121722 0.00538052)
(0.150712 -0.0103435 0.00706693)
(0.147725 -0.00213862 0.00772572)
(0.140318 0.00534576 0.00893971)
(0.132322 0.00838465 0.00980623)
(0.12662 0.00754445 0.00918067)
(0.123459 0.00521174 0.00787989)
(0.122417 0.00339618 0.00711857)
(0.123574 0.00212023 0.00681597)
(0.127028 4.12556e-05 0.00606555)
(0.131921 -0.00257448 0.00473277)
(0.136193 -0.00305816 0.00408653)
(0.138239 -0.000226818 0.00531004)
(0.138662 0.00309227 0.00719328)
(0.139325 0.004044 0.00635731)
(0.141452 0.00303259 0.00168923)
(0.145923 0.00135945 -0.00382597)
(0.152692 -0.00050306 -0.00732226)
(0.159351 -0.00199213 -0.00890382)
(0.163395 -0.00235647 -0.00912249)
(0.166875 -0.000785941 -0.0095839)
(0.166692 0.000333618 -0.0102962)
(0.16291 0.000586946 -0.0114057)
(0.157564 0.00147002 -0.0112691)
(0.153034 0.00355621 -0.00785587)
(0.149353 0.00459 -0.00213051)
(0.145534 0.00261811 0.00272393)
(0.141862 -0.000927847 0.00480777)
(0.139466 -0.00300572 0.00503147)
(0.13915 -0.00272629 0.00519335)
(0.14102 -0.00153005 0.00521731)
(0.144701 -0.000406966 0.00384773)
(0.149188 0.000445306 0.00132074)
(0.152048 0.000251537 -0.000401427)
(0.150656 -0.00119393 0.000525736)
(0.145409 -0.00215544 0.00390404)
(0.140041 -0.000891943 0.00711273)
(0.138671 0.0017894 0.00685477)
(0.141701 0.00237522 0.00313787)
(0.145994 -0.00194286 0.000647744)
(0.148976 -0.00816629 0.00304706)
(0.149489 -0.00872029 0.00717486)
(0.146578 -0.00136234 0.0083722)
(0.140348 0.0073902 0.00746963)
(0.133578 0.0116307 0.00686658)
(0.129281 0.0110716 0.0068083)
(0.127735 0.00815673 0.00641669)
(0.127669 0.00519251 0.00531338)
(0.1284 0.00316727 0.00406154)
(0.130141 0.00166474 0.00356951)
(0.133066 0.000388634 0.0038991)
(0.136494 0.000218283 0.00444636)
(0.13947 0.00181987 0.0053446)
(0.141339 0.00406585 0.0068833)
(0.142163 0.00507282 0.00756374)
(0.142989 0.00418323 0.00511819)
(0.145303 0.00178754 -6.57346e-05)
(0.150315 -0.00103453 -0.00511399)
(0.157212 -0.00269271 -0.00802072)
(0.161179 -0.00584696 -0.00835322)
(0.164 -0.00257101 -0.00828752)
(0.163329 0.00135279 -0.00791278)
(0.159543 0.00317744 -0.00836798)
(0.154895 0.00348028 -0.00884336)
(0.152173 0.00418633 -0.0078971)
(0.151801 0.0050644 -0.00529315)
(0.151608 0.0043212 -0.00204513)
(0.149356 0.00146325 0.000615794)
(0.145134 -0.00208224 0.00230654)
(0.141229 -0.00503373 0.00367305)
(0.14024 -0.00736753 0.00497163)
(0.143452 -0.00870755 0.00538394)
(0.149952 -0.00790386 0.00423035)
(0.155876 -0.00496457 0.0021181)
(0.156401 -0.00189584 0.00106292)
(0.150893 0.000118603 0.00260008)
(0.143604 0.00226855 0.00490074)
(0.139342 0.00482985 0.00417578)
(0.139358 0.0055658 -0.00039696)
(0.141688 0.00266697 -0.00475965)
(0.144807 -0.00267758 -0.00402942)
(0.147105 -0.00601468 0.0012925)
(0.14655 -0.003157 0.00593166)
(0.143461 0.00431947 0.00710517)
(0.140464 0.0109117 0.00595375)
(0.139594 0.01335 0.00367222)
(0.140002 0.0119207 0.000879227)
(0.139729 0.00861911 -0.00128291)
(0.138587 0.00536492 -0.00166558)
(0.137665 0.00308571 -0.000141745)
(0.137722 0.0018977 0.00226381)
(0.138431 0.00182475 0.00422064)
(0.139016 0.00265528 0.00544112)
(0.139335 0.00353108 0.00658698)
(0.139791 0.00373121 0.00748112)
(0.14117 0.00313618 0.00655146)
(0.144313 0.00126724 0.00292563)
(0.149523 -0.00218004 -0.00215877)
(0.155783 -0.00552177 -0.0064153)
(0.157756 -0.0029688 -0.00738607)
(0.15499 0.00105321 -0.00847901)
(0.150451 0.00485717 -0.00827183)
(0.146515 0.00622164 -0.00773447)
(0.144187 0.00536614 -0.00727497)
(0.143739 0.0039369 -0.00708929)
(0.145164 0.0028752 -0.00701895)
(0.148158 0.0019698 -0.00630419)
(0.151823 0.000767325 -0.00433796)
(0.15441 -0.000807172 -0.00157033)
(0.154205 -0.00280898 0.00105061)
(0.151497 -0.00564341 0.00325785)
(0.148706 -0.00898339 0.00531434)
(0.148292 -0.0110102 0.00710053)
(0.150458 -0.0100526 0.00777432)
(0.152353 -0.00642061 0.0066441)
(0.150892 -0.00160834 0.004438)
(0.146336 0.00291069 0.00254926)
(0.141825 0.00538734 0.000858723)
(0.139721 0.00431708 -0.00160228)
(0.140097 0.000291725 -0.00404125)
(0.142628 -0.00386719 -0.00383444)
(0.146237 -0.00531288 1.47237e-05)
(0.148271 -0.00290942 0.00497191)
(0.147893 0.00232412 0.00770162)
(0.147258 0.00767928 0.00665176)
(0.147855 0.0108492 0.00217108)
(0.148648 0.0112533 -0.00373762)
(0.148295 0.00921276 -0.00826356)
(0.146954 0.00557258 -0.00955591)
(0.145301 0.00223156 -0.00747481)
(0.143741 0.00114716 -0.00311656)
(0.142479 0.00238344 0.00182389)
(0.141364 0.00398996 0.00600509)
(0.140311 0.00388154 0.00923178)
(0.139903 0.00171883 0.0115242)
(0.14126 -0.00109098 0.0116934)
(0.145296 -0.00333619 0.00835205)
(0.151293 -0.00474354 0.00220955)
(0.156409 -0.00493064 -0.00381885)
(0.160341 0.00219853 0.00113092)
(0.162176 0.00620329 -0.0031786)
(0.16121 0.0091281 -0.00688953)
(0.157503 0.00926843 -0.00990634)
(0.152682 0.00708419 -0.0115414)
(0.149045 0.00415832 -0.0114937)
(0.147839 0.00144705 -0.0103256)
(0.148971 -0.000833034 -0.00873587)
(0.151771 -0.00254761 -0.00695084)