/*--------------------------------*- C++ -*----------------------------------*\
| =========                 |                                                 |
| \\      /  F ield         | OpenFOAM: The Open Source CFD Toolbox           |
|  \\    /   O peration     | Version:  2306                                  |
|   \\  /    A nd           | Website:  www.openfoam.com                      |
|    \\/     M anipulation  |                                                 |
\*---------------------------------------------------------------------------*/
FoamFile
{
    version     2.0;
    format      ascii;
    arch        "LSB;label=32;scalar=64";
    class       volVectorField;
    location    "0.5";
    object      UMean;
}
// * * * * * * * * * * * * * * * * * * * * * * * * * * * * * * * * * * * * * //

dimensions      [0 1 -1 0 0 0 0];

internalField   nonuniform List<vector> 
60000
(
(0.0106425 -2.01696e-05 0.00220308)
(0.010629 -2.67188e-05 0.00187298)
(0.0105153 -1.98585e-05 0.00177143)
(0.0103626 -1.49119e-05 0.00179535)
(0.0101165 -1.63781e-05 0.00172017)
(0.00956722 -1.56432e-05 0.00147151)
(0.00857782 -1.09681e-05 0.00119926)
(0.0073087 -1.03021e-05 0.00106293)
(0.0062566 -1.80574e-05 0.00108241)
(0.00580207 -3.29092e-05 0.00122352)
(0.00580874 -3.79683e-05 0.00137158)
(0.00593742 -3.14526e-05 0.00130579)
(0.0060205 -2.3224e-05 0.00096118)
(0.00609602 -1.39026e-05 0.000536464)
(0.00625187 -1.79078e-06 0.00021346)
(0.00646954 1.14134e-05 -9.23721e-06)
(0.00672312 2.21076e-05 -0.000210613)
(0.00703834 2.37972e-05 -0.000473711)
(0.00741734 1.8483e-05 -0.000851589)
(0.00787512 1.16039e-05 -0.0013477)
(0.00846319 7.19686e-06 -0.00191129)
(0.00910763 5.27278e-06 -0.00240677)
(0.00958949 2.91915e-06 -0.00268391)
(0.00966688 -1.222e-06 -0.0027087)
(0.00916472 3.59747e-07 -0.00256453)
(0.00821189 7.21103e-06 -0.00236444)
(0.00727917 -3.20181e-06 -0.00220325)
(0.00669051 -1.6422e-05 -0.00214879)
(0.00636916 -1.24346e-05 -0.002156)
(0.00623953 7.74745e-07 -0.00207029)
(0.00640048 9.66888e-06 -0.00174561)
(0.00686278 2.1471e-05 -0.0011035)
(0.00748746 3.93212e-05 -0.000290486)
(0.00814184 5.51703e-05 0.000365465)
(0.00880486 6.46523e-05 0.000781018)
(0.0094574 6.47637e-05 0.00123087)
(0.00996738 7.10043e-05 0.00182964)
(0.0102492 6.38653e-05 0.00242352)
(0.0104093 3.74733e-05 0.00274373)
(0.0105487 3.01063e-06 0.00260805)
(0.0330453 -0.000229707 0.00534416)
(0.032844 -0.000239781 0.0045544)
(0.0324325 -0.000187912 0.00447396)
(0.031972 -0.0001367 0.00473108)
(0.0311799 -8.93442e-05 0.00465295)
(0.0294851 -2.95636e-05 0.00401584)
(0.02667 4.82199e-06 0.00326858)
(0.0232113 -4.46394e-05 0.00292842)
(0.0202558 -0.000177009 0.00305262)
(0.0186568 -0.000300551 0.00338922)
(0.0181702 -0.000314932 0.00355315)
(0.0180901 -0.00024668 0.00316365)
(0.0180699 -0.00016857 0.00226519)
(0.0181908 -9.58071e-05 0.00131997)
(0.0185991 -2.03973e-05 0.000622625)
(0.0192444 4.78005e-05 9.14628e-05)
(0.0201093 8.47057e-05 -0.000466683)
(0.0212433 7.36417e-05 -0.00122288)
(0.0226222 3.0891e-05 -0.00228619)
(0.024247 -1.58147e-05 -0.00366658)
(0.0261446 -3.95126e-05 -0.00521425)
(0.0280589 -2.79462e-05 -0.00654569)
(0.0294719 -4.94317e-06 -0.00722956)
(0.0297886 1.11789e-05 -0.00712765)
(0.0285672 2.34664e-05 -0.00649634)
(0.0261364 -4.48356e-06 -0.00581422)
(0.0235362 -0.000108815 -0.00545648)
(0.021432 -0.00019779 -0.00549251)
(0.0198823 -0.000193312 -0.00565592)
(0.0190686 -0.000133132 -0.00549802)
(0.0193224 -5.22439e-05 -0.00462114)
(0.0205607 7.45386e-05 -0.00289262)
(0.0223367 0.000239236 -0.000758504)
(0.0242778 0.000377686 0.00103317)
(0.0262891 0.000437769 0.00232773)
(0.0282877 0.00043274 0.00362944)
(0.0300124 0.000402601 0.00511975)
(0.0312901 0.000292807 0.00645242)
(0.0322253 9.5643e-05 0.00701764)
(0.0328406 -0.000112641 0.0064663)
(0.0566966 -0.000661144 0.00779822)
(0.0561756 -0.000657828 0.00633226)
(0.055418 -0.000529414 0.00611107)
(0.0546855 -0.000398616 0.00671701)
(0.0534959 -0.000262728 0.00697184)
(0.0510405 -0.000101702 0.00623056)
(0.0470689 -1.50044e-05 0.00504268)
(0.0419701 -0.000130601 0.00438761)
(0.0369091 -0.000450139 0.00458337)
(0.0332828 -0.000744448 0.00515642)
(0.0314664 -0.000775845 0.00534642)
(0.0307072 -0.000611117 0.00468456)
(0.0303261 -0.000417116 0.00339969)
(0.0302851 -0.000236056 0.00215156)
(0.030778 -6.00402e-05 0.0012704)
(0.0317762 8.37526e-05 0.000592403)
(0.0332684 0.000139759 -0.000152661)
(0.03529 8.52442e-05 -0.00119449)
(0.0377862 -3.86824e-05 -0.00271461)
(0.0407306 -0.000163959 -0.00479141)
(0.044093 -0.000222326 -0.00726433)
(0.0474399 -0.000184742 -0.00955707)
(0.0500628 -0.000116983 -0.010889)
(0.0511476 -7.01916e-05 -0.0108334)
(0.0499689 -4.95618e-05 -0.00967854)
(0.0467247 -0.000129916 -0.00830442)
(0.0426328 -0.000337345 -0.00754286)
(0.0386661 -0.0004972 -0.00763817)
(0.0351718 -0.00048293 -0.00821118)
(0.0327475 -0.000368841 -0.00849499)
(0.0322274 -0.000191215 -0.00765325)
(0.0336946 0.000111811 -0.00532035)
(0.0364502 0.000514225 -0.00213577)
(0.0397681 0.000860527 0.000763487)
(0.0433376 0.00100749 0.00301386)
(0.0469655 0.00099311 0.0051441)
(0.0503335 0.000853844 0.0073972)
(0.0531606 0.000526974 0.0094024)
(0.0552977 4.29823e-05 0.0103588)
(0.0565021 -0.000418675 0.00962585)
(0.0805438 -0.00122598 0.0102067)
(0.0795162 -0.00121297 0.0076614)
(0.0783884 -0.00099368 0.00667079)
(0.0775041 -0.000756557 0.00742695)
(0.076239 -0.000504084 0.00840932)
(0.0736565 -0.000212091 0.00810877)
(0.0695163 -3.77484e-05 0.00663064)
(0.0638174 -0.000174199 0.00538082)
(0.0569444 -0.000663747 0.00541727)
(0.0503834 -0.00119626 0.00640893)
(0.0459615 -0.00133245 0.00696935)
(0.0437622 -0.00110193 0.0062049)
(0.0426522 -0.000781342 0.00457252)
(0.0421522 -0.000474573 0.00308986)
(0.0424335 -0.000187033 0.00218998)
(0.0435241 3.5307e-05 0.00161399)
(0.0454141 9.84598e-05 0.00100366)
(0.0481083 -3.55305e-05 7.55475e-05)
(0.0515596 -0.000297767 -0.00145303)
(0.0557863 -0.000568339 -0.00383511)
(0.0607534 -0.000698812 -0.00709017)
(0.0658314 -0.00061771 -0.0106113)
(0.0701305 -0.000449992 -0.0132311)
(0.0727495 -0.000310974 -0.0139446)
(0.0726645 -0.000233508 -0.0126745)
(0.0696003 -0.000335377 -0.0105)
(0.064607 -0.000630831 -0.00888637)
(0.0589329 -0.000839881 -0.00861178)
(0.0531999 -0.000804045 -0.00950343)
(0.0482038 -0.000669693 -0.010693)
(0.0454271 -0.0004733 -0.010815)
(0.0458121 -6.23534e-05 -0.00882578)
(0.0488571 0.000564684 -0.00519858)
(0.0534392 0.0011603 -0.00142796)
(0.0587981 0.00146488 0.00175939)
(0.0644316 0.00148127 0.00477078)
(0.0698843 0.00123729 0.00786662)
(0.0747992 0.000656908 0.0107613)
(0.0785979 -0.000144134 0.0126483)
(0.0805419 -0.000859402 0.0124444)
(0.102988 -0.00180441 0.0128265)
(0.100995 -0.00179164 0.00941189)
(0.0993861 -0.00151238 0.00681872)
(0.0986161 -0.00116151 0.00688)
(0.0977616 -0.000774164 0.00859942)
(0.0956931 -0.000354962 0.00947107)
(0.0923398 -8.545e-05 0.00825229)
(0.0874835 -0.000156269 0.00618288)
(0.080223 -0.000690628 0.00546531)
(0.0709056 -0.00145517 0.00680843)
(0.0625122 -0.00184819 0.00835554)
(0.0574982 -0.00168444 0.00794007)
(0.0550153 -0.00127217 0.00590708)
(0.0537083 -0.000837373 0.00401779)
(0.0533894 -0.000440723 0.00312543)
(0.0540984 -0.000147849 0.00290116)
(0.0558143 -9.2143e-05 0.00282235)
(0.0584913 -0.000347988 0.00253576)
(0.0621318 -0.000841423 0.0016781)
(0.0670024 -0.00139714 -0.000231892)
(0.0733863 -0.00172107 -0.00365697)
(0.0805842 -0.00160305 -0.00837437)
(0.0872958 -0.001222 -0.0130281)
(0.0924181 -0.000839808 -0.0157603)
(0.094671 -0.000572057 -0.0155232)
(0.0930754 -0.000612241 -0.013052)
(0.0882101 -0.000973621 -0.0103629)
(0.0816125 -0.00119991 -0.00908413)
(0.0742869 -0.00107262 -0.00961805)
(0.0668282 -0.000889576 -0.0114464)
(0.060706 -0.000769296 -0.0131315)
(0.0579632 -0.000454685 -0.0127793)
(0.059391 0.000188413 -0.00996323)
(0.0640742 0.000911987 -0.00613867)
(0.0708464 0.00137842 -0.00242357)
(0.0786742 0.00151667 0.00136991)
(0.0865496 0.00129241 0.00539478)
(0.0940159 0.000532404 0.00939515)
(0.100124 -0.000527057 0.0128048)
(0.103308 -0.00139512 0.0142913)
(0.122132 -0.00228624 0.0143834)
(0.118336 -0.00220813 0.0119543)
(0.115473 -0.0019971 0.00787772)
(0.115216 -0.00158177 0.00593946)
(0.115634 -0.00103537 0.00742218)
(0.114723 -0.000489171 0.00982991)
(0.112584 -0.000162996 0.00993337)
(0.10975 -0.000141154 0.00737715)
(0.104524 -0.00051128 0.00514102)
(0.0947518 -0.00130172 0.00603572)
(0.0824697 -0.00203414 0.00889266)
(0.0728176 -0.00220302 0.00977161)
(0.0675671 -0.00185235 0.00761138)
(0.0649489 -0.0013106 0.0049676)
(0.0637429 -0.000803214 0.00375449)
(0.0636301 -0.00045015 0.00383789)
(0.0644795 -0.000413715 0.00446798)
(0.0661143 -0.000826344 0.00515364)
(0.0685057 -0.00166636 0.00554286)
(0.072262 -0.00273125 0.00508658)
(0.0785191 -0.0035371 0.00286022)
(0.0872858 -0.0035846 -0.00180961)
(0.0971122 -0.00295427 -0.00824432)
(0.106296 -0.00203234 -0.0141545)
(0.112633 -0.00121134 -0.0168266)
(0.1141 -0.000970557 -0.0156166)
(0.110641 -0.00135006 -0.0125381)
(0.104214 -0.00161215 -0.0100645)
(0.09665 -0.00132666 -0.00941984)
(0.0883512 -0.000939641 -0.010791)
(0.0799088 -0.000817145 -0.013412)
(0.0731912 -0.000733037 -0.0153206)
(0.0705131 -0.000404562 -0.0149441)
(0.0725806 4.58351e-05 -0.0126859)
(0.0786195 0.000361065 -0.00956659)
(0.0874319 0.000566574 -0.0056559)
(0.0971223 0.000520971 -0.00108101)
(0.106874 -0.000215199 0.00375775)
(0.116082 -0.00135912 0.00878793)
(0.122055 -0.00211509 0.013028)
(0.135633 -0.00280753 0.0121829)
(0.130562 -0.00213404 0.0135496)
(0.124164 -0.00217583 0.0104305)
(0.123547 -0.00211487 0.00630358)
(0.126739 -0.00139661 0.00570815)
(0.128184 -0.000568907 0.00871608)
(0.126953 -0.000239776 0.0110742)
(0.125768 -0.000272688 0.00935154)
(0.124602 -0.000355363 0.00539204)
(0.118702 -0.00075486 0.00448505)
(0.106069 -0.00155749 0.00790975)
(0.0916375 -0.00227096 0.0109017)
(0.0813433 -0.00234585 0.00965987)
(0.0760182 -0.00182902 0.0063257)
(0.073644 -0.00119472 0.00428313)
(0.0727251 -0.000764251 0.00415594)
(0.0726121 -0.000728528 0.00507999)
(0.072853 -0.00128425 0.0063406)
(0.0731677 -0.00254912 0.0077024)
(0.0741636 -0.00437239 0.00900538)
(0.0777701 -0.00600302 0.00927374)
(0.0854426 -0.00653741 0.00682583)
(0.0964398 -0.00590147 0.000971267)
(0.109446 -0.00448029 -0.00695273)
(0.121832 -0.00270269 -0.0136004)
(0.128639 -0.00162335 -0.0159212)
(0.127735 -0.00181301 -0.0144438)
(0.122189 -0.00217712 -0.0118139)
(0.115746 -0.00168758 -0.00991296)
(0.109005 -0.000883629 -0.00972642)
(0.10138 -0.000516317 -0.0116474)
(0.0930947 -0.000521726 -0.0147175)
(0.0861787 -0.000594034 -0.0173359)
(0.0831522 -0.00081283 -0.0185842)
(0.0852661 -0.00125627 -0.0179564)
(0.0922722 -0.00143837 -0.0149948)
(0.101643 -0.00134779 -0.0104737)
(0.111174 -0.00195403 -0.00561674)
(0.121608 -0.00320184 -4.92904e-05)
(0.131943 -0.00358247 0.00662153)
(0.140747 -0.00416966 0.00622635)
(0.138834 -0.00169443 0.011943)
(0.12941 -0.00142641 0.0122274)
(0.124412 -0.00243872 0.00821298)
(0.128938 -0.00221002 0.00489727)
(0.135075 -0.000812117 0.00632939)
(0.135248 -0.000100818 0.0102626)
(0.132059 -0.000506145 0.011083)
(0.132556 -0.000818293 0.00693499)
(0.134621 -0.000533349 0.00336461)
(0.129045 -0.000602665 0.00568052)
(0.114793 -0.00145321 0.0104158)
(0.099067 -0.00225036 0.0112552)
(0.0882951 -0.00221486 0.00822196)
(0.0832688 -0.00160161 0.00544043)
(0.0816115 -0.00105725 0.00463124)
(0.0813471 -0.00094875 0.00508769)
(0.0813688 -0.00154501 0.00596759)
(0.080911 -0.00312556 0.00726908)
(0.0798527 -0.00568225 0.00951661)
(0.0797324 -0.00830582 0.0123003)
(0.083534 -0.00955102 0.0133249)
(0.0924046 -0.00912029 0.0102669)
(0.105563 -0.0075744 0.00310609)
(0.12157 -0.00513479 -0.00557882)
(0.134318 -0.00288794 -0.0118133)
(0.136305 -0.00235203 -0.0136581)
(0.129311 -0.00279632 -0.012507)
(0.121957 -0.00244335 -0.0103301)
(0.118529 -0.00130713 -0.00857534)
(0.116963 -0.000314557 -0.0086215)
(0.113178 0.000180501 -0.0110173)
(0.10631 0.000116881 -0.0152279)
(0.0991562 -0.000726311 -0.0203419)
(0.0954076 -0.0023774 -0.0242148)
(0.0977235 -0.00367639 -0.0239932)
(0.105113 -0.0038165 -0.0199233)
(0.113383 -0.00422709 -0.0148366)
(0.121358 -0.00578969 -0.00943692)
(0.131891 -0.00630856 -0.00218756)
(0.14021 -0.00673011 0.000233234)
(0.143655 -0.00198321 0.00817677)
(0.13646 8.70742e-06 0.0112984)
(0.126772 -0.0016642 0.00901346)
(0.126121 -0.00312559 0.00470377)
(0.134884 -0.00174405 0.00366549)
(0.140741 0.000196021 0.00703739)
(0.136872 -0.000140893 0.0101014)
(0.131177 -0.00189632 0.00828337)
(0.134372 -0.00218136 0.00367129)
(0.140993 -0.00082562 0.00355696)
(0.137001 -0.000294175 0.00849909)
(0.121807 -0.00108838 0.0115001)
(0.105125 -0.00179332 0.00993031)
(0.094498 -0.00173669 0.00736791)
(0.0904355 -0.00138565 0.00622729)
(0.0902146 -0.0012947 0.00600055)
(0.091468 -0.00184679 0.00589015)
(0.0923796 -0.00343028 0.0062049)
(0.0915629 -0.00623577 0.00809614)
(0.0891979 -0.00956687 0.0119597)
(0.0883892 -0.0116929 0.0158281)
(0.0927904 -0.011722 0.0162013)
(0.103115 -0.0103315 0.0112909)
(0.118478 -0.00782615 0.00251945)
(0.133691 -0.00463471 -0.00621883)
(0.137785 -0.00253463 -0.0111437)
(0.127961 -0.00219195 -0.0113304)
(0.11518 -0.00230133 -0.00849347)
(0.110038 -0.00199399 -0.00512147)
(0.114188 -0.00112642 -0.00341413)
(0.121289 0.000255577 -0.00460719)
(0.122771 0.00127269 -0.00905013)
(0.117455 0.000692852 -0.0165241)
(0.110378 -0.00191149 -0.024739)
(0.107012 -0.00488181 -0.0289398)
(0.110065 -0.00606533 -0.0268907)
(0.117184 -0.0064162 -0.021486)
(0.123856 -0.00802448 -0.0156068)
(0.130943 -0.00925623 -0.00864804)
(0.139478 -0.00972774 -0.00427481)
(0.145404 -0.00374932 0.00359866)
(0.143609 0.000758684 0.00815454)
(0.134485 0.000104836 0.00784401)
(0.12683 -0.00291737 0.00423808)
(0.129898 -0.0032782 0.0015999)
(0.13997 -0.000576263 0.00326839)
(0.143628 0.000842544 0.00709638)
(0.13687 -0.00159603 0.00793914)
(0.131078 -0.00481506 0.00462086)
(0.137637 -0.00436999 0.00272768)
(0.147169 -0.0014318 0.0063348)
(0.142934 0.000111884 0.0104935)
(0.126623 -0.000178136 0.0105808)
(0.110434 -0.000837968 0.00896845)
(0.101366 -0.00127592 0.00840585)
(0.0990692 -0.00176513 0.00833209)
(0.101013 -0.00257007 0.00763337)
(0.104324 -0.00397983 0.00657897)
(0.105696 -0.00640579 0.00689115)
(0.103216 -0.00973985 0.0101314)
(0.0990909 -0.0125499 0.0153039)
(0.0984333 -0.0133836 0.0184835)
(0.104302 -0.0124627 0.0161492)
(0.11629 -0.0101618 0.00826228)
(0.129906 -0.00635832 -0.00172374)
(0.13475 -0.00240352 -0.00885552)
(0.125571 -0.000330509 -0.0101536)
(0.110926 -0.000352896 -0.00642871)
(0.101963 -0.00149934 -0.000793048)
(0.103951 -0.00217521 0.00330771)
(0.115399 -0.000865786 0.00368919)
(0.126949 0.00164535 -0.000352946)
(0.129902 0.00255285 -0.00876228)
(0.125491 0.000114947 -0.0195763)
(0.120065 -0.00414831 -0.0278106)
(0.118327 -0.00697759 -0.0293706)
(0.121505 -0.00801834 -0.0253173)
(0.127194 -0.00969108 -0.0191029)
(0.132667 -0.0115726 -0.0122368)
(0.140027 -0.0124944 -0.00707974)
(0.14562 -0.00682774 -0.000599519)
(0.147472 -0.000384195 0.00369961)
(0.142632 0.0013331 0.00505381)
(0.13365 -0.00134073 0.00339373)
(0.128597 -0.00369075 0.000656874)
(0.133743 -0.00236852 0.000630299)
(0.14327 0.000379485 0.00388938)
(0.145714 -0.000236036 0.00650519)
(0.138727 -0.00480559 0.00531571)
(0.134959 -0.00800886 0.00304798)
(0.143841 -0.00590414 0.00492653)
(0.151693 -0.00139799 0.00909427)
(0.144907 0.00117355 0.0102527)
(0.129398 0.00131026 0.00933194)
(0.116228 0.000210635 0.00953424)
(0.109656 -0.0015289 0.0104032)
(0.109547 -0.00354406 0.0100709)
(0.114358 -0.00532099 0.00817258)
(0.119353 -0.0069939 0.00645641)
(0.118877 -0.00938315 0.00776012)
(0.113064 -0.0121243 0.012779)
(0.107821 -0.0136238 0.0179147)
(0.108296 -0.0134335 0.0182022)
(0.115312 -0.01161 0.0120616)
(0.125408 -0.00750432 0.00217055)
(0.130449 -0.00206128 -0.00634162)
(0.124904 0.00170712 -0.00936094)
(0.113567 0.00224759 -0.00648704)
(0.104481 0.000287891 -0.000103566)
(0.102331 -0.00206918 0.00621048)
(0.1096 -0.00210395 0.00905073)
(0.1229 0.00083635 0.00691558)
(0.133299 0.00364573 -0.00031692)
(0.135894 0.00261379 -0.0113347)
(0.133374 -0.00191367 -0.0219361)
(0.13034 -0.00605414 -0.0273277)
(0.12885 -0.00809938 -0.0265895)
(0.130305 -0.0102586 -0.0216726)
(0.134488 -0.0129518 -0.0145689)
(0.14146 -0.0141301 -0.00942322)
(0.146379 -0.0100645 -0.00342755)
(0.148371 -0.00331433 -0.000167524)
(0.146206 0.000717246 0.00178518)
(0.140062 0.000106755 0.00229274)
(0.132783 -0.00247467 0.000718283)
(0.130774 -0.00326537 -0.000339757)
(0.137516 -0.00166026 0.00169831)
(0.146379 -0.000936818 0.00482558)
(0.146996 -0.00397107 0.0052963)
(0.140174 -0.008633 0.00344185)
(0.139906 -0.00944434 0.00390265)
(0.148664 -0.00500194 0.00745549)
(0.152018 0.000282178 0.0092656)
(0.143766 0.00285055 0.00860526)
(0.131177 0.00266031 0.00900299)
(0.121561 0.000352884 0.0104235)
(0.117697 -0.00349685 0.0100988)
(0.121232 -0.007054 0.00756938)
(0.129996 -0.00852832 0.00473645)
(0.134568 -0.00916901 0.00439684)
(0.12951 -0.0108842 0.00853826)
(0.120562 -0.0126172 0.0148465)
(0.115409 -0.012812 0.0177161)
(0.11649 -0.0113609 0.0141364)
(0.122064 -0.00768711 0.00581805)
(0.126769 -0.00191231 -0.00307353)
(0.125308 0.00302246 -0.00837762)
(0.118758 0.00432234 -0.00816541)
(0.111998 0.00220342 -0.00320871)
(0.108634 -0.000927832 0.00357315)
(0.111002 -0.00219153 0.00843501)
(0.119593 -0.000113283 0.00911443)
(0.130773 0.00331496 0.00507965)
(0.139582 0.00400024 -0.00348919)
(0.143317 0.000511207 -0.0141436)
(0.14254 -0.00402611 -0.0221389)
(0.139085 -0.00679329 -0.0249869)
(0.135759 -0.00944086 -0.0231793)
(0.136636 -0.0129805 -0.0172263)
(0.144555 -0.0146314 -0.0120924)
(0.148289 -0.0124124 -0.00590637)
(0.148316 -0.00670138 -0.00278042)
(0.145458 -0.00145242 -0.000643195)
(0.141993 0.000532637 0.00155781)
(0.137682 -0.000625241 0.0016424)
(0.133927 -0.00261916 0.000158443)
(0.135708 -0.0033911 0.000674774)
(0.143439 -0.00331724 0.00349338)
(0.148566 -0.00470171 0.00499112)
(0.145061 -0.00827806 0.00346036)
(0.139991 -0.0107304 0.00243131)
(0.142884 -0.00819711 0.00482397)
(0.148116 -0.00220131 0.00758161)
(0.145571 0.00282798 0.00829982)
(0.136409 0.00472833 0.00874262)
(0.127917 0.00326246 0.00892334)
(0.123622 -0.0013901 0.0064723)
(0.124687 -0.00735274 0.00214598)
(0.133749 -0.0104251 -0.000870034)
(0.145116 -0.00953976 -0.000867437)
(0.145556 -0.00896347 0.00324137)
(0.135141 -0.0103316 0.0103565)
(0.124559 -0.0109875 0.0154632)
(0.119977 -0.00946914 0.0145512)
(0.12115 -0.00596314 0.00849879)
(0.124652 -0.00080632 0.000549883)
(0.125965 0.00406443 -0.00630778)
(0.123697 0.00578757 -0.0096362)
(0.120041 0.00381657 -0.00804622)
(0.117625 0.000399938 -0.00273904)
(0.11803 -0.00144741 0.0026772)
(0.121651 -0.000351523 0.00549112)
(0.128403 0.0021452 0.00510576)
(0.138122 0.00304194 0.000791048)
(0.147696 0.00119023 -0.0075704)
(0.1513 -0.00187965 -0.0164866)
(0.148149 -0.0044565 -0.0218518)
(0.142911 -0.00763655 -0.0227566)
(0.141253 -0.0121177 -0.0190894)
(0.150143 -0.0138832 -0.0141323)
(0.15141 -0.0128369 -0.00893541)
(0.148308 -0.00863459 -0.00584484)
(0.143312 -0.00376319 -0.00272889)
(0.140504 -0.000335876 0.00141017)
(0.139345 0.000510159 0.00315344)
(0.137958 -0.00113925 0.00143567)
(0.138352 -0.00368911 0.000465403)
(0.143154 -0.00517057 0.00279309)
(0.148486 -0.00568261 0.00516625)
(0.147751 -0.00734366 0.00380007)
(0.141506 -0.00986146 0.000982284)
(0.136933 -0.00945397 0.00180654)
(0.136062 -0.00466659 0.00584086)
(0.133726 0.00103274 0.00912001)
(0.129422 0.00435577 0.00963181)
(0.127378 0.00450726 0.00655575)
(0.127897 0.00116706 0.000367975)
(0.12841 -0.00543548 -0.00533332)
(0.132857 -0.0113489 -0.00693695)
(0.145634 -0.011449 -0.00492649)
(0.154502 -0.00809795 -0.000488477)
(0.148031 -0.00716787 0.00627423)
(0.133949 -0.00781914 0.0124432)
(0.123978 -0.00647485 0.0139375)
(0.121811 -0.0029148 0.0102579)
(0.125081 0.00129307 0.0036778)
(0.129136 0.00476345 -0.00370526)
(0.130443 0.00594645 -0.00967257)
(0.129342 0.0042416 -0.0116714)
(0.128406 0.00124363 -0.00935414)
(0.128819 -0.000340572 -0.00535391)
(0.130145 0.000402622 -0.00178638)
(0.132651 0.00125226 0.000911225)
(0.138574 0.00034203 0.000891817)
(0.148151 -0.000923567 -0.0041295)
(0.155003 -0.00128308 -0.0121488)
(0.154239 -0.00215838 -0.0187042)
(0.149914 -0.00555267 -0.021417)
(0.148156 -0.0107167 -0.0195162)
(0.156534 -0.011516 -0.0148197)
(0.156385 -0.0109938 -0.0114023)
(0.15118 -0.00861096 -0.00894822)
(0.143854 -0.0052948 -0.00506648)
(0.139581 -0.00146947 0.000736472)
(0.138906 0.00116054 0.00432236)
(0.139622 0.00053323 0.0034441)
(0.141169 -0.00288934 0.00163311)
(0.144627 -0.00596509 0.00281248)
(0.14859 -0.0064346 0.0053549)
(0.148435 -0.00596413 0.00442212)
(0.141989 -0.00676354 0.000248975)
(0.132617 -0.00722299 -0.00143867)
(0.125524 -0.00478583 0.00157438)
(0.122192 -0.000530592 0.00518752)
(0.12261 0.00273612 0.00517726)
(0.126733 0.00390382 0.000870433)
(0.131563 0.00246438 -0.00522917)
(0.133568 -0.00283215 -0.00886348)
(0.13496 -0.0106141 -0.00748123)
(0.142991 -0.0143706 -0.00298922)
(0.154215 -0.010829 0.00154925)
(0.153821 -0.00615273 0.0063492)
(0.140957 -0.00460813 0.0112588)
(0.128029 -0.00339379 0.0132148)
(0.12312 -0.000342674 0.0106977)
(0.12537 0.0030336 0.00528116)
(0.129603 0.00493703 -0.00102487)
(0.131607 0.0048709 -0.00634164)
(0.131429 0.0030231 -0.00886649)
(0.132176 0.000516117 -0.00863876)
(0.134894 -0.000622136 -0.00708373)
(0.137691 0.000259399 -0.00428879)
(0.139353 0.000664103 -0.000252298)
(0.141184 -0.00124032 0.00166829)
(0.145874 -0.00280611 -0.00191531)
(0.152409 -0.00164023 -0.00911656)
(0.156133 -0.000610209 -0.0155098)
(0.156011 -0.00343 -0.0187726)
(0.155361 -0.0085562 -0.0182379)
(0.161439 -0.00832544 -0.0143066)
(0.161612 -0.00815904 -0.0127266)
(0.157118 -0.00716583 -0.0113015)
(0.148175 -0.00554958 -0.00794871)
(0.140887 -0.00212304 -0.00168839)
(0.138689 0.00163075 0.00411047)
(0.140187 0.00216443 0.00595633)
(0.14279 -0.00124841 0.00460968)
(0.145457 -0.00516467 0.00364488)
(0.147816 -0.00619562 0.0047267)
(0.14778 -0.00493292 0.00498983)
(0.143168 -0.00406864 0.00185784)
(0.134871 -0.003743 -0.00217748)
(0.127204 -0.00231016 -0.00331083)
(0.12401 2.66541e-05 -0.00195937)
(0.125723 0.00163622 -0.00121789)
(0.13044 0.00228156 -0.00285604)
(0.135746 0.00209082 -0.00622713)
(0.139781 -0.000936667 -0.00843852)
(0.142261 -0.00826292 -0.0065071)
(0.146179 -0.0151485 -0.00104601)
(0.1528 -0.0143434 0.00416777)
(0.153787 -0.00767527 0.00760678)
(0.144508 -0.00256262 0.0107337)
(0.132448 -9.29803e-05 0.0128874)
(0.125611 0.0020507 0.0118184)
(0.124685 0.00412938 0.0076361)
(0.125646 0.00522841 0.00280035)
(0.125727 0.0047175 -0.000352717)
(0.125764 0.00244564 -0.00142357)
(0.128176 -0.000503742 -0.00188335)
(0.133238 -0.00180625 -0.00239255)
(0.138073 -0.000667142 -0.000918588)
(0.140079 0.000416277 0.00313064)
(0.139878 -0.000814297 0.00494815)
(0.140697 -0.0024667 0.000633295)
(0.145342 -0.00194695 -0.00669231)
(0.152742 -0.000811051 -0.0121494)
(0.15862 -0.0023027 -0.0147676)
(0.160659 -0.00596671 -0.0153881)
(0.164708 -0.00489051 -0.012315)
(0.16614 -0.00511985 -0.0127551)
(0.163079 -0.00501171 -0.0128835)
(0.153733 -0.00431649 -0.0109068)
(0.143831 -0.00165129 -0.00508457)
(0.139142 0.00204323 0.00210992)
(0.139951 0.00323484 0.00650565)
(0.143034 0.000352421 0.00683187)
(0.145408 -0.00375882 0.00521148)
(0.146157 -0.00551318 0.00461923)
(0.145032 -0.00456067 0.00483603)
(0.141459 -0.00286741 0.00320903)
(0.136099 -0.00149983 -0.000514911)
(0.131928 -0.000190593 -0.00367486)
(0.131426 0.000897447 -0.0043316)
(0.133621 0.00110459 -0.00310158)
(0.136232 0.000773808 -0.00215686)
(0.139057 0.000863241 -0.00335998)
(0.14245 0.000170631 -0.00571403)
(0.145366 -0.0043077 -0.00566962)
(0.147952 -0.0114154 -0.00183141)
(0.151611 -0.0140023 0.00323152)
(0.153157 -0.00883133 0.00705623)
(0.147919 -0.00152186 0.00991034)
(0.138468 0.00330743 0.0116259)
(0.130572 0.00553075 0.0112142)
(0.126088 0.0059203 0.00912254)
(0.123666 0.00503667 0.00663253)
(0.122702 0.00321884 0.00451883)
(0.123995 0.000441339 0.00311059)
(0.127986 -0.00280739 0.00217542)
(0.133343 -0.00448016 0.00130899)
(0.137568 -0.00290213 0.00155463)
(0.13915 0.000200902 0.00413059)
(0.138875 0.00144402 0.00620163)
(0.13883 0.000495455 0.00335093)
(0.141555 -0.000425657 -0.00324115)
(0.148447 -0.000735905 -0.00846078)
(0.156753 -0.00172278 -0.0105591)
(0.162122 -0.00354982 -0.0115278)
(0.165082 -0.00270095 -0.0100796)
(0.167834 -0.00262837 -0.011199)
(0.166449 -0.00257361 -0.0125439)
(0.158733 -0.00187665 -0.0128139)
(0.148922 0.000429977 -0.009231)
(0.142611 0.00314101 -0.00211514)
(0.140792 0.00354152 0.00449204)
(0.141448 0.000913462 0.00733627)
(0.142503 -0.00227685 0.00665628)
(0.142801 -0.00342325 0.00537881)
(0.141918 -0.00268363 0.0049734)
(0.140034 -0.00157996 0.00367405)
(0.138236 -0.000602593 0.000521614)
(0.138186 0.000135537 -0.00243938)
(0.139882 -7.13279e-06 -0.00313724)
(0.140844 -0.00112617 -0.00170275)
(0.13954 -0.00199514 0.000345636)
(0.138024 -0.00111518 0.00131764)
(0.139146 0.000349298 0.000946988)
(0.142758 -0.00169634 0.00103653)
(0.146804 -0.00816212 0.00311088)
(0.149865 -0.0125154 0.00593567)
(0.15038 -0.00868964 0.00727283)
(0.146139 -4.89247e-05 0.00796777)
(0.138293 0.00651155 0.00922495)
(0.130739 0.00845839 0.00979829)
(0.125712 0.00702711 0.00894293)
(0.123152 0.00464659 0.00769896)
(0.122663 0.00296805 0.0070463)
(0.124346 0.00163482 0.00664981)
(0.128202 -0.000604365 0.00572526)
(0.133156 -0.00294838 0.00448104)
(0.137027 -0.00267818 0.00425301)
(0.138607 0.000556216 0.00578967)
(0.138998 0.00349902 0.00727048)
(0.13995 0.00387163 0.00546386)
(0.142523 0.0025437 0.000257904)
(0.147555 0.000753313 -0.00493259)
(0.154498 -0.00104345 -0.00780612)
(0.160749 -0.00229937 -0.00907101)
(0.164591 -0.00199663 -0.00923079)
(0.167036 -0.000389219 -0.00969606)
(0.165812 0.000555329 -0.0105196)
(0.161476 0.000852693 -0.0114919)
(0.156236 0.00200579 -0.0106849)
(0.15197 0.00398931 -0.00655301)
(0.148283 0.00433134 -0.000747815)
(0.144437 0.00172892 0.00357419)
(0.141047 -0.0017441 0.0050778)
(0.139212 -0.00322048 0.00509179)
(0.139505 -0.00247905 0.00522634)
(0.141912 -0.00118012 0.00499031)
(0.145922 -0.000106292 0.00325775)
(0.150155 0.000542843 0.000728865)
(0.151974 1.10011e-05 -0.000434215)
(0.149415 -0.00147967 0.00120865)
(0.143835 -0.00199273 0.00477192)
(0.139236 -0.000271055 0.00729357)
(0.139101 0.00218051 0.00605808)
(0.142861 0.00167936 0.0022336)
(0.147053 -0.00356151 0.000862768)
(0.149379 -0.00899446 0.00417648)
(0.149005 -0.00746568 0.00785708)
(0.145243 0.000911824 0.00834107)
(0.138739 0.00889154 0.00731009)
(0.132513 0.0118567 0.00678958)
(0.129009 0.0104998 0.00666808)
(0.127956 0.00737498 0.00612835)
(0.128064 0.00454695 0.0049535)
(0.12893 0.0026953 0.00381245)
(0.130892 0.00129365 0.00353119)
(0.133994 0.000225491 0.00399152)
(0.137392 0.000447567 0.00463788)
(0.140147 0.00230509 0.00569473)
(0.141801 0.00435643 0.00717255)
(0.142578 0.00488715 0.00723107)
(0.143608 0.00354466 0.00395078)
(0.146452 0.000931807 -0.00150513)
(0.15206 -0.00167165 -0.00610498)
(0.159033 -0.00277476 -0.0084157)
(0.162261 -0.0052035 -0.00842406)
(0.163998 -0.00138657 -0.00810204)
(0.162253 0.00217891 -0.00788131)
(0.15803 0.00343072 -0.00846936)
(0.153788 0.00362532 -0.00872078)
(0.151791 0.0044236 -0.00735948)
(0.151716 0.00503265 -0.00449462)
(0.151142 0.00371408 -0.00126226)
(0.148285 0.000461053 0.00121077)
(0.143909 -0.00307156 0.00275703)
(0.14057 -0.00580879 0.00407423)
(0.140656 -0.00784181 0.00519614)
(0.144974 -0.00865475 0.00520333)
(0.151768 -0.00719703 0.00367094)
(0.156561 -0.00397732 0.00163558)
(0.155347 -0.00112308 0.00120231)
(0.148965 0.000746421 0.0031592)
(0.142116 0.0029758 0.00493786)
(0.138925 0.00523367 0.00318395)
(0.139785 0.00509034 -0.00170228)
(0.142575 0.00136061 -0.00505246)
(0.145676 -0.00386193 -0.0028837)
(0.147278 -0.0058241 0.00274366)
(0.145968 -0.00152927 0.00660376)
(0.142792 0.0061006 0.00703011)
(0.140362 0.0117988 0.00543285)
(0.139995 0.0132129 0.00286989)
(0.140327 0.0111534 0.000111604)
(0.139702 0.00769096 -0.00161528)
(0.138444 0.00460288 -0.00143272)
(0.137697 0.00262631 0.000444662)
(0.13796 0.00175209 0.00283837)
(0.138705 0.00192904 0.00459994)
(0.139216 0.00282046 0.00574447)
(0.139547 0.00353773 0.00687715)
(0.140215 0.00351419 0.00744439)
(0.141989 0.0026374 0.00580918)
(0.145623 0.000376099 0.00159065)
(0.151221 -0.00320952 -0.0034668)
(0.157471 -0.00594072 -0.00713382)
(0.157276 -0.00193091 -0.00782701)
(0.153742 0.00228489 -0.00842354)
(0.149172 0.00556366 -0.00807664)
(0.145641 0.00619154 -0.00757255)
(0.143836 0.00496615 -0.00720959)
(0.143925 0.00356343 -0.00710016)
(0.145844 0.00260286 -0.00693557)
(0.149152 0.00167865 -0.00589759)
(0.152692 0.000356915 -0.00359955)
(0.154585 -0.00138678 -0.000746992)
(0.153531 -0.00362574 0.00178426)
(0.150504 -0.00665095 0.00391638)
(0.148191 -0.00977822 0.00586931)
(0.148603 -0.0110528 0.0073641)
(0.151048 -0.00922896 0.00756253)
(0.152275 -0.00511503 0.00605254)
(0.14989 -0.000310535 0.00382048)
(0.145067 0.0037745 0.00202862)
(0.141024 0.00542865 0.00023422)
(0.139589 0.0034744 -0.00229618)
(0.140586 -0.000892617 -0.00425309)
(0.143587 -0.0045562 -0.0030981)
(0.147048 -0.00498631 0.00129933)
(0.14847 -0.00170424 0.00590381)
(0.147876 0.00372478 0.0077245)
(0.147515 0.00861023 0.00568777)
(0.148224 0.0111012 0.000590619)
(0.148739 0.010879 -0.00519278)
(0.148082 0.00832558 -0.00893284)
(0.146612 0.00454266 -0.0092464)
(0.144944 0.00164193 -0.00641636)
(0.143435 0.00123319 -0.00175605)
(0.142233 0.00275801 0.00305886)
(0.141161 0.00405572 0.00696859)
(0.140273 0.00337788 0.00995411)
(0.140291 0.000900387 0.0117978)
(0.142296 -0.00183427 0.011067)
(0.146894 -0.00384108 0.00675536)
(0.152859 -0.0049253 0.000349149)
(0.157131 -0.00455543 -0.00507726)
(0.16106 0.0033821 -0.000159846)
(0.162193 0.00724924 -0.00426188)
(0.160411 0.0094295 -0.00784124)
(0.156212 0.00876825 -0.0106009)
(0.151514 0.00621934 -0.0117884)
(0.148474 0.00332097 -0.0113157)
(0.147957 0.000770844 -0.00990929)
(0.149643 -0.00132747 -0.00821695)