/*--------------------------------*- C++ -*----------------------------------*\
| =========                 |                                                 |
| \\      /  F ield         | OpenFOAM: The Open Source CFD Toolbox           |
|  \\    /   O peration     | Version:  2306                                  |
|   \\  /    A nd           | Website:  www.openfoam.com                      |
|    \\/     M anipulation  |                                                 |
\*---------------------------------------------------------------------------*/
FoamFile
{
    version     2.0;
    format      ascii;
    arch        "LSB;label=32;scalar=64";
    class       surfaceScalarField;
    location    "3.5";
    object      phi;
}
// * * * * * * * * * * * * * * * * * * * * * * * * * * * * * * * * * * * * * //

dimensions      [0 3 -1 0 0 0 0];

oriented        oriented;

internalField   nonuniform List<scalar> 
175300
(
6.41796e-06
1.09618e-06
8.48286e-07
6.39183e-06
9.28523e-07
1.49314e-06
6.24264e-06
4.41773e-07
2.06529e-06
6.08692e-06
-4.05188e-08
2.31624e-06
5.97098e-06
-2.621e-07
2.25287e-06
5.86447e-06
-2.12932e-07
1.97963e-06
5.73782e-06
-8.06372e-08
1.60973e-06
5.57285e-06
-2.07769e-08
1.27424e-06
5.30093e-06
-2.30619e-08
1.10593e-06
4.84176e-06
-3.94178e-08
1.13843e-06
4.26864e-06
-1.23727e-07
1.28282e-06
3.7943e-06
-3.19772e-07
1.39182e-06
3.56929e-06
-5.5582e-07
1.42329e-06
3.57712e-06
-7.48177e-07
1.3953e-06
3.7058e-06
-8.26489e-07
1.26416e-06
3.81711e-06
-6.93309e-07
9.80723e-07
3.87221e-06
-3.81882e-07
5.88172e-07
3.97082e-06
-9.5037e-08
1.91375e-07
4.16331e-06
9.52807e-08
-1.37313e-07
4.39125e-06
2.3873e-07
-3.82639e-07
4.59448e-06
3.22036e-07
-5.67221e-07
4.78318e-06
2.23835e-07
-6.98229e-07
5.01796e-06
-9.95367e-08
-8.19805e-07
5.3353e-06
-4.20982e-07
-1.05061e-06
5.65331e-06
-5.06272e-07
-1.41292e-06
5.82621e-06
-3.88862e-07
-1.72008e-06
5.76464e-06
-2.07197e-07
-1.85598e-06
5.44472e-06
5.61073e-08
-1.96469e-06
4.91162e-06
3.10132e-07
-2.05161e-06
4.38082e-06
2.05269e-07
-1.95489e-06
4.06123e-06
-1.87819e-07
-1.79803e-06
3.93098e-06
-3.79607e-07
-1.80204e-06
3.92334e-06
-2.74627e-07
-1.89125e-06
4.04521e-06
-9.31059e-08
-1.79539e-06
4.2883e-06
1.57803e-07
-1.43011e-06
4.59341e-06
5.21149e-07
-9.44714e-07
4.93602e-06
8.38287e-07
-5.36484e-07
5.36337e-06
8.64052e-07
-2.44701e-07
5.84331e-06
7.68427e-07
5.57593e-08
8.95261e-07
3.61299e-07
2.14308e-05
3.04732e-06
3.13943e-06
2.16432e-05
2.31459e-06
4.90645e-06
2.13241e-05
8.1001e-07
6.20618e-06
2.07638e-05
-5.11684e-07
6.62183e-06
2.02479e-05
-1.0269e-06
6.34893e-06
1.9829e-05
-8.10704e-07
5.69184e-06
1.94085e-05
-4.13133e-07
4.83335e-06
1.88397e-05
-1.97663e-07
3.98351e-06
1.79102e-05
-1.30658e-07
3.45347e-06
1.64641e-05
-1.55629e-07
3.42519e-06
1.47251e-05
-4.644e-07
3.78312e-06
1.32441e-05
-1.19865e-06
4.18139e-06
1.24247e-05
-2.10929e-06
4.3672e-06
1.22304e-05
-2.77934e-06
4.22527e-06
1.23528e-05
-2.88669e-06
3.68311e-06
1.24962e-05
-2.26766e-06
2.76572e-06
1.26485e-05
-1.20276e-06
1.664e-06
1.30133e-05
-3.11015e-07
6.14339e-07
1.36327e-05
2.52199e-07
-2.60425e-07
1.437e-05
6.14994e-07
-9.48104e-07
1.51439e-05
7.20439e-07
-1.49012e-06
1.59951e-05
1.4202e-07
-1.90926e-06
1.70171e-05
-1.04963e-06
-2.34749e-06
1.81835e-05
-2.07969e-06
-3.07923e-06
1.92208e-05
-2.26373e-06
-4.08547e-06
1.97492e-05
-1.75724e-06
-4.89772e-06
1.95066e-05
-9.822e-07
-5.25443e-06
1.84653e-05
-1.95966e-08
-5.42006e-06
1.68922e-05
6.9192e-07
-5.41783e-06
1.5332e-05
2.658e-07
-5.13727e-06
1.41598e-05
-8.52126e-07
-4.9927e-06
1.33946e-05
-1.29254e-06
-5.30544e-06
1.30925e-05
-9.46956e-07
-5.60262e-06
1.33586e-05
-4.11795e-07
-5.17957e-06
1.4105e-05
4.08747e-07
-3.98535e-06
1.51202e-05
1.61367e-06
-2.55219e-06
1.63249e-05
2.62481e-06
-1.37473e-06
1.77649e-05
2.66305e-06
-4.51805e-07
1.93082e-05
2.40383e-06
4.43445e-07
2.67924e-06
1.58255e-06
3.99932e-05
4.80514e-06
5.35315e-06
4.08743e-05
3.28994e-06
8.30633e-06
4.05501e-05
6.08163e-07
1.03738e-05
3.94382e-05
-1.55144e-06
1.09399e-05
3.82635e-05
-2.25435e-06
1.04224e-05
3.73719e-05
-1.75593e-06
9.46889e-06
3.6616e-05
-1.032e-06
8.33247e-06
3.56565e-05
-5.95075e-07
7.11666e-06
3.41291e-05
-3.70513e-07
6.13926e-06
3.17838e-05
-3.39807e-07
5.7647e-06
2.88375e-05
-8.36249e-07
6.08536e-06
2.60298e-05
-2.20753e-06
6.79706e-06
2.4104e-05
-4.1195e-06
7.36983e-06
2.32251e-05
-5.63016e-06
7.30355e-06
2.30074e-05
-5.89207e-06
6.44836e-06
2.30014e-05
-4.63548e-06
4.98834e-06
2.31824e-05
-2.55237e-06
3.26755e-06
2.38104e-05
-8.49718e-07
1.60844e-06
2.48993e-05
1.56323e-07
2.35726e-07
2.62455e-05
7.87385e-07
-9.31073e-07
2.7763e-05
7.15626e-07
-1.8198e-06
2.95289e-05
-8.12863e-07
-2.46266e-06
3.16397e-05
-3.52326e-06
-3.12614e-06
3.39704e-05
-5.73631e-06
-4.31794e-06
3.60381e-05
-6.06198e-06
-6.06631e-06
3.72084e-05
-4.80239e-06
-7.61749e-06
3.70146e-05
-2.86782e-06
-8.39947e-06
3.53985e-05
-6.5502e-07
-8.63604e-06
3.28314e-05
8.13294e-07
-8.4149e-06
3.01277e-05
4.4543e-08
-7.82389e-06
2.77759e-05
-1.92915e-06
-7.65316e-06
2.58492e-05
-2.64272e-06
-8.39341e-06
2.46564e-05
-2.02454e-06
-9.23005e-06
2.46266e-05
-1.17412e-06
-8.88281e-06
2.57193e-05
2.14636e-07
-7.09262e-06
2.75179e-05
2.47979e-06
-4.73613e-06
2.9784e-05
4.42844e-06
-2.71593e-06
3.25023e-05
4.50768e-06
-1.08728e-06
3.54266e-05
3.92844e-06
5.86711e-07
4.32252e-06
2.63921e-06
6.19622e-05
5.17963e-06
6.45091e-06
6.4192e-05
2.99719e-06
1.09081e-05
6.42672e-05
-6.36912e-07
1.42132e-05
6.25407e-05
-3.27032e-06
1.52592e-05
6.03738e-05
-3.87078e-06
1.44856e-05
5.87654e-05
-2.94429e-06
1.31425e-05
5.76528e-05
-1.86249e-06
1.18761e-05
5.64367e-05
-1.19803e-06
1.0605e-05
5.45616e-05
-7.63289e-07
9.28978e-06
5.16513e-05
-5.83634e-07
8.26176e-06
4.77048e-05
-1.04439e-06
8.02595e-06
4.33344e-05
-2.76424e-06
8.79073e-06
3.95667e-05
-5.67505e-06
1.00224e-05
3.71277e-05
-8.44679e-06
1.0546e-05
3.59254e-05
-9.38687e-06
9.74397e-06
3.54045e-05
-7.76844e-06
7.9576e-06
3.54125e-05
-4.66073e-06
5.78304e-06
3.61917e-05
-2.02791e-06
3.62337e-06
3.77059e-05
-4.48653e-07
1.74745e-06
3.96653e-05
3.59456e-07
3.34786e-07
4.19728e-05
-1.28092e-07
-8.01991e-07
4.47634e-05
-3.13108e-06
-1.45022e-06
4.81822e-05
-8.29336e-06
-1.99215e-06
5.20485e-05
-1.25111e-05
-3.42313e-06
5.5662e-05
-1.32211e-05
-6.09149e-06
5.80771e-05
-1.07586e-05
-8.96711e-06
5.85447e-05
-6.816e-06
-1.084e-05
5.6862e-05
-2.45847e-06
-1.15922e-05
5.35919e-05
3.8843e-07
-1.12544e-05
4.97898e-05
-5.05432e-07
-1.0086e-05
4.60811e-05
-3.32023e-06
-9.45575e-06
4.25151e-05
-4.27499e-06
-1.0426e-05
3.95529e-05
-3.35966e-06
-1.21545e-05
3.82043e-05
-2.41224e-06
-1.27294e-05
3.89554e-05
-9.33784e-07
-1.11698e-05
4.13246e-05
2.06818e-06
-8.2756e-06
4.4744e-05
4.83086e-06
-5.46406e-06
4.90151e-05
4.98911e-06
-3.11962e-06
5.37336e-05
3.66339e-06
-3.72694e-07
4.34391e-06
2.50647e-06
8.60743e-05
2.20662e-06
4.91445e-06
9.07007e-05
3.09541e-08
1.13128e-05
9.20732e-05
-3.821e-06
1.6755e-05
8.99913e-05
-6.00998e-06
1.92471e-05
8.65097e-05
-5.83666e-06
1.85925e-05
8.38291e-05
-4.23442e-06
1.66014e-05
8.233e-05
-2.75382e-06
1.5039e-05
8.1099e-05
-1.91136e-06
1.40657e-05
7.92672e-05
-1.29827e-06
1.29568e-05
7.63384e-05
-9.34728e-07
1.13381e-05
7.19954e-05
-1.08653e-06
9.90307e-06
6.63342e-05
-2.51288e-06
9.92567e-06
6.02201e-05
-5.84801e-06
1.17017e-05
5.50423e-05
-9.9823e-06
1.34902e-05
5.16711e-05
-1.23761e-05
1.34355e-05
4.98613e-05
-1.12444e-05
1.16561e-05
4.92412e-05
-7.52882e-06
9.2368e-06
4.98619e-05
-4.01906e-06
6.81344e-06
5.15513e-05
-1.77202e-06
4.68736e-06
5.38664e-05
-6.09806e-07
3.06794e-06
5.66336e-05
-1.67454e-06
2.16056e-06
6.00771e-05
-6.94946e-06
2.15268e-06
6.45773e-05
-1.58994e-05
2.5619e-06
7.01841e-05
-2.37086e-05
1.66778e-06
7.61186e-05
-2.57048e-05
-1.86148e-06
8.09361e-05
-2.17008e-05
-6.98993e-06
8.33187e-05
-1.4514e-05
-1.13501e-05
8.2682e-05
-6.51593e-06
-1.38508e-05
7.94604e-05
-1.08066e-06
-1.41063e-05
7.49051e-05
-1.51119e-06
-1.23147e-05
6.99462e-05
-4.98006e-06
-1.05772e-05
6.46923e-05
-6.02765e-06
-1.11205e-05
5.94252e-05
-4.62743e-06
-1.35888e-05
5.54266e-05
-3.60114e-06
-1.57193e-05
5.41954e-05
-2.64455e-06
-1.56697e-05
5.5977e-05
5.41941e-08
-1.34579e-05
6.0067e-05
2.81473e-06
-1.05609e-05
6.58977e-05
2.29577e-06
-7.85248e-06
7.27715e-05
-3.40354e-07
-4.65661e-06
-5.99159e-08
-2.2087e-08
0.000108587
-8.37831e-06
-9.40815e-07
0.000117252
-8.37254e-06
6.89049e-06
0.000121897
-1.10428e-05
1.56454e-05
0.000120618
-1.09372e-05
2.15143e-05
0.000115793
-8.42593e-06
2.25671e-05
0.0001116
-5.5865e-06
2.01165e-05
0.000109662
-3.67683e-06
1.76045e-05
0.000108783
-2.69644e-06
1.6773e-05
0.000107466
-1.94856e-06
1.66958e-05
0.000105113
-1.4867e-06
1.54233e-05
0.000101295
-1.25807e-06
1.26186e-05
9.54384e-05
-1.71514e-06
1.0654e-05
8.75205e-05
-4.3506e-06
1.19616e-05
7.88558e-05
-9.12293e-06
1.52841e-05
7.16402e-05
-1.3278e-05
1.69837e-05
6.70175e-05
-1.37994e-05
1.58027e-05
6.48234e-05
-1.05056e-05
1.32859e-05
6.46925e-05
-6.50471e-06
1.07543e-05
6.60592e-05
-3.55288e-06
8.64726e-06
6.81322e-05
-1.76495e-06
7.18939e-06
7.04699e-05
-3.28238e-06
6.90166e-06
7.33052e-05
-1.14457e-05
8.36881e-06
7.74068e-05
-2.56619e-05
1.08998e-05
8.35833e-05
-3.89795e-05
1.19514e-05
9.19846e-05
-4.45347e-05
8.92759e-06
0.000101164
-4.05295e-05
1.73281e-06
0.000108233
-2.8942e-05
-7.23454e-06
0.000111039
-1.49387e-05
-1.3849e-05
0.000109495
-4.68167e-06
-1.64961e-05
0.000105029
-3.38945e-06
-1.48965e-05
9.92195e-05
-7.04631e-06
-1.17157e-05
9.27383e-05
-7.90675e-06
-1.08835e-05
8.56599e-05
-5.68067e-06
-1.32518e-05
7.87171e-05
-4.12727e-06
-1.66491e-05
7.38e-05
-3.48032e-06
-1.87702e-05
7.2518e-05
-1.82123e-06
-1.88608e-05
7.51722e-05
-7.48096e-07
-1.76885e-05
8.12625e-05
-3.85717e-06
-1.59727e-05
8.96555e-05
-9.37217e-06
-1.30573e-05
-1.05047e-05
-8.17912e-06
0.000123363
-2.31495e-05
-1.40011e-05
0.000136199
-2.41298e-05
-4.59842e-06
0.000147639
-2.61948e-05
7.27307e-06
0.000150787
-2.13734e-05
1.87142e-05
0.000145829
-1.29814e-05
2.48147e-05
0.000139777
-7.2075e-06
2.39867e-05
0.000137348
-4.96539e-06
2.01545e-05
0.000137484
-3.98751e-06
1.82067e-05
0.000137355
-2.86621e-06
1.92297e-05
0.000135985
-2.28934e-06
2.0079e-05
0.000133469
-2.04548e-06
1.72366e-05
0.000129091
-1.43543e-06
1.2432e-05
0.000121529
-2.30349e-06
1.13061e-05
0.000110495
-6.11013e-06
1.5223e-05
9.83972e-05
-1.09559e-05
1.94598e-05
8.87236e-05
-1.35032e-05
1.99645e-05
8.31405e-05
-1.2083e-05
1.76587e-05
8.12748e-05
-8.63955e-06
1.49138e-05
8.1812e-05
-5.19454e-06
1.27216e-05
8.33392e-05
-2.46863e-06
1.13231e-05
8.49792e-05
-4.07725e-06
1.14621e-05
8.66388e-05
-1.50413e-05
1.41713e-05
8.89442e-05
-3.47795e-05
1.89293e-05
9.29912e-05
-5.43117e-05
2.28542e-05
0.000100279
-6.47691e-05
2.24048e-05
0.000111945
-6.31547e-05
1.57698e-05
0.000125899
-5.08315e-05
4.3612e-06
0.000136672
-3.05658e-05
-8.56861e-06
0.00014043
-1.26462e-05
-1.64654e-05
0.000137861
-7.1032e-06
-1.72379e-05
0.000131835
-9.67739e-06
-1.34832e-05
0.000124767
-9.81949e-06
-1.06885e-05
0.000117241
-6.54806e-06
-1.16968e-05
0.000109028
-4.08175e-06
-1.52199e-05
0.000101058
-2.65774e-06
-1.88532e-05
9.53002e-05
-9.43517e-07
-2.16337e-05
9.35698e-05
-2.09905e-06
-2.38402e-05
9.68169e-05
-1.00476e-05
-2.53856e-05
0.000104097
-2.1113e-05
-2.45997e-05
-2.51659e-05
-2.06193e-05
0.000134765
-3.73949e-05
-2.88827e-05
0.000146337
-4.02863e-05
-1.94796e-05
0.000162992
-4.68275e-05
-6.89276e-06
0.000174545
-4.06791e-05
9.05774e-06
0.000172783
-2.22918e-05
2.22543e-05
0.000164469
-8.9297e-06
2.68205e-05
0.000160786
-6.37249e-06
2.34679e-05
0.000163288
-7.16895e-06
1.88669e-05
0.000166071
-5.22529e-06
1.89636e-05
0.000165897
-3.16478e-06
2.27503e-05
0.000164438
-3.42764e-06
2.31488e-05
0.000162852
-3.49206e-06
1.71316e-05
0.000158993
-2.87716e-06
1.17785e-05
0.000149583
-4.05828e-06
1.38772e-05
0.000134482
-6.8815e-06
2.01239e-05
0.000118349
-9.37644e-06
2.33937e-05
0.000106651
-1.01674e-05
2.21921e-05
0.000101195
-8.98003e-06
1.93179e-05
0.00010032
-6.23075e-06
1.67552e-05
0.000101756
-2.90793e-06
1.494e-05
0.000104077
-4.26903e-06
1.44266e-05
0.000106286
-1.6753e-05
1.6627e-05
0.000107698
-3.96862e-05
2.19671e-05
0.000108692
-6.36595e-05
2.84551e-05
0.000111443
-7.88784e-05
3.22122e-05
0.000119528
-8.13622e-05
2.94203e-05
0.000134892
-7.14605e-05
1.87954e-05
0.000153444
-5.02538e-05
3.31084e-06
0.000166431
-2.64703e-05
-1.12219e-05
0.000168597
-1.37545e-05
-1.7058e-05
0.000162577
-1.1831e-05
-1.52708e-05
0.000154928
-1.07177e-05
-1.12785e-05
0.00014882
-7.69928e-06
-9.66274e-06
0.000142717
-4.55079e-06
-1.16645e-05
0.000135275
-8.90397e-07
-1.55144e-05
0.000127453
3.27324e-06
-1.9968e-05
0.000121155
2.00047e-06
-2.5386e-05
0.000118738
-1.05833e-05
-3.16199e-05
0.000121653
-2.9437e-05
-3.56209e-05
-3.88437e-05
-3.45222e-05
0.000152422
-4.70913e-05
-4.39473e-05
0.00015948
-5.04931e-05
-3.45198e-05
0.000174257
-6.355e-05
-2.03053e-05
0.000191784
-6.41031e-05
-3.157e-06
0.000197719
-4.00257e-05
1.53986e-05
0.000189351
-1.32337e-05
2.63066e-05
0.000180423
-5.1111e-06
2.61541e-05
0.000182265
-1.02466e-05
1.95084e-05
0.000190591
-1.15355e-05
1.57747e-05
0.000193834
-5.33726e-06
1.97064e-05
0.00019021
-1.51227e-06
2.47793e-05
0.000187827
-4.58609e-06
2.20246e-05
0.000190087
-9.4355e-06
1.45405e-05
0.000189686
-1.08034e-05
1.32457e-05
0.00017869
-8.0439e-06
1.96079e-05
0.00015888
-4.74126e-06
2.54966e-05
0.000139351
-3.98479e-06
2.62213e-05
0.000127268
-5.17712e-06
2.38489e-05
0.000123171
-5.31518e-06
2.12116e-05
0.0001242
-3.35867e-06
1.90452e-05
0.000127896
-5.07894e-06
1.73394e-05
0.000132168
-1.79302e-05
1.7459e-05
0.000134826
-4.07846e-05
2.09199e-05
0.000134667
-6.51977e-05
2.79276e-05
0.000133024
-8.29155e-05
3.56145e-05
0.000134612
-8.94599e-05
3.88694e-05
0.000145335
-8.46851e-05
3.24061e-05
0.000165506
-6.85368e-05
1.6675e-05
0.000185387
-4.41907e-05
-1.72281e-06
0.000191342
-2.207e-05
-1.33684e-05
0.000180921
-8.32852e-06
-1.51794e-05
0.000166784
-3.39585e-06
-1.15645e-05
0.000161099
-6.18978e-06
-7.04085e-06
0.000163384
-9.0111e-06
-5.54885e-06
0.000165787
-4.0847e-06
-7.99716e-06
0.000163759
6.44402e-06
-1.32091e-05
0.000158244
9.71658e-06
-2.06999e-05
0.000151655
-3.3389e-06
-3.09193e-05
0.000147888
-2.85324e-05
-4.12306e-05
-4.59226e-05
-4.63756e-05
0.00017735
-4.89814e-05
-5.66769e-05
0.000180489
-5.30286e-05
-5.03811e-05
0.000190218
-7.00918e-05
-3.4561e-05
0.000207162
-8.20508e-05
-1.52729e-05
0.00022102
-6.45016e-05
5.72804e-06
0.000220009
-2.73405e-05
2.20143e-05
0.000208259
-5.35555e-06
2.6718e-05
0.00020128
-8.3517e-06
2.05996e-05
0.000207846
-1.75774e-05
1.25613e-05
0.000218698
-1.35107e-05
1.23694e-05
0.00021901
-5.05387e-07
1.86094e-05
0.000210561
2.54308e-06
2.05736e-05
0.000208768
-1.08495e-05
1.528e-05
0.000217493
-2.58795e-05
1.23462e-05
0.000221063
-2.42373e-05
1.81551e-05
0.00020761
-9.65843e-06
2.61843e-05
0.000183981
1.7344e-06
2.89191e-05
0.000163555
3.69045e-06
2.73645e-05
0.000152739
8.88504e-07
2.55162e-05
0.000150924
-1.84666e-06
2.43371e-05
0.000155435
-7.70666e-06
2.21143e-05
0.000162545
-2.23523e-05
1.88606e-05
0.000167744
-4.27007e-05
1.7617e-05
0.000168113
-6.26843e-05
2.24731e-05
0.000164144
-7.86042e-05
3.23855e-05
0.000159879
-8.66961e-05
4.16085e-05
0.00016312
-8.70125e-05
4.16507e-05
0.000178797
-7.93693e-05
2.80438e-05
0.000199361
-6.03926e-05
7.68048e-06
0.000207434
-3.05802e-05
-9.12353e-06
0.000195158
-1.83039e-06
-1.46528e-05
0.000175263
1.12762e-05
-1.18862e-05
0.000164569
3.92627e-06
-4.58272e-06
0.000168228
-9.96216e-06
2.24965e-06
0.000180197
-1.0791e-05
3.73266e-06
0.000190836
3.00614e-06
-4.33486e-07
0.000194931
1.40419e-05
-9.20342e-06
0.000191784
7.40134e-06
-2.23178e-05
0.000184425
-1.77357e-05
-3.82581e-05
-4.18309e-05
-5.16139e-05
0.000209186
-4.00367e-05
-6.27823e-05
0.000207379
-4.81428e-05
-6.47483e-05
0.000213369
-6.71565e-05
-5.12099e-05
0.000226245
-8.84451e-05
-2.94053e-05
0.000242133
-8.50297e-05
-7.27835e-06
0.000250403
-5.16759e-05
1.32719e-05
0.000244813
-1.62571e-05
2.38e-05
0.000231986
-5.82196e-06
2.14427e-05
0.000226315
-1.50981e-05
1.1504e-05
0.000234681
-2.01813e-05
5.73567e-06
0.000245946
-8.51433e-06
9.46104e-06
0.000245039
4.71566e-06
1.51343e-05
0.000236
-3.28756e-06
1.42081e-05
0.000237195
-3.10257e-05
1.08067e-05
0.000249801
-4.65871e-05
1.47659e-05
0.000252619
-3.07239e-05
2.42674e-05
0.000235974
-3.19498e-06
2.94244e-05
0.00021175
1.21827e-05
2.86083e-05
0.000192756
1.36285e-05
2.76269e-05
0.000183959
6.62954e-06
2.91109e-05
0.000186201
-8.93586e-06
2.85615e-05
0.000196263
-3.17729e-05
2.17997e-05
0.000206358
-5.10186e-05
1.26535e-05
0.000209259
-6.16045e-05
1.12794e-05
0.000204049
-6.97659e-05
2.18223e-05
0.00019465
-7.56826e-05
3.73176e-05
0.00018926
-7.82832e-05
4.55119e-05
0.000196112
-7.82375e-05
3.68014e-05
0.000212377
-6.81532e-05
1.58659e-05
0.000222031
-3.73803e-05
-4.15236e-06
0.000213514
2.70181e-06
-1.36745e-05
0.000194833
2.53327e-05
-1.34911e-05
0.00018099
1.75155e-05
-5.70403e-06
0.000179601
-4.10558e-06
5.353e-06
0.000189987
-1.3307e-05
1.33278e-05
0.000206047
-2.51206e-06
1.44149e-05
0.000220959
1.20299e-05
8.16564e-06
0.000228724
1.33962e-05
-6.05348e-06
0.000226357
-3.09243e-06
-2.65091e-05
-2.67853e-05
-4.77524e-05
0.000249163
-2.1177e-05
-6.05538e-05
0.000241025
-3.61963e-05
-7.30075e-05
0.000243921
-5.93766e-05
-6.68442e-05
0.000253965
-8.48049e-05
-4.60833e-05
0.000266326
-9.42354e-05
-2.19512e-05
0.000276993
-7.51369e-05
4.13865e-07
0.000279198
-3.83469e-05
1.65559e-05
0.000269733
-1.13265e-05
1.99695e-05
0.000256209
-7.98977e-06
1.15241e-05
0.000252872
-1.65873e-05
2.02284e-06
0.000263909
-1.66598e-05
2.68935e-06
0.000275651
-6.03759e-06
1.09878e-05
0.00027404
-4.13172e-06
1.48306e-05
0.000266182
-2.64161e-05
1.11366e-05
0.000270281
-5.54489e-05
1.0632e-05
0.000282554
-5.51399e-05
1.89841e-05
0.000282334
-2.32185e-05
2.67047e-05
0.000265362
9.80501e-06
2.72976e-05
0.000243348
2.54083e-05
2.70053e-05
0.000226605
2.25852e-05
3.096e-05
0.000221275
1.29982e-07
3.20904e-05
0.000229474
-3.58236e-05
2.14428e-05
0.000245154
-6.2204e-05
3.80117e-06
0.000255299
-6.66498e-05
-4.90472e-06
0.000252355
-6.14994e-05
3.75454e-06
0.000239018
-6.04485e-05
2.53285e-05
0.000224645
-6.13792e-05
4.37488e-05
0.000220267
-6.42315e-05
4.33958e-05
0.000228781
-6.25553e-05
2.44523e-05
0.000238265
-3.84482e-05
2.84404e-06
0.000236027
4.72458e-06
-1.13334e-05
0.000224281
3.39237e-05
-1.61136e-05
0.000212828
2.89249e-05
-1.2398e-05
0.000207625
5.48472e-06
-1.60403e-06
0.000210805
-8.23086e-06
1.03974e-05
0.000221587
-2.77499e-06
1.91044e-05
0.000238327
7.6474e-06
2.08828e-05
0.000256513
1.01742e-05
1.24646e-05
0.000266067
4.36123e-06
-8.58852e-06
-8.1061e-06
-3.6074e-05
0.000295153
-6.64631e-07
-5.30095e-05
0.000282877
-1.95889e-05
-7.4375e-05
0.000282158
-4.97741e-05
-7.66416e-05
0.000290863
-7.69001e-05
-6.10529e-05
0.00029924
-9.15849e-05
-3.81222e-05
0.000304562
-8.6991e-05
-1.5064e-05
0.000307246
-6.07841e-05
5.3827e-06
0.000303453
-2.55311e-05
1.50712e-05
0.000292143
-4.46619e-06
1.0858e-05
0.000282891
-6.15544e-06
7.19954e-07
0.000286771
-1.67173e-05
-1.00659e-06
0.000300556
-1.84305e-05
7.99773e-06
0.00030852
-1.44548e-05
1.60827e-05
0.000303417
-2.41143e-05
1.34851e-05
0.000297281
-5.0336e-05
7.32218e-06
0.000302573
-6.45278e-05
1.02469e-05
0.000310591
-4.43052e-05
1.92796e-05
0.000306502
-6.44023e-06
2.48755e-05
0.000289969
2.34758e-05
2.81494e-05
0.000271368
3.3843e-05
3.23643e-05
0.000259163
1.94198e-05
2.9052e-05
0.000259104
-2.00224e-05
1.13803e-05
0.000274221
-6.27129e-05
-9.30303e-06
0.000294878
-7.68424e-05
-2.0465e-05
0.00030208
-6.2938e-05
-1.38032e-05
0.000289481
-4.90288e-05
1.09128e-05
0.000267948
-4.36774e-05
3.77159e-05
0.000252699
-4.31649e-05
4.74163e-05
0.000251877
-4.36222e-05
3.35933e-05
0.000258766
-2.74816e-05
1.05425e-05
0.000261262
9.30318e-06
-7.30165e-06
0.000257305
3.75556e-05
-1.7769e-05
0.00025196
3.42567e-05
-2.08798e-05
0.000247944
1.2676e-05
-1.48094e-05
0.000246301
-1.86643e-07
-2.41861e-06
0.000248651
3.78267e-06
9.56704e-06
0.000258866
6.92594e-06
1.84667e-05
0.000279467
-2.79397e-08
1.96547e-05
0.000300339
-3.9518e-06
7.05551e-06
1.30091e-06
-2.18402e-05
0.000345358
1.09854e-05
-4.38978e-05
0.000333009
-3.18283e-06
-7.11769e-05
0.000328301
-3.66434e-05
-8.1214e-05
0.00033469
-6.43631e-05
-7.19188e-05
0.000340936
-7.95745e-05
-5.33043e-05
0.000339938
-8.47996e-05
-3.15879e-05
0.000336322
-7.27401e-05
-9.3003e-06
0.000332782
-4.09807e-05
7.91067e-06
0.000326343
-6.91815e-06
9.79757e-06
0.000318947
4.61717e-06
1.30781e-06
0.000319084
-8.29586e-06
-2.70292e-06
0.000330199
-2.33014e-05
5.23447e-06
0.000342448
-2.48773e-05
1.66611e-05
0.000343429
-2.47687e-05
1.75329e-05
0.000333742
-3.90771e-05
7.95348e-06
0.000325065
-5.56773e-05
2.74582e-06
0.000321826
-4.95165e-05
1.02918e-05
0.000317541
-2.14744e-05
2.34247e-05
0.000309607
8.60485e-06
3.23997e-05
0.000302208
2.92606e-05
3.15095e-05
0.000297064
3.15517e-05
1.75354e-05
0.000293704
3.49427e-06
-4.93185e-06
0.000300446
-4.6974e-05
-2.41897e-05
0.00032346
-8.25828e-05
-3.0312e-05
0.00034408
-7.71524e-05
-1.96577e-05
0.000339926
-5.21979e-05
4.83981e-06
0.000315183
-3.35836e-05
3.33621e-05
0.000290873
-2.44907e-05
5.02059e-05
0.000282158
-2.03301e-05
4.32414e-05
0.00028692
-8.01111e-06
2.05942e-05
0.000293576
1.84355e-05
-1.4322e-06
0.000296421
3.81718e-05
-1.69075e-05
0.000297424
3.20914e-05
-2.66518e-05
0.000297776
1.24628e-05
-2.75761e-05
0.000296288
3.42908e-06
-1.96342e-05
0.000293996
9.12272e-06
-8.10375e-06
0.000296263
9.81517e-06
3.30824e-06
0.000309877
-7.23335e-06
1.15318e-05
0.000332853
-1.78229e-05
8.40715e-06
-2.89793e-06
-1.26855e-05
0.000392257
1.14566e-05
-3.74093e-05
0.000387567
7.14638e-06
-6.44785e-05
0.000381272
-2.0553e-05
-8.0262e-05
0.000384746
-4.56771e-05
-7.85986e-05
0.000391147
-6.10244e-05
-6.54817e-05
0.000388249
-7.31537e-05
-4.7144e-05
0.000377553
-7.35557e-05
-2.44734e-05
0.000367936
-4.92823e-05
-3.51598e-06
0.000361239
-1.09637e-05
6.5866e-06
0.000356587
1.26961e-05
2.97617e-06
0.0003568
4.85803e-06
-1.05669e-06
0.000365516
-1.80466e-05
4.59786e-06
0.00037836
-2.88269e-05
1.70555e-05
0.000383258
-2.62874e-05
2.30095e-05
0.000372665
-2.84245e-05
1.47524e-05
0.000352114
-3.70851e-05
2.40216e-06
0.000332916
-3.59359e-05
1.81222e-06
0.000322073
-2.0427e-05
1.21657e-05
0.00032164
-1.95261e-06
1.94373e-05
0.000329662
1.53249e-05
1.35231e-05
0.000338301
2.72896e-05
-3.682e-06
0.000340768
1.72884e-05
-2.42871e-05
0.000342788
-2.41052e-05
-3.79493e-05
0.000358138
-7.34225e-05
-3.64113e-05
0.000381242
-8.94396e-05
-1.92244e-05
0.000385495
-6.6159e-05
7.33428e-06
0.000362601
-3.32427e-05
3.38159e-05
0.000332786
-1.21553e-05
5.15418e-05
0.00031789
-1.66541e-06
4.97579e-05
0.000320433
9.54851e-06
2.94956e-05
0.000328705
2.78098e-05
5.65716e-06
0.000333051
3.9955e-05
-1.20122e-05
0.000334292
3.03455e-05
-2.35155e-05
0.000337527
9.09927e-06
-3.04382e-05
0.000342654
-8.50261e-07
-3.10277e-05
0.000346111
5.81669e-06
-2.37313e-05
0.000346559
9.88225e-06
-1.01415e-05
0.000349546
-4.89621e-06
2.42107e-06
0.000362897
-2.01062e-05
3.48792e-06
-9.09397e-06
-1.15251e-05
0.000425924
9.98829e-06
-3.37612e-05
0.000437068
1.00579e-05
-5.63113e-05
0.000436976
-5.75868e-06
-7.42139e-05
0.000440232
-2.36853e-05
-8.07633e-05
0.00044884
-3.91305e-05
-7.51703e-05
0.000448158
-5.65346e-05
-6.12921e-05
0.000432862
-6.53215e-05
-4.13213e-05
0.000414447
-4.88071e-05
-1.85162e-05
0.000402755
-1.21608e-05
-1.67377e-06
0.000398095
1.6852e-05
5.08768e-06
0.000398872
1.66878e-05
5.07313e-06
0.000404845
-5.65891e-06
7.48501e-06
0.000414262
-2.33447e-05
1.59242e-05
0.000419613
-2.58382e-05
2.48255e-05
0.000412359
-2.40646e-05
2.37605e-05
0.00039282
-2.38554e-05
1.07567e-05
0.000371078
-1.83928e-05
-3.66811e-06
0.000358164
-8.27983e-06
-7.69207e-06
0.000359027
-2.28973e-06
-3.85118e-06
0.000370788
1.67601e-06
-2.78725e-06
0.000384242
1.09944e-05
-1.0931e-05
0.00039184
1.55478e-05
-2.63642e-05
0.000395463
-5.84439e-06
-3.84915e-05
0.000404769
-5.10387e-05
-3.74916e-05
0.000422074
-8.56422e-05
-1.95717e-05
0.00042868
-7.63371e-05
6.79591e-06
0.00041002
-3.70537e-05
3.13441e-05
0.000379838
-2.30195e-06
4.97206e-05
0.000360153
1.57269e-05
5.42733e-05
0.000355821
2.51324e-05
3.91761e-05
0.000356717
3.58545e-05
1.64209e-05
0.000355214
4.12819e-05
1.46287e-06
0.000354152
2.83479e-05
-5.83247e-06
0.000359511
3.08918e-06
-1.42543e-05
0.000371649
-1.26279e-05
-2.43058e-05
0.000383352
-7.95107e-06
-2.46603e-05
0.000387199
3.39509e-06
-9.96538e-06
0.000385164
2.03854e-06
5.85189e-06
0.00038806
-6.97616e-06
5.3735e-06
-3.21057e-06
-1.13601e-05
0.000454201
1.98324e-05
-2.70479e-05
0.000476645
1.47474e-05
-4.85538e-05
0.000489957
2.68968e-06
-6.37746e-05
0.000500614
-7.30819e-06
-7.33514e-05
0.000513145
-1.83252e-05
-7.64836e-05
0.000515216
-3.62678e-05
-7.13055e-05
0.000497507
-4.90708e-05
-5.73228e-05
0.000470749
-3.7903e-05
-3.63462e-05
0.000451246
-6.16724e-06
-1.49663e-05
0.000443556
2.06822e-05
-2.95087e-07
0.000443634
2.19158e-05
7.75545e-06
0.000447783
3.54596e-06
1.26709e-05
0.000452657
-1.3517e-05
1.87845e-05
0.000453307
-1.84872e-05
2.49995e-05
0.0004456
-1.82508e-05
2.5875e-05
0.000431899
-1.66042e-05
1.57529e-05
0.000419804
-9.14425e-06
-2.999e-06
0.000414637
-6.39524e-07
-1.63753e-05
0.000416989
-2.80301e-06
-1.4112e-05
0.00042463
-1.09994e-05
-4.41086e-06
0.000432553
-7.4983e-06
-2.87847e-06
0.00043648
6.89121e-06
-1.17361e-05
0.00043888
5.67096e-06
-2.13512e-05
0.000446225
-2.72746e-05
-2.43649e-05
0.000460784
-6.94917e-05
-1.47389e-05
0.000471179
-7.77531e-05
6.52958e-06
0.000462031
-4.21241e-05
2.99301e-05
0.000437585
4.77062e-06
4.61204e-05
0.000414087
3.45999e-05
5.13933e-05
0.000398004
4.33724e-05
4.37172e-05
0.000386706
4.26559e-05
2.95281e-05
0.000380408
3.9077e-05
1.72352e-05
0.000382028
2.69843e-05
9.13342e-06
0.000391646
3.75943e-06
2.19866e-06
0.000406559
-1.80143e-05
-7.09193e-06
0.000420061
-2.04388e-05
-1.30312e-05
0.000425489
-5.29708e-06
-6.32491e-06
0.000423294
9.86734e-06
8.77396e-06
0.000421703
1.40075e-05
1.41517e-05
1.67222e-05
-1.28829e-06
0.000491921
3.33554e-05
-7.11667e-06
0.000514909
1.95137e-05
-3.00607e-05
0.000536004
2.48407e-06
-4.80545e-05
0.000556115
-5.09902e-06
-6.14437e-05
0.000574749
-7.67492e-06
-7.03658e-05
0.000580187
-1.65187e-05
-7.25489e-05
0.000563763
-2.67631e-05
-6.65254e-05
0.000534954
-2.08655e-05
-5.13185e-05
0.00051045
3.18966e-06
-2.95229e-05
0.000496684
2.44815e-05
-8.89905e-06
0.000490672
2.48094e-05
4.80536e-06
0.000489063
1.00631e-05
1.27114e-05
0.000488984
-3.61905e-06
2.0649e-05
0.000487069
-9.58221e-06
2.82556e-05
0.000481595
-1.08096e-05
2.67436e-05
0.000476276
-9.78404e-06
1.24734e-05
0.000477125
-4.11807e-06
-8.09723e-06
0.0004833
8.45125e-07
-1.97814e-05
0.000487785
-7.25392e-06
-1.22515e-05
0.000485178
-2.1427e-05
5.43376e-06
0.000477939
-2.01877e-05
1.4634e-05
0.000473521
9.09041e-07
1.04984e-05
0.000477972
1.4957e-05
2.05299e-06
0.000490314
-3.53177e-06
-1.91745e-06
0.000505314
-4.52394e-05
1.71584e-06
0.000514696
-6.82779e-05
1.38673e-05
0.000508486
-4.31594e-05
2.98424e-05
0.000487246
1.00207e-05
4.32461e-05
0.00046181
4.96928e-05
4.79242e-05
0.000439423
5.99559e-05
4.05494e-05
0.000422759
5.24345e-05
2.99361e-05
0.000415745
4.26554e-05
2.65156e-05
0.000420124
3.2468e-05
2.72674e-05
0.00043258
1.67159e-05
2.18603e-05
0.000447861
-1.97471e-06
9.5397e-06
0.000460071
-9.83738e-06
8.24828e-07
0.000465376
4.94023e-07
3.84458e-06
0.000464847
1.82633e-05
1.67723e-05
0.0004651
3.00401e-05
2.40743e-05
3.55202e-05
1.50322e-05
0.000539432
3.71051e-05
2.106e-05
0.000558019
2.03985e-05
-8.91044e-06
0.000580704
-5.30502e-06
-3.23195e-05
0.000605706
-2.12446e-05
-4.4061e-05
0.000627433
-1.89049e-05
-5.22712e-05
0.000635415
-9.59369e-06
-6.27299e-05
0.000625786
-5.68776e-06
-7.04571e-05
0.000607558
-1.68907e-06
-6.7581e-05
0.000591061
1.13793e-05
-5.03835e-05
0.00057746
2.57868e-05
-2.54945e-05
0.000562855
2.76873e-05
-4.51461e-06
0.000547002
1.79989e-05
8.03284e-06
0.000534255
6.16562e-06
1.71507e-05
0.000528034
-4.10229e-06
2.7084e-05
0.000529601
-1.45278e-05
3.29313e-05
0.000539781
-2.36269e-05
2.75426e-05
0.000557948
-2.64828e-05
1.33366e-05
0.000575306
-2.38615e-05
7.30831e-07
0.000577864
-2.3453e-05
2.88729e-06
0.000562489
-2.54476e-05
2.30576e-05
0.000541258
-1.78069e-05
4.586e-05
0.000529423
5.83445e-06
5.09076e-05
0.000532268
2.89356e-05
3.13776e-05
0.000544412
2.61964e-05
1.70548e-06
0.000557968
-7.61218e-06
-1.1325e-05
0.000565658
-4.32363e-05
1.98267e-06
0.000558261
-3.94022e-05
2.52879e-05
0.000534891
6.43244e-06
4.09061e-05
0.000506409
5.45966e-05
4.50208e-05
0.000483484
7.62188e-05
3.94794e-05
0.000470706
7.41269e-05
3.04036e-05
0.000468371
6.24315e-05
2.49123e-05
0.000473953
4.80075e-05
2.33426e-05
0.000483919
3.17917e-05
2.08035e-05
0.000496661
1.61282e-05
1.39409e-05
0.000510527
8.68958e-06
5.69709e-06
0.000521331
1.42777e-05
5.21087e-06
0.000525286
2.60955e-05
1.78335e-05
0.000524866
3.48875e-05
3.43313e-05
3.96355e-05
3.79457e-05
0.000590767
1.82767e-05
4.21372e-05
0.000610294
2.47185e-06
1.76936e-05
0.000632284
-1.74659e-05
-1.61421e-05
0.000655352
-3.17593e-05
-4.05696e-05
0.000677816
-2.84227e-05
-5.15333e-05
0.000690716
-1.0678e-05
-5.50181e-05
0.000686185
7.29885e-06
-5.87038e-05
0.000669205
1.90655e-05
-6.27139e-05
0.000653373
2.64007e-05
-5.90921e-05
0.000645788
2.99366e-05
-4.49083e-05
0.000641656
2.68253e-05
-2.706e-05
0.000632867
1.86464e-05
-1.23597e-05
0.000618042
9.61382e-06
-9.49698e-07
0.000602382
-9.13958e-08
1.14299e-05
0.000593538
-1.4505e-05
2.52784e-05
0.000598351
-3.39074e-05
3.50698e-05
0.000618341
-5.14367e-05
3.48641e-05
0.000642609
-5.93228e-05
2.61556e-05
0.000651565
-5.36849e-05
2.01965e-05
0.000637304
-3.61622e-05
2.87358e-05
0.000612742
-1.1382e-05
4.83473e-05
0.000594359
1.67493e-05
5.67371e-05
0.000586999
3.65292e-05
3.78361e-05
0.000588037
3.37944e-05
-5.58577e-07
0.000596576
6.10171e-06
-2.98362e-05
0.000607609
-2.9286e-05
-2.53435e-05
0.000609964
-3.95575e-05
3.56273e-06
0.000597182
-8.58552e-06
3.11711e-05
0.000577883
4.15298e-05
4.32152e-05
0.000564942
7.70001e-05
3.90789e-05
0.00056213
8.7679e-05
2.26991e-05
0.000563963
7.97927e-05
4.32136e-06
0.000565751
6.19411e-05
-6.90214e-06
0.000566556
3.98826e-05
-5.25542e-06
0.000568656
2.22894e-05
3.31259e-06
0.000572804
1.66532e-05