/*--------------------------------*- C++ -*----------------------------------*\
| =========                 |                                                 |
| \\      /  F ield         | OpenFOAM: The Open Source CFD Toolbox           |
|  \\    /   O peration     | Version:  2306                                  |
|   \\  /    A nd           | Website:  www.openfoam.com                      |
|    \\/     M anipulation  |                                                 |
\*---------------------------------------------------------------------------*/
FoamFile
{
    version     2.0;
    format      ascii;
    arch        "LSB;label=32;scalar=64";
    class       volScalarField;
    location    "3.5";
    object      pPrime2Mean;
}
// * * * * * * * * * * * * * * * * * * * * * * * * * * * * * * * * * * * * * //

dimensions      [0 4 -4 0 0 0 0];

internalField   nonuniform List<scalar> 
60000
(
2.70547e-10
3.39585e-09
4.95502e-09
3.90431e-09
2.88744e-09
2.70832e-09
2.8954e-09
2.84717e-09
1.55487e-09
8.01129e-10
3.1891e-09
5.44808e-09
5.00491e-09
4.13028e-09
4.0086e-09
3.67455e-09
3.34451e-09
3.35026e-09
2.64433e-09
1.07228e-09
7.1402e-10
3.4523e-09
5.79273e-09
4.8106e-09
3.1558e-09
2.43894e-09
1.02818e-09
8.20413e-10
3.82216e-09
5.30516e-09
3.63872e-09
2.08505e-09
1.37189e-09
1.49582e-09
2.03409e-09
2.84374e-09
4.8698e-09
7.8172e-09
7.19908e-09
2.02855e-09
2.28031e-10
3.32113e-09
4.97196e-09
3.9497e-09
2.89748e-09
2.69431e-09
2.89606e-09
2.87223e-09
1.5721e-09
7.84385e-10
3.1884e-09
5.4874e-09
5.04287e-09
4.14245e-09
4.00332e-09
3.6605e-09
3.33946e-09
3.35923e-09
2.66245e-09
1.07684e-09
7.01939e-10
3.46094e-09
5.82419e-09
4.82701e-09
3.16412e-09
2.46748e-09
1.04783e-09
7.98727e-10
3.82109e-09
5.36796e-09
3.68105e-09
2.08684e-09
1.36873e-09
1.49063e-09
2.02551e-09
2.80565e-09
4.84797e-09
7.91521e-09
7.44554e-09
2.20287e-09
2.01735e-10
3.34566e-09
5.10408e-09
4.06347e-09
2.93888e-09
2.69061e-09
2.89771e-09
2.93021e-09
1.64678e-09
7.50093e-10
3.15324e-09
5.57065e-09
5.14816e-09
4.19302e-09
4.03206e-09
3.68673e-09
3.36244e-09
3.38936e-09
2.69067e-09
1.07339e-09
6.92257e-10
3.51299e-09
5.89711e-09
4.84977e-09
3.16387e-09
2.5131e-09
1.09374e-09
7.57311e-10
3.81848e-09
5.47148e-09
3.74125e-09
2.07896e-09
1.35694e-09
1.4988e-09
2.02605e-09
2.78382e-09
4.86637e-09
8.10439e-09
7.8014e-09
2.40977e-09
1.91768e-10
3.4939e-09
5.38116e-09
4.26366e-09
3.01774e-09
2.70385e-09
2.90178e-09
3.00004e-09
1.76659e-09
7.04975e-10
3.05857e-09
5.66933e-09
5.32413e-09
4.29361e-09
4.10764e-09
3.76925e-09
3.42636e-09
3.45528e-09
2.73498e-09
1.05416e-09
6.9275e-10
3.62991e-09
6.02892e-09
4.88131e-09
3.15079e-09
2.56538e-09
1.14945e-09
7.07547e-10
3.84784e-09
5.62719e-09
3.81685e-09
2.05659e-09
1.3399e-09
1.53483e-09
2.05367e-09
2.79012e-09
4.95003e-09
8.42388e-09
8.27948e-09
2.64175e-09
1.95518e-10
3.70838e-09
5.73828e-09
4.53619e-09
3.13626e-09
2.73385e-09
2.89732e-09
3.02323e-09
1.88265e-09
6.79076e-10
2.87743e-09
5.6793e-09
5.5024e-09
4.42226e-09
4.2136e-09
3.9036e-09
3.54855e-09
3.55812e-09
2.8087e-09
1.03312e-09
6.94144e-10
3.81093e-09
6.20572e-09
4.93374e-09
3.15305e-09
2.62053e-09
1.19495e-09
6.7239e-10
3.9651e-09
5.86747e-09
3.91699e-09
2.01911e-09
1.29811e-09
1.5797e-09
2.11675e-09
2.80509e-09
5.09624e-09
8.92651e-09
8.95011e-09
2.92557e-09
2.21626e-10
3.98731e-09
6.12128e-09
4.83222e-09
3.29196e-09
2.78857e-09
2.88854e-09
2.95117e-09
1.907e-09
6.89323e-10
2.67346e-09
5.52696e-09
5.56924e-09
4.51505e-09
4.31184e-09
4.06652e-09
3.73232e-09
3.74696e-09
2.95139e-09
1.02048e-09
6.86068e-10
4.05685e-09
6.42704e-09
4.88916e-09
3.01538e-09
2.58746e-09
1.2184e-09
6.83518e-10
4.23271e-09
6.27425e-09
4.09812e-09
2.00478e-09
1.23407e-09
1.61444e-09
2.17098e-09
2.75941e-09
5.22413e-09
9.78133e-09
1.0134e-08
3.41196e-09
1.91113e-10
4.36566e-09
6.78945e-09
5.2437e-09
3.48301e-09
2.88167e-09
2.92488e-09
2.86716e-09
1.77788e-09
7.35263e-10
2.58934e-09
5.32799e-09
5.48929e-09
4.51707e-09
4.36818e-09
4.22971e-09
3.97655e-09
4.05396e-09
3.24584e-09
1.08152e-09
6.30273e-10
4.40994e-09
6.96139e-09
5.06872e-09
2.87125e-09
2.3487e-09
1.10809e-09
8.31292e-10
4.79652e-09
6.9235e-09
4.41432e-09
2.06693e-09
1.21806e-09
1.63838e-09
2.14491e-09
2.53542e-09
5.02957e-09
1.05148e-08
1.22259e-08
4.8477e-09
2.96586e-10
4.35965e-09
7.7496e-09
6.06895e-09
3.80644e-09
2.96787e-09
2.97702e-09
2.85518e-09
1.67304e-09
7.40091e-10
2.82477e-09
5.36928e-09
5.37982e-09
4.45056e-09
4.38055e-09
4.39043e-09
4.28672e-09
4.48881e-09
3.71451e-09
1.24766e-09
5.44476e-10
4.91654e-09
7.90981e-09
5.62838e-09
3.06243e-09
2.36323e-09
9.47837e-10
1.0143e-09
5.7265e-09
7.79166e-09
4.67393e-09
2.05388e-09
1.35299e-09
1.82162e-09
2.14444e-09
2.0431e-09
4.22489e-09
1.06453e-08
1.46092e-08
7.48549e-09
1.03784e-09
3.98354e-09
8.9256e-09
7.31801e-09
4.39222e-09
3.05955e-09
2.94324e-09
2.83082e-09
1.67883e-09
7.33013e-10
2.80649e-09
5.6777e-09
5.7617e-09
4.47396e-09
4.37185e-09
4.52384e-09
4.67632e-09
5.04793e-09
4.21504e-09
1.38607e-09
5.4101e-10
5.65473e-09
9.0719e-09
6.35178e-09
3.84571e-09
3.24135e-09
1.0371e-09
1.1573e-09
7.19674e-09
9.2494e-09
5.06315e-09
1.96237e-09
1.28331e-09
2.0904e-09
2.37461e-09
1.62363e-09
3.01569e-09
9.85058e-09
1.66708e-08
1.13904e-08
3.12521e-09
3.11076e-09
9.88048e-09
9.1967e-09
5.36912e-09
3.26831e-09
2.87919e-09
2.78261e-09
1.71445e-09
7.63818e-10
2.41889e-09
5.16654e-09
5.87361e-09
4.75126e-09
4.39516e-09
4.53293e-09
5.04755e-09
5.75081e-09
4.70109e-09
1.31734e-09
7.68383e-10
7.11778e-09
1.08244e-08
7.44436e-09
5.56554e-09
5.70976e-09
2.00258e-09
1.06775e-09
8.53559e-09
1.09315e-08
5.54292e-09
1.92049e-09
1.27662e-09
2.23443e-09
2.70806e-09
1.47508e-09
1.88676e-09
8.36917e-09
1.78051e-08
1.61893e-08
6.91782e-09
1.78317e-09
9.48754e-09
1.09282e-08
6.8481e-09
3.88942e-09
2.88521e-09
2.73526e-09
1.83703e-09
7.88633e-10
2.00064e-09
4.52986e-09
5.28716e-09
4.48717e-09
4.01637e-09
4.06462e-09
5.04509e-09
6.37258e-09
5.23647e-09
1.16067e-09
1.28531e-09
9.55704e-09
1.37388e-08
9.4161e-09
8.43213e-09
1.01948e-08
4.56575e-09
7.08901e-10
8.27181e-09
1.16734e-08
5.85308e-09
1.82422e-09
1.5557e-09
2.5843e-09
3.07304e-09
1.71816e-09
1.10709e-09
6.57272e-09
1.7467e-08
2.05154e-08
1.12121e-08
9.7429e-10
7.14339e-09
1.10522e-08
8.4458e-09
4.90877e-09
3.17518e-09
2.73527e-09
1.91063e-09
8.58045e-10
1.63468e-09
3.69172e-09
4.46974e-09
3.91478e-09
3.29431e-09
3.09899e-09
4.08438e-09
5.87503e-09
5.19145e-09
1.05453e-09
1.75598e-09
1.15862e-08
1.68764e-08
1.18705e-08
1.08407e-08
1.48447e-08
8.69519e-09
5.82533e-10
5.56202e-09
1.04819e-08
5.74448e-09
2.00815e-09
2.15721e-09
3.21155e-09
3.46609e-09
2.21284e-09
8.07032e-10
4.62481e-09
1.54612e-08
2.24501e-08
1.3741e-08
1.33222e-09
3.85925e-09
9.0593e-09
8.89347e-09
6.0679e-09
3.62786e-09
2.80463e-09
2.04776e-09
8.72014e-10
1.48199e-09
3.20156e-09
3.94337e-09
3.73084e-09
2.90989e-09
1.98168e-09
2.71549e-09
4.30689e-09
3.92903e-09
8.86192e-10
1.73004e-09
1.06587e-08
1.74797e-08
1.34238e-08
1.11889e-08
1.59805e-08
1.21601e-08
1.69149e-09
2.09778e-09
7.0158e-09
5.11493e-09
2.63849e-09
3.03695e-09
3.73574e-09
3.68534e-09
2.72943e-09
9.67447e-10
2.93401e-09
1.19391e-08
2.08237e-08
1.31278e-08
2.31746e-09
1.24719e-09
5.85787e-09
7.85847e-09
6.58269e-09
3.87943e-09
2.68808e-09
2.08938e-09
9.27406e-10
1.36334e-09
3.09429e-09
3.94455e-09
4.15268e-09
3.26929e-09
1.58264e-09
1.93651e-09
3.48882e-09
2.76961e-09
6.96028e-10
1.54765e-09
8.01439e-09
1.50839e-08
1.37425e-08
1.0224e-08
1.35666e-08
1.29851e-08
3.89565e-09
2.64434e-10
3.43246e-09
4.32113e-09
3.61084e-09
4.03493e-09
4.02244e-09
3.4629e-09
3.04704e-09
1.49405e-09
1.90504e-09
7.92468e-09
1.60613e-08
1.03206e-08
3.19324e-09
1.03584e-10
2.75901e-09
5.96383e-09
6.36595e-09
4.00199e-09
2.40412e-09
1.95972e-09
1.02081e-09
1.31138e-09
3.03186e-09
4.01637e-09
4.20761e-09
3.63069e-09
1.95457e-09
1.89827e-09
3.45898e-09
2.6355e-09
5.14437e-10
1.5222e-09
6.2187e-09
1.11574e-08
1.26458e-08
9.84137e-09
1.09361e-08
1.2583e-08
6.44883e-09
6.00502e-10
1.32432e-09
3.58782e-09
4.30049e-09
4.5296e-09
4.11624e-09
3.40447e-09
3.11778e-09
2.11791e-09
1.52486e-09
4.56566e-09
1.05192e-08
6.97636e-09
3.50956e-09
4.15961e-10
7.78086e-10
3.8725e-09
5.6991e-09
3.99285e-09
2.24183e-09
1.50231e-09
1.01936e-09
1.3654e-09
2.80148e-09
3.67466e-09
3.76516e-09
3.41452e-09
2.40949e-09
2.36684e-09
3.89177e-09
3.12591e-09
3.9173e-10
1.68365e-09
5.35735e-09
7.01858e-09
9.16691e-09
9.2018e-09
8.53069e-09
1.05918e-08
8.17848e-09
2.08108e-09
3.63149e-10
2.60013e-09
4.19407e-09
4.2991e-09
4.28646e-09
3.81809e-09
3.52961e-09
2.80705e-09
1.55184e-09
2.73112e-09
6.29375e-09
4.72324e-09
3.23823e-09
1.08318e-09
2.79308e-10
2.22715e-09
4.54936e-09
3.94049e-09
2.42895e-09
1.32983e-09
7.83532e-10
1.58144e-09
2.89921e-09
3.62199e-09
3.54006e-09
3.1065e-09
2.45732e-09
2.55911e-09
3.98193e-09
3.27263e-09
4.60496e-10
1.89579e-09
5.17027e-09
4.46859e-09
4.93407e-09
6.51158e-09
6.38121e-09
7.45847e-09
7.40072e-09
3.37873e-09
3.16682e-10
1.50116e-09
3.78139e-09
4.28117e-09
4.12512e-09
3.30309e-09
3.49701e-09
3.54272e-09
1.9116e-09
1.86737e-09
3.82563e-09
2.75546e-09
2.40733e-09
1.50167e-09
5.40165e-10
1.24893e-09
3.22557e-09
3.72611e-09
2.71611e-09
1.29745e-09
7.42551e-10
1.6032e-09
2.83632e-09
3.85237e-09
4.03934e-09
3.60263e-09
2.78116e-09
2.44263e-09
3.48872e-09
2.81158e-09
4.50404e-10
1.85059e-09
4.92021e-09
3.89225e-09
2.9765e-09
4.30272e-09
4.7883e-09
5.73832e-09
6.23109e-09
3.27579e-09
4.19467e-10
1.42072e-09
3.74528e-09
4.43419e-09
3.8125e-09
3.35992e-09
3.77596e-09
4.03817e-09
2.42069e-09
1.33654e-09
2.16527e-09
2.08834e-09
1.80736e-09
1.1766e-09
1.02124e-09
1.8519e-09
2.99537e-09
3.63637e-09
3.1005e-09
1.68511e-09
7.6858e-10
1.22847e-09
2.53923e-09
3.93795e-09
4.66299e-09
4.20113e-09
3.01769e-09
2.34716e-09
3.0029e-09
2.86377e-09
9.06563e-10
8.59536e-10
3.183e-09
3.46781e-09
2.79315e-09
4.12604e-09
5.15543e-09
5.55994e-09
5.53513e-09
2.62599e-09
4.87836e-10
1.54658e-09
3.07155e-09
3.88214e-09
4.13693e-09
3.76992e-09
4.03149e-09
4.53861e-09
3.24305e-09
1.34429e-09
1.36786e-09
1.31311e-09
1.62657e-09
1.35638e-09
1.16483e-09
1.73522e-09
2.82202e-09
3.37729e-09
3.15511e-09
2.32295e-09
1.39484e-09
9.23979e-10
1.11665e-09
2.46103e-09
4.19082e-09
4.52964e-09
3.18321e-09
1.78862e-09
2.21644e-09
3.4278e-09
2.45083e-09
6.07558e-10
1.12223e-09
2.38893e-09
3.49272e-09
4.90398e-09
5.86483e-09
6.43904e-09
6.01802e-09
2.77301e-09
5.32542e-10
1.37759e-09
2.94102e-09
3.79554e-09
4.2774e-09
3.95592e-09
3.74963e-09
4.01223e-09
3.42923e-09
1.97324e-09
1.09463e-09
7.20403e-10
1.00778e-09
1.76533e-09
2.3713e-09
2.72736e-09
2.86863e-09
2.75275e-09
2.35504e-09
2.18174e-09
2.001e-09
1.40932e-09
8.55538e-10
1.08614e-09
2.41305e-09
3.66575e-09
3.39856e-09
2.30569e-09
2.04174e-09
2.96454e-09
3.26633e-09
1.60845e-09
3.74681e-10
1.94489e-09
4.63721e-09
6.05062e-09
6.65016e-09
8.50693e-09
8.8599e-09
4.17711e-09
2.79074e-10
1.98656e-09
4.93646e-09
5.67397e-09
4.83928e-09
3.78819e-09
3.16062e-09
3.33798e-09
3.64995e-09
3.24782e-09
1.85938e-09
2.31495e-09
8.74542e-10
8.14598e-10
1.84697e-09
2.60626e-09
2.7553e-09
2.50937e-09
2.17497e-09
1.97707e-09
1.79975e-09
1.50059e-09
1.29185e-09
1.2653e-09
1.38087e-09
1.86612e-09
2.47218e-09
2.65824e-09
2.77333e-09
2.98574e-09
2.89816e-09
1.69632e-09
5.65751e-10
1.25571e-09
3.60134e-09
5.71828e-09
7.14802e-09
9.84948e-09
1.2179e-08
7.10992e-09
7.81566e-10
1.64861e-09
6.69109e-09
8.51009e-09
6.95029e-09
4.54926e-09
3.06318e-09
2.02609e-09
1.97731e-09
3.32983e-09
3.62e-09
3.07653e-09
2.36148e-09
1.45581e-09
1.10738e-09
1.40863e-09
1.86681e-09
1.94817e-09
2.16896e-09
2.2153e-09
1.75808e-09
1.2877e-09
1.34858e-09
1.71657e-09
1.75134e-09
1.51057e-09
1.51943e-09
1.99982e-09
2.58966e-09
2.68933e-09
2.4901e-09
1.72436e-09
9.12473e-10
1.02737e-09
2.27985e-09
3.6965e-09
4.79465e-09
6.63058e-09
8.31965e-09
5.80287e-09
1.29187e-09
6.72291e-10
3.86804e-09
6.34725e-09
6.00506e-09
4.17255e-09
2.58294e-09
1.5946e-09
1.55651e-09
2.45487e-09
3.2599e-09
4.53685e-09
2.91748e-09
1.06236e-09
6.95898e-10
1.39391e-09
2.0175e-09
2.33301e-09
2.57092e-09
2.54613e-09
2.07221e-09
1.56813e-09
1.36604e-09
1.28047e-09
1.38472e-09
1.7688e-09
2.2249e-09
2.25389e-09
2.25527e-09
2.48886e-09
2.53943e-09
2.16894e-09
1.4424e-09
8.622e-10
1.12224e-09
2.4968e-09
3.90952e-09
4.9905e-09
5.88653e-09
4.64024e-09
1.55486e-09
4.36265e-10
2.15208e-09
4.1806e-09
4.92114e-09
3.88125e-09
2.4995e-09
1.57739e-09
1.72118e-09
2.90025e-09
4.4146e-09
5.74206e-09
4.44204e-09
1.72808e-09
4.23414e-10
1.25687e-09
2.385e-09
2.94979e-09
3.1223e-09
2.75296e-09
2.03377e-09
1.27803e-09
1.19821e-09
1.7656e-09
1.94653e-09
1.54076e-09
1.39335e-09
2.12927e-09
3.01618e-09
3.35348e-09
3.46949e-09
3.44282e-09
2.53399e-09
1.33618e-09
7.66382e-10
1.47833e-09
2.73693e-09
4.03036e-09
4.6308e-09
3.49956e-09
1.66562e-09
5.30177e-10
1.42007e-09
3.23298e-09
3.88485e-09
3.3561e-09
2.46538e-09
1.8982e-09
2.08061e-09
3.24044e-09
4.88356e-09
4.55034e-09
4.9459e-15
2.65494e-09
5.90452e-09
6.5628e-09
5.27245e-09
3.79829e-09
2.81943e-09
1.3408e-09
9.06381e-10
3.16283e-09
4.4563e-09
3.80299e-09
3.2533e-09
2.63824e-09
1.96611e-09
2.20307e-09
2.97955e-09
3.03702e-09
1.4891e-09
4.41933e-10
3.66415e-09
8.44882e-09
8.53328e-09
5.02159e-09
2.75955e-09
2.0481e-09
1.44578e-09
1.14905e-09
1.70802e-09
2.05579e-09
1.9092e-09
1.80482e-09
1.94832e-09
1.82756e-09
2.04975e-09
4.54806e-09
1.03708e-08
1.70583e-08
1.46273e-08
4.79894e-09
3.5927e-12
2.50333e-09
5.77147e-09
6.5148e-09
5.27796e-09
3.80783e-09
2.82892e-09
1.34666e-09
8.92779e-10
3.18896e-09
4.50511e-09
3.8281e-09
3.25581e-09
2.62863e-09
1.95171e-09
2.19206e-09
2.97456e-09
3.04954e-09
1.51773e-09
4.26164e-10
3.54768e-09
8.3021e-09
8.46084e-09
5.01258e-09
2.74426e-09
2.02082e-09
1.44604e-09
1.16962e-09
1.71424e-09
2.04916e-09
1.90781e-09
1.80964e-09
1.94413e-09
1.82172e-09
2.05805e-09
4.52673e-09
1.0325e-08
1.71506e-08
1.49255e-08
5.18826e-09
1.22618e-11
2.45309e-09
5.80363e-09
6.61327e-09
5.36833e-09
3.86034e-09
2.87946e-09
1.378e-09
8.61455e-10
3.20557e-09
4.58228e-09
3.87767e-09
3.27292e-09
2.62126e-09
1.92488e-09
2.1705e-09
2.9745e-09
3.07932e-09
1.55528e-09
4.09035e-10
3.47693e-09
8.25653e-09
8.47053e-09
5.03554e-09
2.73571e-09
1.9938e-09
1.46153e-09
1.20374e-09
1.70756e-09
2.00843e-09
1.87634e-09
1.81174e-09
1.95391e-09
1.82337e-09
2.02754e-09
4.48301e-09
1.03886e-08
1.76073e-08
1.56358e-08
5.71461e-09
2.29835e-11
2.55724e-09
6.03791e-09
6.8579e-09
5.54458e-09
3.94868e-09
2.96385e-09
1.43991e-09
8.08991e-10
3.19353e-09
4.67281e-09
3.95586e-09
3.31626e-09
2.62262e-09
1.88382e-09
2.14066e-09
2.97822e-09
3.12734e-09
1.58772e-09
3.8961e-10
3.50651e-09
8.37591e-09
8.57414e-09
5.07066e-09
2.72584e-09
1.96318e-09
1.47734e-09
1.24299e-09
1.70354e-09
1.95363e-09
1.80807e-09
1.78949e-09
1.96473e-09
1.83459e-09
1.96906e-09
4.45716e-09
1.06774e-08
1.86446e-08
1.69061e-08
6.45353e-09
4.40708e-11
2.81343e-09
6.45497e-09
7.21768e-09
5.78718e-09
4.06172e-09
3.02177e-09
1.5104e-09
7.63917e-10
3.11026e-09
4.70077e-09
4.02788e-09
3.38636e-09
2.64374e-09
1.83316e-09
2.1031e-09
3.00189e-09
3.18578e-09
1.61256e-09
3.71064e-10
3.63585e-09
8.64733e-09
8.76198e-09
5.12481e-09
2.718e-09
1.94099e-09
1.49243e-09
1.27971e-09
1.72323e-09
1.92845e-09
1.72094e-09
1.71616e-09
1.92849e-09
1.80448e-09
1.88046e-09
4.44168e-09
1.11798e-08
2.03243e-08
1.88913e-08
7.60732e-09
9.84095e-11
3.17653e-09
6.97048e-09
7.60646e-09
6.05313e-09
4.17438e-09
3.00598e-09
1.51105e-09
7.68987e-10
3.0207e-09
4.59516e-09
4.00973e-09
3.44288e-09
2.68159e-09
1.78345e-09
2.05558e-09
3.03968e-09
3.29265e-09
1.66632e-09
3.46751e-10
3.77233e-09
8.98269e-09
9.0119e-09
5.18632e-09
2.65226e-09
1.89593e-09
1.52952e-09
1.32426e-09
1.7742e-09
1.97418e-09
1.67346e-09
1.60859e-09
1.83437e-09
1.67096e-09
1.7302e-09
4.46995e-09
1.18536e-08
2.26507e-08
2.17244e-08
9.48881e-09
2.47664e-10
3.5972e-09
7.56389e-09
7.95132e-09
6.24888e-09
4.28378e-09
2.95147e-09
1.42004e-09
8.15945e-10
3.10329e-09
4.52563e-09
3.92103e-09
3.43723e-09
2.6972e-09
1.73153e-09
2.00779e-09
3.09937e-09
3.49133e-09
1.84453e-09
2.8395e-10
3.83387e-09
9.52804e-09
9.52919e-09
5.31015e-09
2.53994e-09
1.71405e-09
1.5856e-09
1.46457e-09
1.90241e-09
2.12182e-09
1.73137e-09
1.54876e-09
1.76229e-09
1.47178e-09
1.43799e-09
4.4963e-09
1.25965e-08
2.55338e-08
2.58249e-08
1.26467e-08
5.86092e-10
3.64798e-09
8.24517e-09
8.45252e-09
6.43931e-09
4.38851e-09
2.97366e-09
1.43858e-09
8.08128e-10
3.09624e-09
4.66845e-09
4.00945e-09
3.47101e-09
2.70691e-09
1.6691e-09
1.96176e-09
3.18694e-09
3.80124e-09
2.23609e-09
2.07086e-10
3.71061e-09
1.03283e-08
1.06919e-08
5.81199e-09
2.47222e-09
1.46361e-09
1.58304e-09
1.74987e-09
2.20276e-09
2.32815e-09
1.91592e-09
1.66432e-09
1.86324e-09
1.38206e-09
1.06448e-09
4.4067e-09
1.28892e-08
2.81117e-08
3.09374e-08
1.72407e-08
1.29019e-09
3.1011e-09
8.58778e-09
9.15286e-09
6.86133e-09
4.53734e-09
3.03076e-09
1.56923e-09
7.98635e-10
2.66533e-09
4.38535e-09
4.07764e-09
3.57793e-09
2.75957e-09
1.62739e-09
1.92125e-09
3.28778e-09
4.12955e-09
2.74128e-09
2.20144e-10
3.22521e-09
1.06166e-08
1.17313e-08
6.5544e-09
2.6223e-09
1.23553e-09
1.49892e-09
2.11252e-09
2.84107e-09
2.77105e-09
1.96945e-09
1.65961e-09
2.12407e-09
1.63957e-09
7.37903e-10
4.16148e-09
1.25114e-08
2.9549e-08
3.64926e-08
2.32567e-08
2.77584e-09
2.20318e-09
8.26561e-09
9.95518e-09
7.55762e-09
4.84682e-09
3.12364e-09
1.68176e-09
8.6255e-10
2.29797e-09
3.83309e-09
3.79491e-09
3.43211e-09
2.70858e-09
1.61774e-09
1.91331e-09
3.39301e-09
4.30131e-09
2.97855e-09
3.11723e-10
2.68224e-09
9.84981e-09
1.13002e-08
6.57111e-09
2.84053e-09
1.16047e-09
1.19347e-09
2.60333e-09
3.94359e-09
3.62194e-09
2.2239e-09
1.5655e-09
2.11674e-09
1.90823e-09
6.3843e-10
3.65247e-09
1.14221e-08
2.92903e-08
4.17123e-08
3.05325e-08
5.69774e-09
1.27824e-09
7.44488e-09
1.09334e-08
8.7463e-09
5.33575e-09
3.25554e-09
1.78501e-09
9.3211e-10
2.0214e-09
3.40408e-09
3.47708e-09
3.13636e-09
2.39713e-09
1.45931e-09
1.92874e-09
3.51506e-09
4.2594e-09
2.63952e-09
2.70179e-10
2.7804e-09
9.18393e-09
1.0035e-08
5.92932e-09
3.05449e-09
1.35439e-09
7.63508e-10
2.87717e-09
5.29281e-09
4.86705e-09
2.78809e-09
1.62894e-09
2.12043e-09
2.30347e-09
6.93928e-10
2.97033e-09
9.72905e-09
2.70327e-08
4.48092e-08
3.61418e-08
1.00546e-08
5.77546e-10
5.65399e-09
1.10156e-08
1.03911e-08
6.26601e-09
3.52689e-09
1.95976e-09
9.10527e-10
1.84874e-09
3.25523e-09
3.37198e-09
3.01867e-09
2.16459e-09
1.22646e-09
1.80016e-09
3.44877e-09
3.99246e-09
1.96955e-09
2.08522e-10
3.75546e-09
9.44411e-09
9.07822e-09
5.55533e-09
3.51593e-09
1.967e-09
5.19249e-10
2.2072e-09
5.70919e-09
6.00043e-09
3.50464e-09
2.01344e-09
2.10029e-09
2.51599e-09
9.54872e-10
2.30078e-09
7.86777e-09
2.29909e-08
4.36012e-08
3.71599e-08
1.44098e-08
8.88853e-10
3.29597e-09
9.73519e-09
1.12857e-08
7.41345e-09
3.92025e-09
2.14328e-09
8.65752e-10
1.7411e-09
3.43375e-09
3.59258e-09
3.19027e-09
2.09755e-09
1.01042e-09
1.59024e-09
3.19279e-09
3.56578e-09
1.42075e-09
3.45675e-10
4.81591e-09
9.70104e-09
9.01517e-09
5.78469e-09
3.99144e-09
2.67808e-09
8.46539e-10
1.03747e-09
4.36802e-09
5.91593e-09
4.082e-09
2.66097e-09
2.55738e-09
2.78318e-09
1.27433e-09
1.76125e-09
6.19207e-09
1.78575e-08
3.76536e-08
3.26089e-08
1.64759e-08
2.1449e-09
1.2499e-09
7.18089e-09
1.0582e-08
8.11241e-09
4.27258e-09
2.20865e-09
8.46191e-10
1.76627e-09
3.77916e-09
3.9171e-09
3.4588e-09
2.22438e-09
9.27426e-10
1.56767e-09
3.09865e-09
3.10299e-09
1.10663e-09
5.02636e-10
4.25177e-09
8.00057e-09
8.29568e-09
6.01273e-09
4.14585e-09
3.14242e-09
1.54283e-09
5.98997e-10
2.34941e-09
4.26218e-09
3.93094e-09
3.22831e-09
3.24719e-09
3.32146e-09
1.75025e-09
1.14013e-09
4.43429e-09
1.26975e-08
2.8493e-08
2.42762e-08
1.5505e-08
3.56512e-09
1.94045e-10
4.34118e-09
8.65865e-09
7.621e-09
4.57089e-09
2.15919e-09
8.20186e-10
1.85283e-09
3.94477e-09
3.95491e-09
3.22381e-09
2.27214e-09
1.4699e-09
1.96312e-09
3.09036e-09
2.57969e-09
7.36573e-10
7.51674e-10
3.60042e-09
5.78649e-09
6.91481e-09
6.37117e-09
4.54411e-09
3.65607e-09
2.32754e-09
8.84832e-10
1.25236e-09
2.69709e-09
3.44537e-09
3.40687e-09
3.45346e-09
3.59435e-09
2.32058e-09
9.14094e-10
2.51758e-09
7.86582e-09
1.85846e-08
1.45783e-08
1.14946e-08
4.2074e-09
1.09283e-10
1.75363e-09
5.50552e-09
6.068e-09
3.88423e-09
1.97595e-09
9.21587e-10
1.92162e-09
3.98909e-09
4.07379e-09
3.17043e-09
2.38795e-09
2.01707e-09
2.81754e-09
3.87259e-09
2.48123e-09
2.70539e-10
1.51268e-09
4.21184e-09
4.60553e-09
5.13955e-09
6.22695e-09
4.93844e-09
4.55381e-09
3.68631e-09
1.36974e-09
7.88384e-10
2.30495e-09
3.11639e-09
3.46963e-09
3.66854e-09
3.95437e-09
3.18347e-09
1.35734e-09
1.25844e-09
4.33057e-09
1.03444e-08
8.25979e-09
6.69254e-09
2.79628e-09
5.1296e-10
9.39739e-10
2.24564e-09
2.91264e-09
2.61921e-09
1.60494e-09
1.1593e-09
2.32907e-09
4.31383e-09
4.44484e-09
3.2362e-09
2.45646e-09
2.25862e-09
2.96782e-09
4.15605e-09
2.92242e-09
2.68682e-10
1.75064e-09
4.94526e-09
4.47119e-09
3.37491e-09
4.64164e-09
4.81149e-09
4.74526e-09
4.10375e-09
1.92235e-09
6.91243e-10
1.64706e-09
3.11081e-09
3.59009e-09
3.61402e-09
3.89431e-09
3.91314e-09
2.38642e-09
9.76882e-10
2.40609e-09
5.99096e-09
4.33028e-09
3.63715e-09
1.86446e-09
1.00973e-09
1.63079e-09
2.13657e-09
1.97697e-09
1.83584e-09
1.3011e-09
1.11567e-09
2.62284e-09
4.85691e-09
4.6513e-09
3.4317e-09
2.80662e-09
2.53806e-09
2.62648e-09
3.35763e-09
2.92314e-09
6.19025e-10
1.1439e-09
4.58507e-09
5.10618e-09
3.42278e-09
3.43583e-09
3.97934e-09
4.43525e-09
4.21324e-09
2.15679e-09
7.59311e-10
1.46185e-09
2.8628e-09
3.73699e-09
3.82602e-09
3.88161e-09
4.04351e-09
3.26493e-09
1.34491e-09
1.23783e-09
3.18604e-09
2.99649e-09
2.43281e-09
1.06622e-09
1.3681e-09
3.05184e-09
3.95603e-09
3.55736e-09
2.25205e-09
1.33093e-09
9.05903e-10
1.6001e-09
3.65797e-09
5.01456e-09
4.46678e-09
3.88454e-09
3.40613e-09
2.50625e-09
2.46986e-09
2.72829e-09
1.25893e-09
5.21576e-10
2.84689e-09
4.77771e-09
4.59823e-09
4.09099e-09
4.11314e-09
4.18472e-09
3.92685e-09
2.0235e-09
9.06847e-10
1.39823e-09
2.35887e-09
3.32692e-09
3.85486e-09
3.77363e-09
3.99028e-09
4.11252e-09
2.41632e-09
7.69963e-10
1.74185e-09
1.84133e-09
2.07696e-09
1.53132e-09
1.36331e-09
2.01488e-09
3.16959e-09
3.84182e-09
3.43312e-09
2.32593e-09
1.22417e-09
7.68251e-10
1.62236e-09
3.14416e-09
3.9895e-09
3.83805e-09
3.34805e-09
2.5028e-09
2.188e-09
2.87969e-09
2.56994e-09
7.79455e-10
7.43536e-10
3.11132e-09
5.59633e-09
5.83848e-09
5.19264e-09
4.77696e-09
3.80208e-09
1.68864e-09
9.62121e-10
1.61227e-09
2.16853e-09
2.59707e-09
2.89798e-09
3.07366e-09
3.23746e-09
3.61354e-09
2.96577e-09
1.27223e-09
9.10207e-10
9.92454e-10
1.59181e-09
1.63962e-09
1.90243e-09
2.79902e-09
3.6378e-09
3.75555e-09
3.04168e-09
2.53299e-09
2.053e-09
1.08932e-09
7.25146e-10
1.53141e-09
2.76443e-09
3.46573e-09
3.383e-09
2.86028e-09
2.56267e-09
2.86006e-09
2.76023e-09
1.30786e-09
5.03579e-10
2.24566e-09
4.63156e-09
5.30657e-09
5.01054e-09
5.18278e-09
4.41865e-09
1.85257e-09
6.21448e-10
1.87102e-09
3.46139e-09
3.64451e-09
2.98063e-09
2.4573e-09
2.26176e-09
2.81632e-09
3.3755e-09
2.43257e-09
1.00658e-09
1.47355e-09
8.89168e-10
1.16362e-09
1.96268e-09
2.82452e-09
3.4506e-09
3.26966e-09
2.39291e-09
1.88469e-09
1.98634e-09
1.87516e-09
1.35575e-09
1.0183e-09
1.09006e-09
1.68055e-09
2.55514e-09
3.30388e-09
3.31665e-09
2.9724e-09
2.37711e-09
1.4414e-09
8.48061e-10
1.53725e-09
3.0433e-09
4.04324e-09
4.48301e-09
5.56535e-09
5.84938e-09
3.21965e-09
5.22514e-10
1.44106e-09
4.23122e-09
5.2545e-09
4.31081e-09
3.04939e-09
2.06934e-09
1.47938e-09
2.23488e-09
3.20654e-09
2.6572e-09
2.25045e-09
1.5363e-09
1.29174e-09
1.56049e-09
2.10137e-09
2.36012e-09
2.12356e-09
1.85189e-09
1.71963e-09
1.56706e-09
1.53125e-09
1.80566e-09
2.07709e-09
1.87707e-09
1.28127e-09
9.71082e-10
1.54935e-09
2.53991e-09
2.96829e-09
2.22625e-09
1.27666e-09
9.13787e-10
1.64303e-09
2.70692e-09
3.2804e-09
3.62658e-09
4.66986e-09
5.40013e-09
3.75242e-09
9.363e-10
7.48278e-10
3.26001e-09
5.03077e-09
4.63955e-09
3.35851e-09
2.06756e-09
1.29644e-09
1.65085e-09
2.64563e-09
2.99309e-09
3.48421e-09
2.34038e-09
1.35764e-09
1.13969e-09
1.3976e-09
1.53364e-09
1.64859e-09
2.02869e-09
2.4003e-09
2.20924e-09
1.61673e-09
1.19996e-09
1.2862e-09
1.70134e-09
1.97442e-09
1.89445e-09
1.85254e-09
1.98958e-09
2.19017e-09
2.14789e-09
1.72715e-09
1.20308e-09
1.05915e-09
1.53079e-09
2.33779e-09
3.07404e-09
3.84514e-09
4.48134e-09
3.44523e-09
1.14796e-09
5.9393e-10
2.27404e-09
3.80364e-09
3.92953e-09
3.26865e-09
2.17204e-09
1.39056e-09
1.69333e-09
2.86473e-09
3.76291e-09
5.3162e-09
4.18498e-09
1.93415e-09
5.94668e-10
8.82818e-10
1.85685e-09
2.5511e-09
2.92485e-09
2.88701e-09
2.29288e-09
1.47145e-09
1.16787e-09
1.5839e-09
1.88705e-09
1.58451e-09
1.53902e-09
2.13333e-09
2.78486e-09
2.96508e-09
3.10256e-09
3.01166e-09
2.07368e-09
1.04648e-09
9.02189e-10
1.48049e-09
2.48169e-09
3.35916e-09
3.66562e-09
2.72832e-09
1.24818e-09
7.84749e-10
1.72034e-09
2.67057e-09
2.93497e-09
2.62108e-09
2.17119e-09
1.91407e-09
2.24405e-09
3.35405e-09
4.71438e-09
5.91445e-09
2.20811e-09
3.31885e-10
1.15697e-09
2.92677e-09
4.01184e-09
3.7048e-09
2.8425e-09
1.74588e-09
8.01601e-10
1.83567e-09
3.04087e-09
2.88133e-09
2.28283e-09
1.59794e-09
1.39495e-09
2.02581e-09
2.54377e-09
2.16982e-09
1.11295e-09
7.28558e-10
2.87219e-09
6.6547e-09
7.76535e-09
5.36162e-09
3.29471e-09
2.48333e-09
1.46938e-09
8.35181e-10
1.61256e-09
2.78202e-09
3.5398e-09
3.34526e-09
3.46934e-09
3.34516e-09
2.77331e-09
3.46146e-09
5.48623e-09
7.42103e-09
8.03803e-09
6.05093e-09
2.27868e-09
3.33424e-10
1.12943e-09
2.90149e-09
4.00231e-09
3.71082e-09
2.84586e-09
1.74912e-09
8.04442e-10
1.84e-09
3.05369e-09
2.89414e-09
2.29632e-09
1.60207e-09
1.39098e-09
2.02521e-09
2.55523e-09
2.18949e-09
1.12439e-09
7.16853e-10
2.82084e-09
6.58015e-09
7.70827e-09
5.3324e-09
3.2816e-09
2.49799e-09
1.49367e-09
8.16813e-10
1.56054e-09
2.75043e-09
3.57184e-09
3.39736e-09
3.49625e-09
3.34228e-09
2.73452e-09
3.42902e-09
5.49326e-09
7.48028e-09
8.16014e-09
6.23925e-09
2.35005e-09
3.23819e-10
1.12081e-09
2.9192e-09
4.0364e-09
3.74861e-09
2.8697e-09
1.77168e-09
8.01693e-10
1.83266e-09
3.07396e-09
2.91535e-09
2.30874e-09
1.59811e-09
1.3809e-09
2.0265e-09
2.57547e-09
2.21692e-09
1.13613e-09
7.0452e-10
2.77874e-09
6.55051e-09
7.7231e-09
5.34164e-09
3.27161e-09
2.52454e-09
1.55363e-09
8.19743e-10
1.47232e-09
2.64475e-09
3.59397e-09
3.52846e-09
3.57841e-09
3.3704e-09
2.72143e-09
3.43605e-09
5.56631e-09
7.64487e-09
8.38835e-09
6.51079e-09
2.42745e-09
3.03515e-10
1.13566e-09
2.98241e-09
4.11969e-09
3.82187e-09
2.91539e-09
1.81651e-09
7.93829e-10
1.81003e-09
3.102e-09
2.94763e-09
2.31833e-09
1.57589e-09
1.35436e-09
2.03313e-09
2.61072e-09
2.2503e-09
1.13803e-09
6.91481e-10
2.78286e-09
6.6274e-09
7.83996e-09
5.38814e-09
3.25351e-09
2.54083e-09
1.61627e-09
8.37666e-10
1.37624e-09
2.4442e-09
3.52839e-09
3.67973e-09
3.69929e-09
3.42409e-09
2.74747e-09
3.51437e-09
5.7805e-09
8.01032e-09
8.7805e-09
6.88477e-09
2.52323e-09
2.75321e-10
1.16726e-09
3.07484e-09
4.23647e-09
3.92148e-09
2.97858e-09
1.88322e-09
7.86827e-10
1.75859e-09
3.10948e-09
2.97666e-09
2.32245e-09
1.5338e-09
1.30874e-09
2.04534e-09
2.66877e-09
2.31121e-09
1.13458e-09
6.78037e-10
2.85564e-09
6.85677e-09
8.11032e-09
5.5064e-09
3.24797e-09
2.53889e-09
1.64256e-09
8.58052e-10
1.34926e-09
2.22832e-09
3.32528e-09
3.76521e-09
3.81317e-09
3.46888e-09
2.79973e-09
3.66921e-09
6.16619e-09
8.6283e-09
9.37607e-09
7.38679e-09
2.66571e-09
2.45785e-10
1.20144e-09
3.18099e-09
4.38083e-09
4.04108e-09
3.04806e-09
1.96316e-09
7.95656e-10
1.67245e-09
3.04992e-09
2.96521e-09
2.30768e-09
1.47011e-09
1.24392e-09
2.06321e-09
2.75264e-09
2.40785e-09
1.15706e-09
6.51792e-10
2.89876e-09
7.1556e-09
8.61325e-09
5.829e-09
3.35319e-09
2.58053e-09
1.60978e-09
8.35782e-10
1.43668e-09
2.1418e-09
3.00531e-09
3.68343e-09
3.84648e-09
3.44721e-09
2.85842e-09
3.90721e-09
6.78117e-09
9.59525e-09
1.02511e-08
8.10532e-09
2.8668e-09
2.2433e-10
1.21058e-09
3.24243e-09
4.50754e-09
4.18318e-09
3.10223e-09
2.01259e-09
8.24463e-10
1.59809e-09
2.91861e-09
2.89411e-09
2.27029e-09
1.38106e-09
1.17496e-09
2.088e-09
2.84986e-09
2.5484e-09
1.24767e-09
6.04855e-10
2.6911e-09
7.21891e-09
9.23115e-09
6.41567e-09
3.63396e-09
2.7926e-09
1.64219e-09
7.28076e-10
1.62692e-09
2.34607e-09
2.75445e-09
3.43251e-09
3.7347e-09
3.28296e-09
2.83891e-09
4.22974e-09
7.70501e-09
1.10773e-08
1.15857e-08
9.2035e-09
3.19461e-09
2.14735e-10
1.16064e-09
3.24281e-09
4.53708e-09
4.2933e-09
3.15744e-09
2.00932e-09
8.53588e-10
1.57786e-09
2.86733e-09
2.89131e-09
2.2481e-09
1.24781e-09
1.10176e-09
2.1402e-09
2.96448e-09
2.7315e-09
1.43821e-09
5.71825e-10
2.18888e-09
6.97778e-09
9.96757e-09
7.27734e-09
3.93915e-09
3.01684e-09
1.86106e-09
6.80918e-10
1.63381e-09
2.68309e-09
2.95573e-09
3.29757e-09
3.54682e-09
2.977e-09
2.67885e-09
4.56876e-09
8.94581e-09
1.32774e-08
1.36548e-08
1.09244e-08
3.66986e-09
2.15558e-10
1.07922e-09
3.20105e-09
4.50132e-09
4.36696e-09
3.2267e-09
2.02018e-09
8.78823e-10
1.51207e-09
2.65699e-09
2.74247e-09
2.20447e-09
1.23421e-09
1.09078e-09
2.24416e-09
3.1115e-09
2.95057e-09
1.73308e-09
6.46619e-10
1.5477e-09
6.44367e-09
1.0817e-08
8.56863e-09
4.38098e-09
3.1042e-09
2.07041e-09
8.0838e-10
1.49933e-09
2.48024e-09
3.03209e-09
3.73557e-09
3.71236e-09
2.71806e-09
2.41454e-09
4.78511e-09
1.0183e-08
1.62203e-08
1.68082e-08
1.37336e-08
4.5324e-09
2.44116e-10
1.00527e-09
3.17304e-09
4.4982e-09
4.3736e-09
3.32664e-09
2.12994e-09
9.12538e-10
1.41629e-09
2.4096e-09
2.42189e-09
1.83302e-09
1.08249e-09
1.35077e-09
2.60945e-09
3.3244e-09
3.1251e-09
2.01611e-09
9.36343e-10
8.83777e-10
5.14417e-09
1.09197e-08
9.88702e-09
5.03624e-09
3.12628e-09
2.1528e-09
1.01099e-09
1.55811e-09
2.29856e-09
2.50344e-09
3.81858e-09
4.28941e-09
2.8909e-09
2.33064e-09
4.81053e-09
1.08227e-08
1.9005e-08
2.09609e-08
1.77844e-08
6.40588e-09
4.51376e-10
8.20557e-10
3.37588e-09
4.85713e-09
4.339e-09
3.43324e-09
2.29917e-09
9.65776e-10
1.30944e-09
2.21299e-09
2.24742e-09
1.68326e-09
9.68278e-10
1.50191e-09
3.08562e-09
3.63088e-09
3.20129e-09
2.07897e-09
1.30882e-09
6.87876e-10
3.3091e-09
9.36242e-09
1.02384e-08
5.85119e-09
3.34618e-09
2.14181e-09
1.07819e-09
1.7165e-09
2.4646e-09
2.05628e-09
2.9044e-09
4.21566e-09
3.344e-09
2.58116e-09
4.69373e-09
1.02318e-08
1.9862e-08
2.49157e-08
2.14946e-08
9.35749e-09
1.27899e-09
3.52851e-10
3.30201e-09
5.84151e-09
5.19175e-09
3.84677e-09
2.59639e-09