/*--------------------------------*- C++ -*----------------------------------*\
| =========                 |                                                 |
| \\      /  F ield         | OpenFOAM: The Open Source CFD Toolbox           |
|  \\    /   O peration     | Version:  2306                                  |
|   \\  /    A nd           | Website:  www.openfoam.com                      |
|    \\/     M anipulation  |                                                 |
\*---------------------------------------------------------------------------*/
FoamFile
{
    version     2.0;
    format      ascii;
    arch        "LSB;label=32;scalar=64";
    class       volVectorField;
    location    "3.5";
    object      U_0;
}
// * * * * * * * * * * * * * * * * * * * * * * * * * * * * * * * * * * * * * //

dimensions      [0 1 -1 0 0 0 0];

internalField   nonuniform List<vector> 
60000
(
(0.00999041 6.29196e-05 0.00201556)
(0.0100928 5.03211e-05 0.0025881)
(0.00992655 2.2508e-05 0.00276667)
(0.00964551 -7.41205e-07 0.00256413)
(0.00942141 -1.08127e-05 0.00219855)
(0.00926307 -7.78954e-06 0.00184042)
(0.00910106 -2.4888e-06 0.00151408)
(0.0088867 -2.78836e-06 0.00120827)
(0.00854007 -7.83757e-06 0.000988727)
(0.00792704 -1.10218e-05 0.000916022)
(0.00704217 -1.20845e-05 0.000975894)
(0.00617048 -1.00339e-05 0.0010684)
(0.00565375 -8.36756e-06 0.00112862)
(0.00555376 -1.35074e-05 0.00112604)
(0.00571013 -2.31014e-05 0.000963133)
(0.00589468 -2.48855e-05 0.000670263)
(0.00599845 -1.36149e-05 0.00037209)
(0.00611964 -9.70521e-07 0.000123778)
(0.00637081 1.00868e-05 -7.54729e-05)
(0.00670686 1.8978e-05 -0.000242765)
(0.00703468 2.58427e-05 -0.00044171)
(0.00733645 2.53226e-05 -0.000736639)
(0.00768564 1.27221e-05 -0.00113945)
(0.00815906 -2.15722e-06 -0.00164446)
(0.00869452 -9.02263e-06 -0.00214674)
(0.00909353 -1.08055e-05 -0.00245541)
(0.00916051 -1.16605e-05 -0.00251133)
(0.00879131 -5.70918e-06 -0.00248181)
(0.00804017 8.73746e-06 -0.00239684)
(0.00717184 1.22118e-05 -0.00218871)
(0.00651729 -2.9395e-06 -0.00203415)
(0.00617223 -6.68103e-06 -0.00202598)
(0.00606816 6.18333e-07 -0.00198432)
(0.00619063 5.38143e-06 -0.00167946)
(0.00652091 1.51658e-05 -0.00105069)
(0.00697481 3.02657e-05 -0.000300801)
(0.00749047 4.46825e-05 0.00024461)
(0.00811772 4.69495e-05 0.000528937)
(0.00886109 4.32765e-05 0.000812783)
(0.00955434 5.10677e-05 0.00132061)
(0.0300836 0.000313808 0.00555207)
(0.0308104 0.000239504 0.0068425)
(0.0306503 8.93569e-05 0.007098)
(0.0298531 -3.94068e-05 0.00643156)
(0.0290098 -8.77124e-05 0.00549952)
(0.0283931 -6.4687e-05 0.0047314)
(0.027875 -2.71223e-05 0.0040677)
(0.0272111 -9.15544e-06 0.003377)
(0.026127 -5.31716e-06 0.00278236)
(0.0243451 -9.91842e-06 0.00250218)
(0.0219029 -4.4434e-05 0.00261678)
(0.0194675 -0.000113217 0.00291297)
(0.0178791 -0.000188282 0.00309344)
(0.0173218 -0.000242717 0.0029602)
(0.0173961 -0.000251957 0.00242461)
(0.0175888 -0.000195083 0.00167829)
(0.017754 -9.76347e-05 0.000976717)
(0.0181384 -1.89488e-05 0.000397759)
(0.0188961 3.36222e-05 -9.37632e-05)
(0.019879 7.13241e-05 -0.000564672)
(0.0209403 8.71015e-05 -0.00116179)
(0.0221051 4.22112e-05 -0.00200386)
(0.0234945 -5.98056e-05 -0.00312178)
(0.0251424 -0.000146167 -0.00447457)
(0.0267914 -0.000158184 -0.00576753)
(0.027939 -0.000116368 -0.00652979)
(0.028087 -5.39792e-05 -0.00663633)
(0.0269852 2.46097e-05 -0.00641955)
(0.024916 8.21052e-05 -0.00598641)
(0.0226058 3.48625e-05 -0.00543962)
(0.020664 -7.79459e-05 -0.00526299)
(0.0192565 -0.000112322 -0.00545418)
(0.0184877 -7.38753e-05 -0.00534018)
(0.0185709 -2.26458e-05 -0.00436045)
(0.0194395 5.80941e-05 -0.00259727)
(0.0207828 0.000170947 -0.000696689)
(0.0223973 0.000259109 0.000671387)
(0.0243381 0.000257521 0.00150454)
(0.0265273 0.000238079 0.00241366)
(0.0285726 0.000272469 0.00382615)
(0.0506131 0.000603645 0.00804513)
(0.0524862 0.000409536 0.0100341)
(0.0527317 8.54164e-05 0.0105393)
(0.0514568 -0.000167946 0.00957236)
(0.0497559 -0.000243718 0.00812719)
(0.0484814 -0.000180861 0.00704671)
(0.0475835 -9.74506e-05 0.00627611)
(0.046561 -5.18547e-05 0.00544739)
(0.0449318 -3.30473e-05 0.00453949)
(0.0423339 -4.15219e-05 0.00387668)
(0.0387157 -0.000121959 0.00382001)
(0.0347566 -0.000295496 0.00429079)
(0.0316594 -0.00049508 0.00472456)
(0.0300345 -0.000627279 0.00456572)
(0.0295355 -0.000626808 0.00374597)
(0.0294366 -0.000471146 0.00267784)
(0.029512 -0.000239048 0.00172449)
(0.0300755 -5.65303e-05 0.000953312)
(0.0312755 5.20122e-05 0.000287087)
(0.0328781 0.000121139 -0.000377358)
(0.0347121 0.000119929 -0.00122495)
(0.0368594 -3.81595e-05 -0.00242154)
(0.0394576 -0.000307482 -0.00406265)
(0.0424566 -0.000512696 -0.00615232)
(0.0454131 -0.000527837 -0.00827741)
(0.0475573 -0.00040338 -0.00967147)
(0.0481156 -0.000217759 -0.0100027)
(0.0466716 -3.94777e-06 -0.00962461)
(0.0436548 0.000123017 -0.00876409)
(0.0401249 1.2656e-06 -0.00778027)
(0.0368472 -0.000229816 -0.00753059)
(0.0339984 -0.000292275 -0.00809198)
(0.0318856 -0.00020423 -0.00832373)
(0.0312111 -8.50125e-05 -0.00712817)
(0.0321658 9.5739e-05 -0.00457883)
(0.0342421 0.000356823 -0.00172974)
(0.0369601 0.000560631 0.000413137)
(0.0402775 0.000553088 0.00181551)
(0.0440141 0.000506346 0.0033008)
(0.0476247 0.000558672 0.00546371)
(0.0706393 0.000798717 0.00879652)
(0.0742882 0.000462638 0.0117254)
(0.0755549 -3.62965e-05 0.0130263)
(0.074032 -0.000387136 0.0122466)
(0.0712604 -0.000466223 0.0103366)
(0.0690591 -0.000348099 0.0087927)
(0.0677493 -0.000211265 0.0079842)
(0.0665517 -0.000126495 0.00733208)
(0.0647202 -7.65323e-05 0.0063625)
(0.0618575 -7.18408e-05 0.0052197)
(0.0577128 -0.000178518 0.00462567)
(0.0525545 -0.000456939 0.00504146)
(0.0475529 -0.000831814 0.00589549)
(0.0439553 -0.00110803 0.00602526)
(0.0420766 -0.0011325 0.00508374)
(0.0412167 -0.000872086 0.00377315)
(0.0409395 -0.000476737 0.00268707)
(0.0414804 -0.000166014 0.00189244)
(0.0429487 1.50974e-05 0.00125006)
(0.0450273 0.000106521 0.000625898)
(0.0475153 5.17088e-05 -0.000168355)
(0.0505444 -0.000289495 -0.00134174)
(0.0543053 -0.000832102 -0.00312594)
(0.0587361 -0.0012281 -0.00574432)
(0.0632797 -0.00124353 -0.00884833)
(0.0668979 -0.000981742 -0.0113452)
(0.0685227 -0.000588407 -0.0124364)
(0.0674949 -0.000148401 -0.0122739)
(0.0642021 0.000106552 -0.0111227)
(0.0598685 -7.7854e-05 -0.00952848)
(0.0554131 -0.000437436 -0.00883237)
(0.0510363 -0.000533913 -0.00962167)
(0.0470004 -0.00040601 -0.0106475)
(0.0444255 -0.00024872 -0.0101082)
(0.0443678 1.45415e-05 -0.00751962)
(0.0465992 0.000436846 -0.0040837)
(0.0502276 0.000779915 -0.00126576)
(0.0548998 0.000780728 0.000657424)
(0.0602882 0.000666669 0.00261871)
(0.065722 0.000747656 0.00539839)
(0.0882998 0.000721735 0.00677476)
(0.0944254 0.000290203 0.0109252)
(0.0976681 -0.000333675 0.0138105)
(0.0965594 -0.000708301 0.0142585)
(0.0926993 -0.000731852 0.0123818)
(0.0892522 -0.000537529 0.0101273)
(0.0874381 -0.00035064 0.00900089)
(0.0863044 -0.000229893 0.00872406)
(0.0846804 -0.000140262 0.00821215)
(0.0821335 -0.000103159 0.00683903)
(0.0782839 -0.000181593 0.00536854)
(0.072765 -0.000486216 0.0051919)
(0.0661212 -0.00101989 0.00638672)
(0.0598121 -0.00152448 0.00723474)
(0.0553757 -0.00168304 0.00647899)
(0.0529032 -0.0013852 0.00493809)
(0.0517872 -0.000842334 0.00373206)
(0.0519433 -0.000394818 0.00305992)
(0.0533378 -0.000127104 0.00269103)
(0.0555347 -9.45704e-06 0.00243511)
(0.0582302 -0.00015128 0.00212806)
(0.0615631 -0.000776376 0.00156683)
(0.0658749 -0.00178456 0.000361504)
(0.0713972 -0.00257154 -0.0021279)
(0.0777995 -0.0026141 -0.00606353)
(0.0837317 -0.00204564 -0.0102891)
(0.0875423 -0.0012757 -0.0131699)
(0.0881651 -0.000489348 -0.0141614)
(0.0856809 -4.36026e-06 -0.0133183)
(0.0812451 -0.000194641 -0.0112011)
(0.0760075 -0.000670037 -0.00962491)
(0.0704555 -0.000792594 -0.0100693)
(0.0646755 -0.000623887 -0.0117594)
(0.0594898 -0.000481864 -0.0125366)
(0.0567242 -0.000249079 -0.0110469)
(0.0574939 0.000247017 -0.00796561)
(0.0610973 0.000684102 -0.0050135)
(0.0666919 0.000662193 -0.00287759)
(0.0736542 0.000430927 -0.000649385)
(0.0810771 0.000559799 0.00259536)
(0.10002 -0.000243232 0.000527868)
(0.109355 -0.000442325 0.00582098)
(0.116202 -0.000952041 0.0110708)
(0.117075 -0.00118837 0.014365)
(0.112649 -0.00104399 0.0140903)
(0.107676 -0.000719208 0.0114486)
(0.105186 -0.000479041 0.00941453)
(0.104405 -0.000351916 0.00919698)
(0.103437 -0.000231203 0.00966807)
(0.101632 -0.000153003 0.00886222)
(0.0988027 -0.000161993 0.00658716)
(0.094139 -0.000355685 0.00510853)
(0.0871909 -0.000908668 0.00605438)
(0.0785718 -0.00164033 0.00784564)
(0.0705346 -0.00208056 0.0078292)
(0.0650322 -0.00191008 0.00616674)
(0.0621562 -0.00130487 0.00468234)
(0.0613749 -0.000737547 0.00407468)
(0.0622212 -0.000375942 0.00407822)
(0.0640052 -0.000204183 0.00439025)
(0.0661517 -0.000468753 0.00486929)
(0.0686242 -0.00154018 0.00539652)
(0.071933 -0.00327218 0.00557695)
(0.0768727 -0.00477634 0.00450914)
(0.0841084 -0.0052089 0.00121642)
(0.0931847 -0.00439841 -0.0043072)
(0.10148 -0.0027976 -0.0102087)
(0.105988 -0.00120593 -0.0140876)
(0.106093 -0.000267086 -0.0149082)
(0.102692 -0.000367586 -0.0130483)
(0.0972614 -0.000916652 -0.0106033)
(0.0911181 -0.00103127 -0.0100494)
(0.0845567 -0.000782811 -0.0116152)
(0.077584 -0.000641148 -0.0133871)
(0.0715276 -0.000527321 -0.0136134)
(0.0686757 -0.000153946 -0.0122145)
(0.0698675 0.000168025 -0.0104356)
(0.0746269 -5.20912e-05 -0.00901913)
(0.0820178 -0.000569058 -0.00714626)
(0.0907167 -0.000539394 -0.00394742)
(0.102646 -0.00231648 -0.00929206)
(0.113123 -0.00241162 -0.00424587)
(0.125257 -0.00256343 0.00276202)
(0.131693 -0.00214442 0.0101355)
(0.128746 -0.00150976 0.013992)
(0.122272 -0.000959624 0.0128537)
(0.118833 -0.000607691 0.00980644)
(0.118807 -0.000453906 0.00863868)
(0.119176 -0.000359941 0.00990763)
(0.118372 -0.000266008 0.0107671)
(0.116763 -0.000169813 0.00863598)
(0.113966 -0.00017065 0.0054733)
(0.108784 -0.000534072 0.0051275)
(0.100114 -0.00130106 0.00745996)
(0.0890448 -0.00203143 0.00874263)
(0.0791193 -0.00219203 0.00747815)
(0.0728931 -0.00172336 0.00563971)
(0.070302 -0.00110561 0.00480074)
(0.0701737 -0.000633588 0.00490687)
(0.0713002 -0.000365242 0.0054923)
(0.0727685 -0.000762409 0.00633376)
(0.0742089 -0.00244132 0.00754724)
(0.0758281 -0.00513241 0.00915871)
(0.0784038 -0.00750017 0.0103339)
(0.0831844 -0.00849333 0.00965469)
(0.09172 -0.00788924 0.00579593)
(0.104079 -0.00585363 -0.00148234)
(0.115789 -0.00301652 -0.00948616)
(0.121818 -0.00100032 -0.0141233)
(0.121434 -0.000736253 -0.0142935)
(0.116575 -0.00125781 -0.0119969)
(0.110313 -0.00121769 -0.0103536)
(0.104086 -0.000793829 -0.010907)
(0.0973064 -0.000612764 -0.0125772)
(0.0898763 -0.00054504 -0.0138284)
(0.0836166 -0.000356465 -0.0144639)
(0.0804725 -0.000418434 -0.0151956)
(0.0815729 -0.00119839 -0.0159655)
(0.0868846 -0.00229273 -0.0154281)
(0.0943883 -0.00257614 -0.013002)
(0.103042 -0.00468843 -0.0184475)
(0.109957 -0.00517625 -0.0140991)
(0.122466 -0.00555365 -0.00762072)
(0.135847 -0.00422595 0.0015658)
(0.138288 -0.00227646 0.0100091)
(0.131018 -0.00121077 0.0129725)
(0.125308 -0.00094316 0.0106291)
(0.126419 -0.000729905 0.0077369)
(0.129745 -0.000475614 0.00832984)
(0.130493 -0.000467002 0.0110384)
(0.129336 -0.000476203 0.0108209)
(0.128382 -0.000208102 0.00677774)
(0.12679 -0.000100664 0.00424338)
(0.121614 -0.000630821 0.00606136)
(0.110888 -0.00139737 0.00864123)
(0.0971506 -0.00188415 0.0085501)
(0.0858807 -0.00181343 0.00682283)
(0.0799122 -0.00136984 0.00566483)
(0.0782226 -0.000830335 0.00550397)
(0.0788468 -0.000397423 0.00587033)
(0.0805758 -0.000782716 0.00641146)
(0.0826276 -0.00282771 0.00742742)
(0.0840548 -0.00628479 0.00957901)
(0.0845755 -0.0096021 0.0125034)
(0.0854732 -0.0113445 0.0146778)
(0.0894529 -0.0111312 0.0141764)
(0.0994195 -0.00923369 0.00912672)
(0.114632 -0.00584518 -6.63591e-05)
(0.128451 -0.0026167 -0.00878125)
(0.1338 -0.00151309 -0.0129153)
(0.130047 -0.00183862 -0.0128074)
(0.123164 -0.00174494 -0.0109683)
(0.118117 -0.00102999 -0.00996488)
(0.114028 -0.000421414 -0.0104712)
(0.10853 -8.55414e-05 -0.0115825)
(0.102121 0.000137781 -0.0131872)
(0.0963691 -0.000349937 -0.0162598)
(0.0927528 -0.0020561 -0.0203495)
(0.0933025 -0.00413837 -0.0226633)
(0.0977556 -0.00489565 -0.0215828)
(0.106916 -0.00665365 -0.0249563)
(0.110568 -0.00745248 -0.0203076)
(0.118321 -0.0088928 -0.0140992)
(0.132325 -0.00772232 -0.00579406)
(0.141886 -0.00393557 0.00389519)
(0.138061 -0.0012713 0.0102748)
(0.128734 -0.00107854 0.0104862)
(0.12637 -0.00153254 0.00712751)
(0.132799 -0.00103021 0.00571094)
(0.138279 -0.000418539 0.00847751)
(0.136549 -0.000644581 0.0107834)
(0.132874 -0.000987704 0.00801451)
(0.13383 -0.000774007 0.00378118)
(0.13633 -0.000471064 0.00406862)
(0.132086 -0.000576168 0.00731229)
(0.119034 -0.000917073 0.00873764)
(0.103309 -0.00118801 0.00789073)
(0.0921483 -0.00124557 0.00692549)
(0.0873927 -0.000949055 0.00662356)
(0.0870843 -0.000452574 0.00664773)
(0.0893127 -0.000726457 0.00668222)
(0.0927194 -0.00277194 0.00701555)
(0.0954427 -0.00635077 0.00862023)
(0.0959177 -0.0100963 0.011807)
(0.0944237 -0.012629 0.0155852)
(0.0934596 -0.0132661 0.0181594)
(0.097874 -0.01195 0.0164095)
(0.110548 -0.00886577 0.00876698)
(0.127659 -0.00504484 -0.00151521)
(0.137842 -0.00254824 -0.0090474)
(0.133132 -0.00164916 -0.0115222)
(0.120851 -0.00138844 -0.0100672)
(0.113629 -0.00131808 -0.00739786)
(0.114572 -0.00101635 -0.00596189)
(0.117667 -5.54652e-05 -0.00636424)
(0.117492 0.00100371 -0.00826802)
(0.114276 0.000745018 -0.0124385)
(0.109392 -0.0016711 -0.0190803)
(0.104911 -0.00504056 -0.0252307)
(0.104319 -0.00673737 -0.0272019)
(0.113472 -0.00753475 -0.0282686)
(0.114947 -0.00841482 -0.0242116)
(0.11895 -0.0109556 -0.0175334)
(0.128384 -0.0114029 -0.00996537)
(0.140644 -0.00724813 -0.00144231)
(0.144312 -0.002112 0.00595713)
(0.137103 -0.000508139 0.00849571)
(0.128686 -0.00182984 0.00616447)
(0.129524 -0.00247324 0.00334681)
(0.138616 -0.00100981 0.00456334)
(0.143188 0.000276413 0.00816104)
(0.137624 -0.000603004 0.00808799)
(0.132186 -0.00253012 0.00417033)
(0.136775 -0.00298754 0.00268208)
(0.143802 -0.00164267 0.00543522)
(0.139486 -0.000271791 0.00794879)
(0.124519 0.000105712 0.00816481)
(0.108907 -0.000260612 0.00788543)
(0.0992639 -0.000633088 0.00816187)
(0.0961107 -0.000599962 0.00848135)
(0.0979516 -0.00102598 0.00813057)
(0.102786 -0.00299642 0.00713255)
(0.107342 -0.00626106 0.00711547)
(0.108722 -0.00967186 0.00945879)
(0.1066 -0.01226 0.0136174)
(0.102764 -0.0135204 0.0181024)
(0.101704 -0.01333 0.0195531)
(0.108935 -0.0114089 0.0142821)
(0.123792 -0.00782329 0.00385663)
(0.135161 -0.0036598 -0.00579747)
(0.131063 -0.000499573 -0.0101611)
(0.116619 0.000494179 -0.00877011)
(0.105813 -0.000574149 -0.0042131)
(0.105024 -0.00175488 5.64246e-06)
(0.112268 -0.000990798 0.00150464)
(0.120788 0.00106685 -2.93932e-05)
(0.125517 0.0019988 -0.00466915)
(0.125198 -2.07863e-05 -0.0126159)
(0.12045 -0.00414983 -0.0216517)
(0.115112 -0.00709056 -0.027594)
(0.122645 -0.00695132 -0.0277992)
(0.120342 -0.00800422 -0.0267584)
(0.122447 -0.0110717 -0.0206423)
(0.128149 -0.0135541 -0.012851)
(0.137768 -0.0112148 -0.00546841)
(0.145975 -0.00504839 0.00122425)
(0.145591 -0.000758169 0.00522286)
(0.137685 -0.000949496 0.00487566)
(0.130498 -0.00292534 0.00212206)
(0.132703 -0.0027372 0.0015008)
(0.14182 -0.000137627 0.00454379)
(0.145361 0.00116313 0.00681419)
(0.139201 -0.00158045 0.00494611)
(0.134872 -0.00557917 0.00268767)
(0.142281 -0.00579496 0.00427972)
(0.149603 -0.00228271 0.00714354)
(0.143356 0.000748365 0.00791045)
(0.128586 0.00152195 0.0078905)
(0.115134 0.000893547 0.00891884)
(0.107337 -0.000196683 0.0103795)
(0.106329 -0.00186066 0.0103493)
(0.111553 -0.00429851 0.00779193)
(0.118858 -0.00688521 0.00506282)
(0.122537 -0.0091458 0.00557729)
(0.120603 -0.0110392 0.00951972)
(0.114964 -0.0121637 0.0151436)
(0.109502 -0.0126478 0.0193114)
(0.110332 -0.0122503 0.0171163)
(0.119812 -0.0097817 0.00794714)
(0.129949 -0.00470481 -0.00263453)
(0.12874 0.000617543 -0.00876886)
(0.117385 0.00292875 -0.00847739)
(0.106803 0.00131961 -0.00356861)
(0.102857 -0.00153358 0.00253276)
(0.106726 -0.00200015 0.00668101)
(0.115941 0.000212836 0.00745843)
(0.126042 0.00235765 0.00431981)
(0.133025 0.00173427 -0.00337368)
(0.133722 -0.00186235 -0.0140258)
(0.128567 -0.00558914 -0.0231958)
(0.133717 -0.00485278 -0.0238407)
(0.127617 -0.00663857 -0.0265743)
(0.127252 -0.00997848 -0.0233661)
(0.131795 -0.0136328 -0.0160797)
(0.137946 -0.0138723 -0.00882145)
(0.144653 -0.00924051 -0.00289112)
(0.148356 -0.00329713 0.00157403)
(0.145316 -0.000714369 0.00324716)
(0.137022 -0.00179648 0.00180094)
(0.131482 -0.00312167 0.000293446)
(0.135541 -0.00193122 0.00194935)
(0.144462 0.000337614 0.00496501)
(0.147018 -0.000327214 0.00512418)
(0.14112 -0.00499715 0.00301248)
(0.139058 -0.00874392 0.00319948)
(0.147025 -0.0066231 0.00606693)
(0.151704 -0.00111227 0.00753449)
(0.144811 0.00249539 0.00736103)
(0.132416 0.00330596 0.00848902)
(0.121533 0.0018967 0.0109896)
(0.115936 -0.0016592 0.0112988)
(0.117903 -0.00611621 0.00707898)
(0.126347 -0.00876845 0.00169728)
(0.134394 -0.00928082 0.000356193)
(0.135261 -0.00955994 0.00394256)
(0.129009 -0.0100152 0.0101884)
(0.120153 -0.0103466 0.0164596)
(0.114827 -0.0108328 0.0178976)
(0.117881 -0.00997025 0.0114781)
(0.125271 -0.00539314 0.00112889)
(0.126779 0.00111881 -0.00663299)
(0.120846 0.0047326 -0.00874438)
(0.113905 0.00331921 -0.0060957)
(0.109526 -0.000222943 -0.000754387)
(0.109187 -0.00185368 0.00497356)
(0.113617 -0.000445777 0.00877707)
(0.121742 0.0017696 0.00914369)
(0.132259 0.00229443 0.00451571)
(0.140394 0.00046704 -0.00533485)
(0.140272 -0.00268974 -0.0162518)
(0.143737 -0.0015917 -0.0186716)
(0.136519 -0.00451961 -0.023864)
(0.133752 -0.00867739 -0.0238415)
(0.137319 -0.0126294 -0.018788)
(0.142084 -0.0144615 -0.0123066)
(0.144833 -0.0124505 -0.00657518)
(0.146741 -0.00713587 -0.00161187)
(0.146582 -0.00214214 0.00177546)
(0.141887 -0.00061041 0.00207106)
(0.135374 -0.00189678 0.000536727)
(0.134323 -0.00282185 0.000875157)
(0.140936 -0.00192001 0.00376193)
(0.147706 -0.00140247 0.00545635)
(0.146999 -0.00419078 0.0038166)
(0.141661 -0.00883473 0.00209368)
(0.141979 -0.00975779 0.00358917)
(0.147902 -0.00503514 0.00594176)
(0.149046 0.000870885 0.00683822)
(0.142073 0.0044274 0.00818508)
(0.132253 0.0046222 0.0104982)
(0.124856 0.00104942 0.0096875)
(0.122175 -0.0053244 0.00348592)
(0.126847 -0.0103596 -0.00361656)
(0.138092 -0.0106576 -0.0056373)
(0.145647 -0.00875284 -0.00167155)
(0.142114 -0.00784542 0.00496817)
(0.131411 -0.00759494 0.0120567)
(0.12161 -0.00784134 0.0164642)
(0.118885 -0.00785201 0.013911)
(0.122723 -0.00461949 0.00531967)
(0.125451 0.0016052 -0.00355533)
(0.123855 0.00573757 -0.00845223)
(0.1212 0.00478999 -0.00891829)
(0.118983 0.00124633 -0.00609952)
(0.117425 -0.0007408 -0.00144638)
(0.117554 -6.19471e-05 0.00342006)
(0.120597 0.000995731 0.00682633)
(0.128883 0.000945254 0.00651139)
(0.141029 0.000665217 0.000313013)
(0.147455 3.56125e-05 -0.00973365)
(0.151525 0.00109833 -0.0140721)
(0.145977 -0.00194913 -0.0206274)
(0.14174 -0.00703549 -0.0226889)
(0.143452 -0.0110802 -0.0197514)
(0.147533 -0.0131768 -0.0151635)
(0.148063 -0.0130828 -0.0105225)
(0.145991 -0.00989331 -0.00500295)
(0.14456 -0.00448032 0.000292071)
(0.142447 -0.000378558 0.0025029)
(0.138685 -0.000146196 0.00144693)
(0.136687 -0.00237714 0.000820669)
(0.14029 -0.00357365 0.0032848)
(0.147064 -0.00301977 0.00616855)
(0.149935 -0.00370142 0.00536092)
(0.146248 -0.00706084 0.00194226)
(0.14103 -0.00955925 0.000921697)
(0.139463 -0.00732427 0.00360782)
(0.138612 -0.00189816 0.00725138)
(0.135124 0.00289994 0.00991278)
(0.13123 0.00529899 0.00992234)
(0.129195 0.00394075 0.00562976)
(0.127441 -0.00200777 -0.001723)
(0.127153 -0.00973187 -0.00757246)
(0.135149 -0.012707 -0.00837772)
(0.147804 -0.0100154 -0.00406477)
(0.150767 -0.00689781 0.00216707)
(0.141023 -0.0053996 0.00836915)
(0.128247 -0.00476774 0.0136874)
(0.12157 -0.0044211 0.0144837)
(0.122828 -0.00217484 0.00883772)
(0.126519 0.00264949 0.000240973)
(0.128116 0.00600247 -0.00676389)
(0.128566 0.00502813 -0.0101518)
(0.128938 0.00199377 -0.0102949)
(0.128548 0.00065011 -0.00819001)
(0.127355 0.001325 -0.00446796)
(0.126977 0.00109867 0.000169017)
(0.13046 -0.00116058 0.00326928)
(0.140118 -0.00177818 0.00130622)
(0.150172 0.000378932 -0.0056554)
(0.153741 0.00211762 -0.0104171)
(0.153501 0.00034611 -0.017029)
(0.149845 -0.00461796 -0.0204793)
(0.149616 -0.00861341 -0.019325)
(0.153193 -0.0107983 -0.0163682)
(0.154018 -0.0119966 -0.0134011)
(0.149757 -0.0108993 -0.00856771)
(0.145041 -0.00637099 -0.00208611)
(0.142143 -0.000780935 0.00215909)
(0.140018 0.00151057 0.00256342)
(0.139074 -0.000625156 0.00202301)
(0.141258 -0.00377364 0.00365362)
(0.146695 -0.00451293 0.00662487)
(0.150883 -0.00390843 0.00675347)
(0.148899 -0.00489261 0.00293748)
(0.141101 -0.00676865 -0.000208544)
(0.132584 -0.0063902 0.00128076)
(0.126831 -0.00328692 0.00534804)
(0.12481 0.000453648 0.00741618)
(0.127174 0.00366874 0.00512263)
(0.131652 0.00489675 -0.00057406)
(0.133967 0.00153848 -0.00627156)
(0.133416 -0.0064088 -0.00883215)
(0.136425 -0.0131326 -0.00701181)
(0.146845 -0.0129093 -0.00191639)
(0.153599 -0.00829277 0.0035447)
(0.147079 -0.0044535 0.00790591)
(0.13368 -0.0024996 0.0117896)
(0.124712 -0.00130915 0.0133768)
(0.124154 0.000708157 0.00976165)
(0.127955 0.0039373 0.00250181)
(0.130506 0.00572559 -0.00394413)
(0.130827 0.00412438 -0.00728577)
(0.131447 0.00125627 -0.00876881)
(0.133441 0.000326901 -0.00940479)
(0.135375 0.00148663 -0.00775959)
(0.135965 0.00145583 -0.00298607)
(0.135917 -0.00168383 0.00165809)
(0.139134 -0.00358593 0.00160142)
(0.1472 -0.000827851 -0.00337656)
(0.148544 0.00147202 -0.00751887)
(0.155087 0.0011241 -0.0130687)
(0.15562 -0.0021834 -0.0170408)
(0.155128 -0.00541459 -0.0177427)
(0.158576 -0.00776139 -0.0162384)
(0.161035 -0.00997364 -0.0146724)
(0.156641 -0.0104273 -0.0117657)
(0.148958 -0.00703889 -0.00593641)
(0.143553 -0.0012485 0.000191295)
(0.141285 0.00253373 0.00345143)
(0.141089 0.00150518 0.0042557)
(0.142584 -0.00217211 0.00479076)
(0.145857 -0.00431664 0.00622829)
(0.149126 -0.00411568 0.00701903)
(0.148607 -0.00388323 0.00499404)
(0.142597 -0.00422225 0.00109174)
(0.134117 -0.0035914 -0.00128906)
(0.127678 -0.0018956 -0.000544063)
(0.125915 -0.000364198 0.00106038)
(0.129249 0.00127466 0.000399476)
(0.134893 0.00314416 -0.00310539)
(0.138846 0.00265584 -0.00717084)
(0.139998 -0.00252702 -0.00887706)
(0.14152 -0.0103486 -0.0065425)
(0.147626 -0.0141469 -0.00101339)
(0.153667 -0.0107623 0.00423366)
(0.149896 -0.00470231 0.00787224)
(0.138264 -0.000599341 0.0112214)
(0.128763 0.00122588 0.0129455)
(0.126017 0.00270689 0.01006)
(0.126795 0.00497126 0.00426166)
(0.126628 0.00619639 0.000179886)
(0.125502 0.00426893 -0.0010319)
(0.126161 0.000762035 -0.00222606)
(0.129945 -0.00076631 -0.00426908)
(0.134952 0.000488497 -0.00401495)
(0.137717 0.00133784 0.000238365)
(0.137183 -0.000445355 0.00437858)
(0.136437 -0.00248653 0.00359572)
(0.14019 -0.00123518 -0.00149785)
(0.14273 0.00175624 -0.00428746)
(0.151198 0.00142465 -0.00902538)
(0.156704 -0.000342819 -0.0124365)
(0.159471 -0.00221872 -0.0140215)
(0.163781 -0.00434472 -0.0141798)
(0.167323 -0.00719465 -0.0144517)
(0.163621 -0.00865381 -0.0139168)
(0.154262 -0.00623757 -0.00965296)
(0.146203 -0.000976347 -0.00277606)
(0.142591 0.00311265 0.00261278)
(0.142267 0.00293467 0.00506446)
(0.143422 -0.000323197 0.00578838)
(0.145208 -0.00299983 0.00620865)
(0.146332 -0.00365626 0.00653446)
(0.14489 -0.0034842 0.00566075)
(0.140601 -0.00304176 0.00275962)
(0.135923 -0.00167674 -0.00107723)
(0.133286 -0.000169422 -0.00301295)
(0.133113 -9.37131e-05 -0.00187999)
(0.135222 -0.000484081 -0.00032206)
(0.138436 0.000526487 -0.00136868)
(0.140402 0.00176725 -0.00411111)
(0.140813 -0.000101561 -0.00545295)
(0.142021 -0.00621997 -0.00411891)
(0.146297 -0.012069 -0.000372487)
(0.151715 -0.0114539 0.00404618)
(0.15141 -0.00532835 0.00739193)
(0.143852 0.000771803 0.00992626)
(0.13521 0.00427879 0.0114227)
(0.129466 0.00567731 0.00998144)
(0.125595 0.00624165 0.00645494)
(0.122702 0.00588721 0.00389301)
(0.122003 0.00331557 0.00329774)
(0.124259 -0.000794215 0.00267768)
(0.128793 -0.00352498 0.000802545)
(0.133909 -0.00285532 -0.000249293)
(0.136938 -0.000408557 0.00196311)
(0.136757 0.000909594 0.00551985)
(0.135356 0.00054344 0.00572793)
(0.136536 0.000732339 0.00135274)
(0.14076 0.00405429 -0.000109259)
(0.14755 0.00242911 -0.00468072)
(0.154131 0.000641957 -0.00848168)
(0.159771 -0.000197984 -0.0107489)
(0.165851 -0.00143608 -0.0115069)
(0.170141 -0.00412218 -0.0123776)
(0.167563 -0.00592351 -0.013779)
(0.158947 -0.00407467 -0.0125284)
(0.150387 0.000385912 -0.0069243)
(0.14536 0.00360794 -0.000272641)
(0.14322 0.0032734 0.00391259)
(0.142529 0.000740973 0.00549552)
(0.142584 -0.00125932 0.00604679)
(0.142454 -0.00169947 0.00636712)
(0.141087 -0.00164685 0.00568645)
(0.138955 -0.00148253 0.0032984)
(0.138249 -0.000591858 -0.000109344)
(0.139937 0.000117837 -0.00229626)
(0.141956 -0.00115535 -0.00164929)
(0.142027 -0.00318877 0.000487349)
(0.140137 -0.0025795 0.00142138)
(0.138058 0.000449854 0.0010069)
(0.138136 0.00122735 0.00120794)
(0.141147 -0.00317805 0.0025297)
(0.145775 -0.00958762 0.00463459)
(0.149965 -0.0112296 0.00631339)
(0.15014 -0.00581426 0.00708097)
(0.144686 0.00184033 0.00833955)
(0.136958 0.00662663 0.00951739)
(0.130119 0.007488 0.00875307)
(0.124577 0.00654811 0.00687673)
(0.121198 0.00561141 0.0063533)
(0.121285 0.00413401 0.00725665)
(0.12434 0.0012583 0.00720679)
(0.128857 -0.00191261 0.00535318)
(0.133139 -0.00279047 0.00373023)
(0.13551 -0.000565193 0.00445164)
(0.135684 0.00228389 0.00658293)
(0.135246 0.003737 0.00714646)
(0.136415 0.00433905 0.0044122)
(0.140819 0.00548834 0.00365618)
(0.14517 0.00268843 -0.00113819)
(0.150862 -0.000626612 -0.00554695)
(0.157441 -0.00186582 -0.00816248)
(0.164179 -0.00104939 -0.00928852)
(0.168216 -0.000642724 -0.0103339)
(0.167006 -0.00150288 -0.0119739)
(0.162084 -0.00121223 -0.0126587)
(0.15719 0.00147717 -0.0100375)
(0.153656 0.0039206 -0.00492403)
(0.150154 0.00368682 -0.000371873)
(0.145912 0.00162219 0.00218639)
(0.141972 -0.000337821 0.00355412)
(0.139547 -0.00134798 0.00465806)
(0.139109 -0.00156844 0.00529282)
(0.140815 -0.00117921 0.00473811)
(0.145047 -0.000292802 0.00294258)
(0.150731 0.000120714 0.00060076)
(0.153567 -0.00119905 -0.000261038)
(0.150707 -0.00320449 0.002186)
(0.144639 -0.00278576 0.00641)
(0.139959 0.000602339 0.00838705)
(0.139449 0.00320015 0.00613853)
(0.142255 0.00113107 0.00219402)
(0.146178 -0.00496058 0.00162286)
(0.149434 -0.00883964 0.00460751)
(0.149263 -0.00516232 0.00631264)
(0.143989 0.00318395 0.0062406)
(0.136117 0.00929777 0.00665534)
(0.129304 0.0106391 0.00726157)
(0.125014 0.0091171 0.00702877)
(0.12345 0.00711016 0.00620872)
(0.124352 0.0052728 0.00555974)
(0.126685 0.00317556 0.00524609)
(0.129758 0.00100971 0.00482001)
(0.133396 0.000126353 0.00424484)
(0.136829 0.00147351 0.00452823)
(0.138667 0.00382111 0.00597965)
(0.138695 0.00550852 0.00735508)
(0.138743 0.00624628 0.006833)
(0.139674 0.00498014 0.00601722)
(0.144065 0.0022366 0.0024357)
(0.149263 -0.00209522 -0.00255837)
(0.154656 -0.00505413 -0.00659858)
(0.160438 -0.00474359 -0.00841004)
(0.165039 -0.00230017 -0.00878565)
(0.16548 -0.000114797 -0.00920875)
(0.161592 0.00132707 -0.009834)
(0.15694 0.00302711 -0.00929295)
(0.154532 0.00458414 -0.00695766)
(0.153878 0.00472778 -0.00396419)
(0.152549 0.00352959 -0.00162474)
(0.149372 0.00174373 -2.03907e-05)
(0.145273 -0.000626706 0.00151581)
(0.142051 -0.0038047 0.00329964)
(0.141579 -0.00690199 0.00485243)
(0.145229 -0.00836422 0.00529051)
(0.151949 -0.0077258 0.00393185)
(0.156557 -0.00592206 0.00192786)
(0.154712 -0.00399981 0.00218384)
(0.148535 -0.00156634 0.00507167)
(0.143016 0.00225152 0.00674732)
(0.140493 0.00588123 0.00384488)
(0.140192 0.00592032 -0.00191649)
(0.141624 0.00113557 -0.00476051)
(0.144653 -0.00485701 -0.00184819)
(0.146535 -0.0056913 0.00273089)
(0.144517 0.000558263 0.00489336)
(0.139668 0.00848429 0.00547597)
(0.135697 0.0128607 0.00540832)
(0.134498 0.0131526 0.00391478)
(0.134934 0.0112053 0.00130987)
(0.135441 0.0084945 -0.000589882)
(0.135574 0.00562406 -0.00057899)
(0.135772 0.00329888 0.00102592)
(0.136511 0.00236932 0.00290953)
(0.13758 0.00295374 0.00429318)
(0.138071 0.00408899 0.00534428)
(0.137623 0.00493425 0.00642308)
(0.137557 0.00545321 0.00706518)
(0.139342 -0.000388846 0.0117412)
(0.14485 -0.00271496 0.00881289)
(0.151552 -0.00460039 0.003067)
(0.156481 -0.00500813 -0.00295748)
(0.157738 -0.00317726 -0.00716536)
(0.1556 0.00016979 -0.00910942)
(0.151769 0.00321228 -0.00928398)
(0.148113 0.00480102 -0.00841159)
(0.145693 0.00503531 -0.00741418)
(0.144843 0.00435809 -0.00689235)
(0.145779 0.00310351 -0.00657883)
(0.148402 0.00173815 -0.00569118)
(0.151876 0.000752386 -0.00397924)
(0.154447 -2.68492e-05 -0.00207653)
(0.154556 -0.00152565 -0.00028923)
(0.152496 -0.00433691 0.00198736)
(0.150525 -0.0078251 0.00500505)
(0.150819 -0.0103751 0.00748167)
(0.152505 -0.0100308 0.00797558)
(0.152484 -0.00616056 0.00675691)
(0.149455 -0.000680696 0.00528146)
(0.145107 0.00367647 0.00382075)
(0.141689 0.00513512 0.00124125)
(0.140235 0.00328256 -0.00250988)
(0.140957 -0.000700837 -0.00468931)
(0.143533 -0.00460206 -0.00259854)
(0.146006 -0.00553459 0.00237715)
(0.146162 -0.00165549 0.00647422)
(0.144746 0.00493304 0.00772989)
(0.144366 0.010165 0.00597022)
(0.145549 0.0123177 0.00147023)
(0.146583 0.0117709 -0.00409632)
(0.14635 0.00918101 -0.00827834)
(0.145162 0.00553857 -0.00937033)
(0.143737 0.00285463 -0.00711103)
(0.142645 0.0026446 -0.00266693)
(0.141659 0.00416155 0.00209497)
(0.139931 0.00514866 0.00592311)
(0.137787 0.00425034 0.00897742)
(0.137019 0.00200241 0.0113095)
(0.151774 -0.00122364 0.0104423)
(0.15257 -0.00283645 0.0126649)
(0.153806 -0.00321068 0.0116277)
(0.156571 -0.00221845 0.00759097)
(0.159948 0.000721305 0.00211163)
(0.161707 0.0049258 -0.00310184)