/*--------------------------------*- C++ -*----------------------------------*\
| =========                 |                                                 |
| \\      /  F ield         | OpenFOAM: The Open Source CFD Toolbox           |
|  \\    /   O peration     | Version:  2306                                  |
|   \\  /    A nd           | Website:  www.openfoam.com                      |
|    \\/     M anipulation  |                                                 |
\*---------------------------------------------------------------------------*/
FoamFile
{
    version     2.0;
    format      ascii;
    arch        "LSB;label=32;scalar=64";
    class       volVectorField;
    location    "3.5";
    object      UMean;
}
// * * * * * * * * * * * * * * * * * * * * * * * * * * * * * * * * * * * * * //

dimensions      [0 1 -1 0 0 0 0];

internalField   nonuniform List<vector> 
60000
(
(0.0103721 2.44972e-05 0.00242748)
(0.0103345 4.20312e-06 0.00237904)
(0.0101809 -8.94551e-06 0.00219341)
(0.0100034 -1.28587e-05 0.00199148)
(0.00982732 -1.17853e-05 0.00179481)
(0.00956279 -9.87184e-06 0.00155787)
(0.00911377 -8.65637e-06 0.00129176)
(0.00844197 -9.13866e-06 0.00108149)
(0.00761471 -1.17403e-05 0.00100094)
(0.00680351 -1.60178e-05 0.00104824)
(0.00618314 -1.98882e-05 0.00114964)
(0.00585424 -2.07196e-05 0.00119478)
(0.00579058 -2.0817e-05 0.00110567)
(0.00587827 -2.01238e-05 0.000877955)
(0.00601869 -1.54787e-05 0.000581517)
(0.00615763 -6.1657e-06 0.000299439)
(0.00632518 5.64873e-06 6.23769e-05)
(0.00657862 1.41128e-05 -0.000155295)
(0.00691004 1.844e-05 -0.000399827)
(0.00728057 1.92699e-05 -0.000711248)
(0.00769568 1.72654e-05 -0.0011103)
(0.00817023 1.1146e-05 -0.001561)
(0.00867108 3.28566e-06 -0.00198538)
(0.00908647 -2.47355e-06 -0.00230231)
(0.00924097 -5.07268e-06 -0.00245261)
(0.00901875 -4.11247e-06 -0.00244432)
(0.00847366 -1.82491e-06 -0.0023553)
(0.0077693 -5.95757e-07 -0.0022543)
(0.00707709 -5.33622e-07 -0.0021586)
(0.00655312 -1.51329e-06 -0.00207943)
(0.00630705 -3.48399e-07 -0.00199042)
(0.00634279 5.84136e-06 -0.00176418)
(0.00660771 1.60733e-05 -0.00129645)
(0.00704419 2.73613e-05 -0.000655407)
(0.00759094 4.00309e-05 -1.63276e-05)
(0.00819051 4.89846e-05 0.000511214)
(0.00879946 5.44252e-05 0.000944147)
(0.009384 5.52398e-05 0.00137706)
(0.00988535 5.2029e-05 0.0018469)
(0.0102276 4.23583e-05 0.00224026)
(0.0318253 5.32314e-05 0.00627707)
(0.0318547 -5.03519e-05 0.00602276)
(0.0313991 -0.000112649 0.00550404)
(0.0307832 -0.000123066 0.00505356)
(0.0301651 -9.5023e-05 0.00469213)
(0.0293233 -5.17844e-05 0.00421209)
(0.0279821 -1.77509e-05 0.00357505)
(0.0260424 -1.37959e-05 0.00301241)
(0.0236951 -5.25481e-05 0.00276857)
(0.0213638 -0.000123192 0.00287514)
(0.0194689 -0.000190459 0.00312319)
(0.0182849 -0.000226678 0.0031818)
(0.0177985 -0.000229582 0.00285648)
(0.0177626 -0.000198596 0.00221423)
(0.0179566 -0.00013459 0.0014784)
(0.0182677 -5.47703e-05 0.000811625)
(0.0187743 1.18859e-05 0.000233967)
(0.0195889 4.62981e-05 -0.000337561)
(0.0206669 5.4047e-05 -0.00101667)
(0.0219191 3.94989e-05 -0.00189794)
(0.0233605 5.64811e-06 -0.00301709)
(0.0249755 -3.85756e-05 -0.0042653)
(0.026603 -7.11186e-05 -0.00541533)
(0.0279105 -7.44354e-05 -0.00622126)
(0.0284382 -5.37512e-05 -0.00651795)
(0.0278855 -3.03776e-05 -0.00636202)
(0.0263847 -2.30133e-05 -0.00601468)
(0.0243487 -3.67155e-05 -0.0056996)
(0.0222391 -6.77549e-05 -0.00549658)
(0.0204855 -9.98767e-05 -0.0054162)
(0.0194345 -9.67221e-05 -0.00528611)
(0.0192251 -4.0158e-05 -0.00469121)
(0.0198087 5.28249e-05 -0.00338398)
(0.0210168 0.00015598 -0.00162878)
(0.0226264 0.000252703 8.64659e-05)
(0.0244468 0.000314722 0.00151196)
(0.0263366 0.000329646 0.00270924)
(0.0281984 0.000298945 0.00387729)
(0.0298785 0.000242368 0.00505684)
(0.0311489 0.000160607 0.00595379)
(0.0542978 -1.6147e-05 0.00928719)
(0.0545532 -0.000233523 0.00887548)
(0.0538086 -0.000348292 0.00802185)
(0.0526655 -0.000348847 0.00732663)
(0.0515452 -0.000268682 0.0069219)
(0.0502119 -0.000158041 0.00643745)
(0.0482364 -7.24143e-05 0.00563251)
(0.0453841 -5.94909e-05 0.00475591)
(0.0417897 -0.000150104 0.00424652)
(0.0379442 -0.000318624 0.00429492)
(0.0344806 -0.000478925 0.00466264)
(0.0319651 -0.000568218 0.0048105)
(0.0305672 -0.000575607 0.00436892)
(0.0300163 -0.000494735 0.00344468)
(0.029998 -0.000335102 0.00241758)
(0.0303312 -0.000144546 0.00152115)
(0.0311046 1.10102e-06 0.000752657)
(0.0324514 6.31863e-05 -2.10948e-05)
(0.03429 5.84695e-05 -0.000969715)
(0.036488 -3.08417e-06 -0.00224426)
(0.0390684 -0.000112034 -0.00392465)
(0.0419762 -0.000232328 -0.00588938)
(0.0449233 -0.000307378 -0.00779946)
(0.0473967 -0.000304427 -0.00921548)
(0.0486942 -0.000241389 -0.00978314)
(0.0482789 -0.000172964 -0.00951957)
(0.0462195 -0.000141027 -0.00884777)
(0.043055 -0.000156325 -0.00821672)
(0.0394791 -0.000216981 -0.00787463)
(0.0361675 -0.000284552 -0.00791041)
(0.033742 -0.000273352 -0.00804108)
(0.0326299 -0.000140395 -0.00751721)
(0.0329888 7.85866e-05 -0.00579856)
(0.0346656 0.000325731 -0.00320771)
(0.0372623 0.000553737 -0.000536036)
(0.0403805 0.000699958 0.00174919)
(0.0437275 0.000723409 0.00368072)
(0.0471245 0.000623283 0.00552379)
(0.0502958 0.000454495 0.00735741)
(0.0528172 0.000237068 0.00876832)
(0.0769075 -0.000214445 0.0113715)
(0.0776171 -0.00054659 0.0110893)
(0.0766717 -0.000698314 0.0099555)
(0.0749593 -0.00066798 0.00888574)
(0.0733105 -0.000515764 0.00837922)
(0.0716552 -0.000316909 0.00808219)
(0.0694691 -0.00015599 0.00740667)
(0.0663129 -0.000106918 0.00634709)
(0.0620575 -0.000229694 0.00546049)
(0.0569574 -0.000500938 0.00526798)
(0.0516978 -0.000787595 0.00571539)
(0.0472567 -0.000974525 0.00610134)
(0.0442386 -0.00102366 0.00575197)
(0.042564 -0.000908785 0.00469225)
(0.0419035 -0.000647242 0.0034827)
(0.0419695 -0.000327986 0.00250588)
(0.0427878 -8.74882e-05 0.00175857)
(0.0444674 -1.51258e-06 0.00105166)
(0.0468979 -4.32566e-05 0.000153638)
(0.0499232 -0.000196526 -0.00116156)
(0.0536013 -0.000439488 -0.00308003)
(0.057869 -0.000689201 -0.0055858)
(0.0623391 -0.000829307 -0.00833945)
(0.0663706 -0.000801729 -0.0107153)
(0.0690573 -0.0006476 -0.0120262)
(0.0695516 -0.000473908 -0.0120217)
(0.0676804 -0.000366236 -0.0111446)
(0.0639394 -0.000347604 -0.0100943)
(0.0591597 -0.000418414 -0.00941095)
(0.054181 -0.000523859 -0.00944699)
(0.0498387 -0.000530771 -0.0100358)
(0.0469213 -0.00035811 -0.010179)
(0.0460409 -3.91028e-05 -0.00883197)
(0.0473981 0.000352102 -0.0060283)
(0.0506042 0.000738666 -0.00270748)
(0.0549897 0.00100046 0.000350309)
(0.0599481 0.00105174 0.00300825)
(0.0651493 0.00087576 0.00553695)
(0.0701555 0.000570952 0.00811206)
(0.0742979 0.000198558 0.0102916)
(0.0979841 -0.000569677 0.0118629)
(0.0994882 -0.000973644 0.0124433)
(0.0985521 -0.00113002 0.011462)
(0.0963355 -0.00103844 0.00997813)
(0.0941922 -0.000796119 0.00910729)
(0.0924089 -0.00050577 0.00897214)
(0.0904703 -0.000265233 0.00874675)
(0.0877392 -0.000154673 0.00782798)
(0.0837315 -0.000255164 0.00657176)
(0.0781675 -0.000575607 0.00589051)
(0.0713715 -0.000980924 0.00625558)
(0.0646325 -0.00131238 0.00699908)
(0.0592349 -0.00147567 0.00699937)
(0.0556075 -0.00139294 0.00595896)
(0.0536312 -0.0010709 0.0045918)
(0.0529343 -0.000638969 0.00359707)
(0.0533609 -0.000303619 0.00307072)
(0.0549029 -0.00019969 0.00276338)
(0.0573959 -0.000310133 0.00236703)
(0.0606888 -0.000622979 0.00157844)
(0.064973 -0.00111025 5.71e-05)
(0.0703408 -0.00161172 -0.00245746)
(0.0764172 -0.001883 -0.00587773)
(0.082475 -0.00179362 -0.00955581)
(0.087409 -0.00142539 -0.0123946)
(0.0899271 -0.00100991 -0.0135286)
(0.0893864 -0.000730453 -0.0130469)
(0.0860477 -0.000614846 -0.0117578)
(0.0808028 -0.000645348 -0.0105397)
(0.0746144 -0.000754893 -0.010182)
(0.0683947 -0.000786774 -0.0109864)
(0.0631053 -0.000639129 -0.0120771)
(0.0597884 -0.000333524 -0.0119435)
(0.0593166 8.15654e-05 -0.0099761)
(0.0618794 0.000549083 -0.00684677)
(0.0668865 0.000905629 -0.0034958)
(0.0733079 0.000998947 -0.000309868)
(0.0804466 0.000787469 0.00285741)
(0.0876038 0.000397474 0.00626444)
(0.0938042 -6.13916e-05 0.00956472)
(0.114597 -0.00128556 0.00905243)
(0.117637 -0.00155072 0.0117166)
(0.117166 -0.00162245 0.0121531)
(0.114707 -0.00143739 0.0108561)
(0.112238 -0.00107552 0.00943839)
(0.11057 -0.000685472 0.00908974)
(0.109263 -0.000386718 0.00940249)
(0.107572 -0.000218956 0.00910615)
(0.104809 -0.000237011 0.00778041)
(0.100113 -0.000500373 0.00642246)
(0.0929657 -0.000934195 0.00632144)
(0.0843541 -0.00140852 0.0073481)
(0.0761964 -0.00176675 0.00796731)
(0.0697625 -0.00182486 0.007198)
(0.065552 -0.00153458 0.0056667)
(0.063373 -0.00104439 0.00452138)
(0.0628246 -0.000634209 0.00418451)
(0.0635817 -0.000517015 0.00440974)
(0.0652802 -0.000726346 0.00481401)
(0.0676894 -0.00129404 0.00506792)
(0.0711667 -0.00221372 0.00475006)
(0.0762886 -0.00321593 0.00328948)
(0.0831601 -0.00384894 0.000240158)
(0.0913339 -0.00380141 -0.00424486)
(0.0995986 -0.00309729 -0.00905536)
(0.105905 -0.00213 -0.0125621)
(0.108517 -0.00137378 -0.0138419)
(0.107063 -0.00100239 -0.0132139)
(0.10253 -0.000919105 -0.0117274)
(0.0961562 -0.000958299 -0.0106528)
(0.0890063 -0.000948659 -0.0110133)
(0.0819453 -0.000817516 -0.0125911)
(0.0759491 -0.000618534 -0.0139096)
(0.072313 -0.000369454 -0.0137483)
(0.0721175 -6.90908e-05 -0.0121069)
(0.0756869 0.000179782 -0.00962611)
(0.0821054 0.000213003 -0.00673498)
(0.0903197 -6.77714e-05 -0.0034583)
(0.0993863 -0.000513496 0.000463981)
(0.108045 -0.000920874 0.00490962)
(0.122262 -0.00285047 0.00161569)
(0.128156 -0.00260009 0.00695867)
(0.12932 -0.00224202 0.0104855)
(0.127091 -0.00188908 0.0111166)
(0.124662 -0.00142491 0.00978844)
(0.123583 -0.000883073 0.0087925)
(0.123334 -0.0004943 0.00918176)
(0.122966 -0.000329871 0.00981018)
(0.12208 -0.000283632 0.00906494)
(0.119678 -0.000347385 0.00720965)
(0.114256 -0.000623063 0.00618373)
(0.105629 -0.00112646 0.00703252)
(0.0954922 -0.00169229 0.00835697)
(0.0859327 -0.00199676 0.00826666)
(0.078555 -0.00186564 0.00678215)
(0.0739825 -0.00141799 0.00531943)
(0.0718935 -0.000972226 0.00482478)
(0.0715165 -0.00083003 0.00521885)
(0.0720364 -0.00113514 0.00606918)
(0.0729329 -0.00204065 0.00712673)
(0.0744849 -0.00359804 0.00816022)
(0.0776872 -0.00535751 0.00854726)
(0.0832596 -0.00656874 0.00736291)
(0.0913779 -0.00675161 0.00396449)
(0.101743 -0.00586342 -0.00136465)
(0.112469 -0.00427837 -0.00714551)
(0.120311 -0.00274069 -0.0114728)
(0.122963 -0.00177811 -0.0132391)
(0.120798 -0.00139859 -0.0127123)
(0.115594 -0.00123617 -0.0112926)
(0.108983 -0.000998103 -0.0107128)
(0.101902 -0.000737553 -0.0117805)
(0.0948087 -0.000601797 -0.0137785)
(0.0885588 -0.000591387 -0.0155019)
(0.0846421 -0.000700782 -0.0163174)
(0.0845674 -0.000918295 -0.0160454)
(0.0884099 -0.0012338 -0.0146557)
(0.0951272 -0.0017599 -0.0122284)
(0.103659 -0.00238515 -0.00868396)
(0.113216 -0.00279895 -0.00396661)
(0.12232 -0.00531409 -0.00724023)
(0.13027 -0.00444591 -0.000370879)
(0.134091 -0.00319509 0.00582507)
(0.132782 -0.00229386 0.00946341)
(0.129798 -0.00180352 0.00974928)
(0.129083 -0.00126994 0.00847843)
(0.130523 -0.000710701 0.00819357)
(0.131635 -0.0004534 0.00923857)
(0.131726 -0.0005178 0.00969603)
(0.131858 -0.000541526 0.0081634)
(0.130514 -0.000417469 0.00622727)
(0.125312 -0.000549854 0.00624395)
(0.116092 -0.00111439 0.007896)
(0.104684 -0.00168307 0.00879765)
(0.0938534 -0.00183548 0.00791303)
(0.0859011 -0.00158196 0.00636997)
(0.081579 -0.00120704 0.00548862)
(0.0801002 -0.00104238 0.00550196)
(0.0800818 -0.00136185 0.0060703)
(0.0804789 -0.00249172 0.00711205)
(0.0809804 -0.00461269 0.00877458)
(0.0821798 -0.00715909 0.0107931)
(0.0851355 -0.00906228 0.0120066)
(0.0907668 -0.00966196 0.0109858)
(0.0997475 -0.00885249 0.00715338)
(0.111541 -0.00692385 0.00116076)
(0.122862 -0.00470721 -0.00522603)
(0.129477 -0.0030553 -0.00994525)
(0.129915 -0.00224379 -0.0118262)
(0.126201 -0.00187087 -0.011336)
(0.121543 -0.00139813 -0.0101311)
(0.117289 -0.000737892 -0.00993455)
(0.112583 -0.000251539 -0.0113793)
(0.106762 -0.000171261 -0.0140295)
(0.100839 -0.000639089 -0.0171828)
(0.0970606 -0.00159745 -0.0198784)
(0.0969549 -0.00266925 -0.0210626)
(0.100343 -0.00369593 -0.0202852)
(0.106085 -0.00466082 -0.0176022)
(0.113501 -0.00533435 -0.0131984)
(0.122451 -0.00790768 -0.0135965)
(0.129933 -0.006873 -0.00630377)
(0.135454 -0.00475919 0.000868825)
(0.13621 -0.00281677 0.0061552)
(0.132877 -0.00196147 0.00820267)
(0.130486 -0.00168471 0.00751677)
(0.132031 -0.00118433 0.00659658)
(0.135076 -0.000657831 0.00714678)
(0.135929 -0.000704455 0.00835355)
(0.135074 -0.00117785 0.0080744)
(0.135527 -0.00121771 0.00617734)
(0.136158 -0.000796142 0.00528974)
(0.13305 -0.00064913 0.00665994)
(0.124327 -0.000928438 0.00841755)
(0.112061 -0.00122839 0.00864365)
(0.100512 -0.00129373 0.00768488)
(0.0929099 -0.00122423 0.0067863)
(0.0898027 -0.00121879 0.00638488)
(0.0896844 -0.0015447 0.00631806)
(0.0906876 -0.00266509 0.00674144)
(0.0915547 -0.00496258 0.00813808)
(0.0919636 -0.00795921 0.010682)
(0.0926844 -0.0104433 0.0134649)
(0.0951152 -0.0115947 0.0147025)
(0.100796 -0.0112123 0.0129618)
(0.110333 -0.00940143 0.00806694)
(0.121445 -0.00674481 0.00121597)
(0.128979 -0.00428906 -0.00515221)
(0.129367 -0.0027159 -0.00879617)
(0.123886 -0.0019974 -0.00915487)
(0.117807 -0.00158694 -0.00754625)
(0.11594 -0.00102948 -0.00601205)
(0.117587 -0.000285642 -0.00620808)
(0.118437 0.000344752 -0.00882001)
(0.116156 0.000194114 -0.0134669)
(0.112149 -0.00117991 -0.0188148)
(0.109218 -0.00318499 -0.0230025)
(0.10903 -0.00502824 -0.02466)
(0.111546 -0.00650491 -0.0234062)
(0.11606 -0.00758879 -0.0195594)
(0.124939 -0.00977397 -0.0173933)
(0.130627 -0.00918694 -0.0103507)
(0.136395 -0.0068394 -0.00322085)
(0.139284 -0.00393519 0.00244473)
(0.137526 -0.00213012 0.00548248)
(0.133562 -0.00178411 0.00565572)
(0.13244 -0.00172623 0.0046047)
(0.135347 -0.00116634 0.00451186)
(0.138437 -0.000755582 0.00574271)
(0.138288 -0.00134755 0.00662617)
(0.136592 -0.00240736 0.00581213)
(0.137563 -0.00268789 0.00472595)
(0.140147 -0.00202074 0.005461)
(0.138799 -0.00109704 0.00739389)
(0.130468 -0.000505197 0.00857239)
(0.118012 -0.000412599 0.00858439)
(0.107045 -0.00071494 0.00831469)
(0.101012 -0.00123101 0.00816019)
(0.0998351 -0.0018828 0.00783461)
(0.101464 -0.00299666 0.00743137)
(0.103496 -0.00514322 0.00771471)
(0.104243 -0.00811331 0.0095351)
(0.103697 -0.0108015 0.0126533)
(0.103465 -0.0123398 0.01529)
(0.105594 -0.0124602 0.0154012)
(0.111351 -0.0111051 0.0119836)
(0.119596 -0.00841194 0.00552678)
(0.125994 -0.00521267 -0.0015597)
(0.126233 -0.00251056 -0.0062091)
(0.119741 -0.00103093 -0.00681573)
(0.111488 -0.000807951 -0.00428084)
(0.108329 -0.0010424 -0.00100372)
(0.112112 -0.000720447 0.000653562)
(0.118771 0.000340072 -0.000894354)
(0.123316 0.00102455 -0.0058922)
(0.123984 5.59243e-05 -0.012928)
(0.122183 -0.00237529 -0.0196754)
(0.120141 -0.00504142 -0.0241014)
(0.119605 -0.00722795 -0.0251112)
(0.121154 -0.00887489 -0.0226741)
(0.128729 -0.0104633 -0.0195517)
(0.132375 -0.0107695 -0.013405)
(0.137416 -0.00900513 -0.00678615)
(0.141375 -0.00583061 -0.00131123)
(0.141961 -0.00300206 0.00221341)
(0.138744 -0.00183755 0.00335732)
(0.135072 -0.00187067 0.00282346)
(0.134849 -0.00176281 0.0024271)
(0.13812 -0.00120509 0.00329436)
(0.141033 -0.00125843 0.00469485)
(0.140851 -0.00253077 0.00509761)
(0.139858 -0.00411296 0.00459667)
(0.141626 -0.00452477 0.00495384)
(0.144407 -0.0032219 0.00656089)
(0.142923 -0.00106583 0.00805455)
(0.134697 0.00044627 0.00868787)
(0.123313 0.000529179 0.00905584)
(0.114342 -0.00053294 0.00957139)
(0.110611 -0.00207865 0.00966325)
(0.11172 -0.00376382 0.00882057)
(0.11501 -0.00581568 0.00763869)
(0.11721 -0.00828551 0.00773978)
(0.116643 -0.0105441 0.010123)
(0.114403 -0.0120068 0.0134586)
(0.113015 -0.0124065 0.0151789)
(0.114462 -0.0114658 0.0135328)
(0.118736 -0.0090165 0.0082793)
(0.123213 -0.00554353 0.00123902)
(0.12404 -0.00200572 -0.00427198)
(0.11945 0.00040136 -0.00577625)
(0.111881 0.000786423 -0.00322517)
(0.107194 -0.000252283 0.00120816)
(0.108996 -0.000903985 0.00472908)
(0.115844 -3.86891e-05 0.00525236)
(0.123788 0.00135281 0.00180871)
(0.12942 0.0012966 -0.00492059)
(0.131763 -0.00078025 -0.0128525)
(0.131204 -0.0036974 -0.0196622)
(0.12918 -0.00644153 -0.0234644)
(0.127781 -0.00876606 -0.0233158)
(0.134033 -0.00985366 -0.0203873)
(0.135631 -0.011283 -0.0156827)
(0.139364 -0.0106502 -0.0098812)
(0.142855 -0.00803444 -0.00470455)
(0.144233 -0.00480027 -0.000899867)
(0.142646 -0.00255461 0.00115926)
(0.138866 -0.00185277 0.00151415)
(0.136002 -0.00195064 0.0013106)
(0.136823 -0.00193115 0.00183013)
(0.14051 -0.0019554 0.00316495)
(0.143171 -0.00288071 0.00417437)
(0.143229 -0.00467815 0.00425451)
(0.143135 -0.00603723 0.00446184)
(0.144925 -0.00555066 0.00563819)
(0.146765 -0.00301907 0.00709072)
(0.144599 9.54914e-05 0.00803851)
(0.137151 0.00173429 0.0086915)
(0.128004 0.00105819 0.00941695)
(0.121806 -0.00129124 0.00966499)
(0.121082 -0.0042238 0.00852701)
(0.124765 -0.00683982 0.00613662)
(0.128844 -0.00885874 0.00452519)
(0.12978 -0.0102038 0.00590949)
(0.127059 -0.0109466 0.00964416)
(0.122818 -0.0111206 0.0128682)
(0.119903 -0.0103584 0.0132808)
(0.119868 -0.00832219 0.0100079)
(0.121878 -0.00513662 0.00384222)
(0.123172 -0.00144394 -0.00241571)
(0.121231 0.00151661 -0.00558942)
(0.116502 0.00233929 -0.00457381)
(0.112482 0.0010659 -0.000781317)
(0.112165 -0.000367654 0.00338886)
(0.116103 -0.000160642 0.00591336)
(0.123006 0.00125591 0.00530148)
(0.130553 0.00191526 0.00102307)
(0.136613 0.000604695 -0.00586058)
(0.139549 -0.00184176 -0.0134302)
(0.138607 -0.00451076 -0.0194826)
(0.135638 -0.00729555 -0.0220115)
(0.140774 -0.00836972 -0.0199415)
(0.140766 -0.0109673 -0.0169693)
(0.14283 -0.0115339 -0.0122961)
(0.144655 -0.00983301 -0.00758934)
(0.144971 -0.0068016 -0.00350932)
(0.143787 -0.00384248 -0.000492825)
(0.141303 -0.00206707 0.000920752)
(0.138481 -0.00176704 0.00113943)
(0.137692 -0.00230741 0.00141159)
(0.140035 -0.0030122 0.00243886)
(0.143305 -0.003955 0.00358772)
(0.144559 -0.00547844 0.00387772)
(0.144089 -0.00695808 0.00372144)
(0.143964 -0.0071001 0.00419542)
(0.144666 -0.00503106 0.00547957)
(0.144412 -0.00135428 0.0069179)
(0.141062 0.00184062 0.00792178)
(0.134985 0.00260073 0.00819119)
(0.129153 0.000532386 0.00730712)
(0.127078 -0.00330096 0.0049721)
(0.13023 -0.00692048 0.00161777)
(0.135747 -0.0091275 -0.000739286)
(0.13915 -0.00986308 0.000427008)
(0.138043 -0.00966456 0.00485238)
(0.132941 -0.00912986 0.00948541)
(0.126834 -0.00809663 0.0117127)
(0.123025 -0.00621436 0.0105778)
(0.122447 -0.00347662 0.00609902)
(0.123464 -0.000239011 -0.00018944)
(0.12353 0.0026039 -0.00524046)
(0.121746 0.00356717 -0.00674045)
(0.119757 0.00232597 -0.00492311)
(0.119184 0.000575826 -0.00159417)
(0.120554 0.000137095 0.00160555)
(0.124425 0.000950593 0.00327437)
(0.130832 0.00148426 0.00212943)
(0.138288 0.000731626 -0.0021336)
(0.14408 -0.000735073 -0.00854517)
(0.145687 -0.0024564 -0.0151338)
(0.143395 -0.00507201 -0.0194572)
(0.148316 -0.00649901 -0.018724)
(0.147373 -0.00973482 -0.0174335)
(0.147453 -0.0111497 -0.0141698)
(0.147137 -0.0103064 -0.0102224)
(0.145663 -0.00794809 -0.00601557)
(0.143623 -0.00501421 -0.00198003)
(0.141719 -0.0025542 0.000662647)
(0.140132 -0.00150665 0.00148962)
(0.139654 -0.00209304 0.00165704)
(0.141262 -0.00341289 0.00244543)
(0.14406 -0.00462916 0.00361532)
(0.145627 -0.00575599 0.00391732)
(0.144585 -0.00687911 0.00323671)
(0.141836 -0.00724281 0.00294228)
(0.138793 -0.00590307 0.00407577)
(0.136071 -0.00281579 0.00618217)
(0.133681 0.000685028 0.00765159)
(0.131523 0.00266785 0.0070045)
(0.129816 0.00183049 0.0040495)
(0.129447 -0.00169225 2.07721e-06)
(0.132181 -0.00612088 -0.00347521)
(0.137857 -0.00911232 -0.00495452)
(0.14304 -0.00985658 -0.00314229)
(0.144357 -0.00888178 0.00164091)
(0.140426 -0.00728645 0.00687931)
(0.133145 -0.00551164 0.0100771)
(0.126991 -0.00341996 0.0103574)
(0.124839 -0.00106323 0.00752348)
(0.126011 0.00138677 0.00201591)
(0.127805 0.00347573 -0.00405207)
(0.128496 0.00412133 -0.00795347)
(0.128586 0.00297001 -0.00876022)
(0.12889 0.0014379 -0.00731166)
(0.129463 0.000836577 -0.00469245)
(0.130899 0.000834633 -0.00197298)
(0.134515 0.00038294 -0.000707771)
(0.140429 -0.000583363 -0.00215606)
(0.146511 -0.00124089 -0.00640457)
(0.15007 -0.0015901 -0.0121096)
(0.150064 -0.00321151 -0.0168609)
(0.154581 -0.00442695 -0.016656)
(0.154124 -0.00745529 -0.0168034)
(0.153102 -0.00928737 -0.0150863)
(0.151361 -0.00936617 -0.0121514)
(0.148553 -0.00799571 -0.00821895)
(0.14517 -0.00554839 -0.00366926)
(0.142435 -0.00282673 0.000112668)
(0.14106 -0.00114085 0.00196981)
(0.141136 -0.00139824 0.00248869)
(0.142698 -0.00301727 0.00315919)
(0.144996 -0.00453007 0.00416299)
(0.146195 -0.00532628 0.00425925)
(0.144488 -0.00569004 0.00302027)
(0.139661 -0.00569715 0.00170446)
(0.133454 -0.00489378 0.00178256)
(0.128287 -0.0029535 0.00314983)
(0.125991 -0.000355799 0.00407356)
(0.126764 0.0017019 0.00279786)
(0.129337 0.00191768 -0.000592232)
(0.132124 -0.000501043 -0.00410112)
(0.135242 -0.00496817 -0.00570694)
(0.13995 -0.00901688 -0.00491245)
(0.144923 -0.0105154 -0.00199594)
(0.147059 -0.00933293 0.00253761)
(0.144311 -0.00666961 0.00710666)
(0.137396 -0.003775 0.00982179)
(0.130337 -0.00116164 0.0100651)
(0.126887 0.00101455 0.00794595)
(0.127336 0.00270614 0.00364839)
(0.129286 0.00375717 -0.00158103)
(0.130805 0.00363999 -0.00560125)
(0.131977 0.00228992 -0.00744559)
(0.133513 0.000926617 -0.00746078)
(0.135389 0.000530972 -0.00603697)
(0.13717 0.000427319 -0.00363228)
(0.139153 -0.000378112 -0.00164323)
(0.142213 -0.00151157 -0.0018078)
(0.146462 -0.00183878 -0.00479895)
(0.150836 -0.00138913 -0.00961516)
(0.153748 -0.00195513 -0.0141258)
(0.157003 -0.00286869 -0.0137774)
(0.158832 -0.00499544 -0.0150167)
(0.158664 -0.00666535 -0.0148183)
(0.156941 -0.00742275 -0.0132364)
(0.153582 -0.00705938 -0.0102149)
(0.148953 -0.0052818 -0.00590709)
(0.144735 -0.00259497 -0.00128201)
(0.142504 -0.000525011 0.00213432)
(0.142344 -0.000330277 0.00371246)
(0.143577 -0.0018089 0.00434059)
(0.145226 -0.00350616 0.00486768)
(0.14601 -0.00431225 0.00482982)
(0.14458 -0.00425608 0.00354844)
(0.140467 -0.00374287 0.00141807)
(0.134871 -0.00286832 -0.00038178)
(0.130125 -0.00161278 -0.00114294)
(0.128135 -0.000202324 -0.00125089)
(0.129297 0.000932156 -0.00178956)
(0.132801 0.00122464 -0.00346103)
(0.136939 -0.000231962 -0.00535818)
(0.140491 -0.00385045 -0.00576709)
(0.144021 -0.00814609 -0.0040714)
(0.147383 -0.0104613 -0.000828273)
(0.148718 -0.00977551 0.00331182)
(0.146364 -0.0066629 0.00736781)
(0.140304 -0.00270541 0.0099861)
(0.133094 0.000583029 0.0105578)
(0.128055 0.00269558 0.00912226)
(0.126168 0.00386448 0.00604463)
(0.126057 0.00424905 0.00244784)
(0.126487 0.00356179 -0.000182541)
(0.127771 0.00183339 -0.00152176)
(0.130417 0.000177989 -0.00206328)
(0.133832 -0.000277036 -0.00156244)
(0.136731 -3.70867e-05 7.68153e-05)
(0.138422 -0.000300749 0.00150039)
(0.139806 -0.00109181 0.000877597)
(0.142559 -0.0014845 -0.00227721)
(0.147332 -0.00124975 -0.00680692)
(0.152826 -0.00141126 -0.0109834)
(0.156008 -0.00137178 -0.010162)
(0.16054 -0.00267035 -0.012064)
(0.162783 -0.0038784 -0.0130795)
(0.162303 -0.00483183 -0.013078)
(0.158962 -0.00512876 -0.0115754)
(0.153406 -0.0040719 -0.00821553)
(0.147685 -0.00177536 -0.00348498)
(0.144109 0.000303731 0.0011076)
(0.143161 0.00071796 0.00396631)
(0.143747 -0.000579591 0.00505167)
(0.144521 -0.00235292 0.00537513)
(0.144495 -0.00330495 0.00521669)
(0.142969 -0.00318049 0.00414945)
(0.139964 -0.00244046 0.00208647)
(0.13665 -0.00148598 -0.000278827)
(0.134481 -0.000519244 -0.00200897)
(0.134068 0.000165643 -0.00259196)
(0.135129 0.000398389 -0.00240402)
(0.137409 0.000347331 -0.00260769)
(0.140281 -0.000327113 -0.00356724)
(0.142704 -0.00251243 -0.00400977)
(0.144877 -0.00595343 -0.00278747)
(0.147257 -0.00860613 -0.000126664)
(0.148785 -0.00867126 0.00330131)
(0.147793 -0.00581541 0.00674563)
(0.14359 -0.00134201 0.0091435)
(0.137289 0.0025499 0.0100134)
(0.131181 0.00464291 0.00956898)
(0.126887 0.00503821 0.00797575)
(0.124602 0.00426064 0.00571329)
(0.124236 0.00254339 0.003803)
(0.125936 0.000162393 0.00269096)
(0.129247 -0.00186526 0.00199621)
(0.132951 -0.00230239 0.00183623)
(0.135867 -0.00124758 0.00258538)
(0.137419 -1.48466e-05 0.00349402)
(0.138201 0.000448603 0.00298763)
(0.139956 0.000299692 0.000384651)
(0.144032 -1.49657e-06 -0.00348852)
(0.149974 -0.00042949 -0.00726728)
(0.154213 9.01643e-05 -0.00684944)
(0.159637 -0.00100296 -0.00915741)
(0.163574 -0.0017371 -0.0108303)
(0.164835 -0.00228633 -0.0118789)
(0.162634 -0.00252234 -0.0118768)
(0.15747 -0.00185976 -0.0100923)
(0.151273 -0.000232458 -0.00630666)
(0.14639 0.00127255 -0.00142784)
(0.143794 0.00149699 0.00263511)
(0.142842 0.000442935 0.00476418)
(0.142442 -0.000907917 0.0054595)
(0.141904 -0.00165526 0.00537889)
(0.140939 -0.00160021 0.00446419)
(0.139795 -0.0011305 0.00265341)
(0.139177 -0.000716898 0.00053201)
(0.139435 -0.000595901 -0.00100616)
(0.140049 -0.000858058 -0.00135981)
(0.140195 -0.00132995 -0.000574894)
(0.13997 -0.00146023 0.000480779)
(0.140116 -0.001271 0.00101637)
(0.141013 -0.00199539 0.00147001)
(0.142907 -0.00432682 0.0026113)
(0.145478 -0.00682265 0.00421705)
(0.147208 -0.00714434 0.00575173)
(0.146502 -0.00445337 0.00716951)
(0.142913 9.3288e-05 0.00824517)
(0.137321 0.00414363 0.00879648)
(0.131485 0.00601282 0.00878864)
(0.126935 0.00583229 0.00819601)
(0.124265 0.00472727 0.00729718)
(0.12375 0.0032677 0.00661495)
(0.125593 0.00138387 0.00620018)
(0.129036 -0.000503528 0.00569561)
(0.132633 -0.00130499 0.00520446)
(0.135362 -0.000460331 0.00525928)
(0.137002 0.0012674 0.00558672)
(0.13813 0.00260802 0.00502645)
(0.139871 0.00288902 0.00287998)
(0.143249 0.00231524 -0.000423599)
(0.148351 0.00131275 -0.00388933)
(0.152568 8.45624e-05 -0.00459017)
(0.157781 -0.000924742 -0.00717698)
(0.161925 -0.00102281 -0.00888272)
(0.164112 -0.000541653 -0.0100142)
(0.163748 4.59583e-05 -0.0107222)
(0.161021 0.000738507 -0.010444)
(0.156932 0.0016707 -0.00849073)
(0.152653 0.00240209 -0.00497089)
(0.148815 0.00216713 -0.00108348)
(0.145483 0.000936646 0.00183539)
(0.142771 -0.000413614 0.00351322)
(0.141234 -0.00117599 0.00436383)
(0.141357 -0.00124574 0.00452997)
(0.143089 -0.000868618 0.0038767)
(0.145769 -0.000475548 0.00263542)
(0.14813 -0.000487796 0.0016294)
(0.148956 -0.000887034 0.00164165)
(0.147639 -0.00121963 0.00283228)
(0.144944 -0.000967794 0.00449554)
(0.142781 -0.000173432 0.00529269)
(0.142336 6.68423e-05 0.00480179)
(0.143562 -0.00132906 0.0040136)
(0.145603 -0.00358334 0.00395194)
(0.146891 -0.00437938 0.00473897)
(0.146068 -0.00230527 0.00593947)
(0.142758 0.00203047 0.00668055)
(0.137792 0.00647954 0.00675069)
(0.132753 0.008814 0.0066985)
(0.129007 0.00853398 0.00653254)
(0.127061 0.00682853 0.00591925)
(0.126839 0.00491634 0.00511071)
(0.128222 0.00320545 0.00463438)
(0.130765 0.00187144 0.00458272)
(0.133754 0.00127769 0.00477715)
(0.136656 0.00173645 0.00524137)
(0.138934 0.00294025 0.0059026)
(0.140424 0.00401439 0.00602895)
(0.14163 0.00411555 0.00477185)
(0.143693 0.00315632 0.00210046)
(0.147463 0.00164414 -0.00129522)
(0.151032 -0.00176206 -0.00237505)
(0.15568 -0.00298039 -0.00522532)
(0.159157 -0.00272438 -0.00712599)
(0.160954 -0.00134994 -0.00815656)
(0.160869 0.000350987 -0.00864208)
(0.159187 0.00187695 -0.00865498)
(0.156743 0.00308437 -0.0079709)
(0.154444 0.00379894 -0.00634265)
(0.152507 0.0035967 -0.00397621)
(0.150434 0.00225231 -0.00154489)
(0.147841 0.000158699 0.000479916)
(0.145221 -0.00217071 0.00209679)
(0.143817 -0.00440827 0.00334155)
(0.144556 -0.00605518 0.00401665)
(0.147264 -0.00658179 0.00395871)
(0.150491 -0.00588467 0.00338147)
(0.15229 -0.00436996 0.00293372)
(0.151388 -0.00237031 0.00304364)
(0.1481 -0.000100848 0.00342819)
(0.144433 0.00193169 0.00316546)
(0.14223 0.00301707 0.00165777)
(0.141968 0.00251673 -0.000293131)
(0.143028 0.00053009 -0.00119477)
(0.144241 -0.00144576 -0.000245332)
(0.144672 -0.00142084 0.00206608)
(0.143912 0.00141314 0.00418523)
(0.142137 0.00593825 0.00480185)
(0.140064 0.0097584 0.00401018)
(0.138359 0.0110667 0.00263926)
(0.137375 0.0099819 0.00125162)
(0.136959 0.00781459 0.000319741)
(0.13687 0.00561266 0.000326277)
(0.137053 0.00389703 0.00129648)
(0.137402 0.00296084 0.002772)
(0.137895 0.00284865 0.00429064)
(0.138487 0.0032531 0.00555219)
(0.139198 0.00366209 0.00613411)
(0.140321 0.00347919 0.00555841)
(0.142532 0.00231619 0.00371633)
(0.146262 0.000336606 0.000870904)
(0.15085 -0.00329555 0.00157808)
(0.153663 -0.00273822 -0.00238074)
(0.154313 -0.00102632 -0.0055235)
(0.152957 0.00113346 -0.00737862)
(0.150441 0.00293369 -0.00807524)
(0.147915 0.00393965 -0.0080343)
(0.14634 0.00412577 -0.007646)
(0.146199 0.00369455 -0.00704365)
(0.1474 0.00281583 -0.00614499)
(0.149392 0.00157794 -0.00482132)
(0.151293 0.000108876 -0.00308965)
(0.152294 -0.00159565 -0.00107733)
(0.152218 -0.00362938 0.00100852)
(0.151517 -0.00580269 0.00300664)
(0.150969 -0.00748508 0.00478833)
(0.150956 -0.00801235 0.00603581)
(0.151033 -0.00703692 0.00633905)
(0.150271 -0.00453139 0.00564498)
(0.148142 -0.00111495 0.00426336)
(0.145273 0.00171253 0.00244618)
(0.142836 0.0025996 0.000384002)
(0.141792 0.00147795 -0.00133429)
(0.14243 -0.000604474 -0.00188512)
(0.144051 -0.00219021 -0.000736934)
(0.145596 -0.00207639 0.00180795)
(0.146506 0.000127446 0.00431676)
(0.146782 0.00378592 0.00505036)
(0.146786 0.00747104 0.00336185)
(0.146806 0.00960225 4.32177e-05)
(0.146799 0.00948195 -0.00350974)
(0.146441 0.00771407 -0.00599507)
(0.145545 0.0055027 -0.00649105)
(0.144316 0.00385929 -0.00483369)
(0.143031 0.00322369 -0.00161402)
(0.141842 0.00330739 0.00225634)
(0.140874 0.0033106 0.00593023)
(0.140346 0.00257543 0.00854642)
(0.140827 0.00101563 0.00939237)
(0.143016 -0.000932477 0.00824862)
(0.146768 -0.00257633 0.00541556)
(0.155605 -0.000959055 0.00791232)
(0.157571 0.000538844 0.00506185)
(0.159101 0.00280647 0.0011643)
(0.159494 0.00505066 -0.00297861)
(0.158254 0.00655913 -0.00651694)