/*--------------------------------*- C++ -*----------------------------------*\
| =========                 |                                                 |
| \\      /  F ield         | OpenFOAM: The Open Source CFD Toolbox           |
|  \\    /   O peration     | Version:  2306                                  |
|   \\  /    A nd           | Website:  www.openfoam.com                      |
|    \\/     M anipulation  |                                                 |
\*---------------------------------------------------------------------------*/
FoamFile
{
    version     2.0;
    format      ascii;
    arch        "LSB;label=32;scalar=64";
    class       volScalarField;
    location    "4.5";
    object      nut;
}
// * * * * * * * * * * * * * * * * * * * * * * * * * * * * * * * * * * * * * //

dimensions      [0 2 -1 0 0 0 0];

internalField   nonuniform List<scalar> 
60000
(
8.56746e-05
9.08387e-05
9.35471e-05
9.29405e-05
8.98408e-05
8.64751e-05
8.3909e-05
8.18528e-05
7.97737e-05
7.68551e-05
7.19498e-05
6.50744e-05
5.82984e-05
5.38455e-05
5.23016e-05
5.26149e-05
5.33554e-05
5.40047e-05
5.52097e-05
5.75342e-05
6.05457e-05
6.36204e-05
6.68816e-05
7.09821e-05
7.62332e-05
8.18151e-05
8.577e-05
8.62198e-05
8.27689e-05
7.63541e-05
6.92065e-05
6.36437e-05
6.00419e-05
5.80297e-05
5.7712e-05
5.9171e-05
6.21579e-05
6.64571e-05
7.22469e-05
7.90573e-05
8.47774e-05
9.06487e-05
9.49265e-05
9.5868e-05
9.32145e-05
8.92354e-05
8.61648e-05
8.41979e-05
8.24459e-05
7.99412e-05
7.58306e-05
7.00184e-05
6.36839e-05
5.84422e-05
5.52459e-05
5.37878e-05
5.31591e-05
5.31804e-05
5.42532e-05
5.63706e-05
5.91125e-05
6.23234e-05
6.63809e-05
7.15483e-05
7.75756e-05
8.34586e-05
8.76297e-05
8.85136e-05
8.55847e-05
8.00018e-05
7.40478e-05
6.88937e-05
6.41302e-05
6.00204e-05
5.77505e-05
5.81681e-05
6.0934e-05
6.54036e-05
7.14058e-05
7.81687e-05
7.96716e-05
8.6742e-05
9.33396e-05
9.69123e-05
9.54676e-05
9.07977e-05
8.67298e-05
8.4626e-05
8.34842e-05
8.21779e-05
7.99928e-05
7.6289e-05
7.08033e-05
6.4226e-05
5.82482e-05
5.4185e-05
5.19093e-05
5.10068e-05
5.14362e-05
5.29593e-05
5.52275e-05
5.81422e-05
6.20669e-05
6.72095e-05
7.33542e-05
7.98467e-05
8.54938e-05
8.86003e-05
8.809e-05
8.46273e-05
8.00767e-05
7.53386e-05
6.98495e-05
6.35982e-05
5.81645e-05
5.57235e-05
5.68011e-05
6.0464e-05
6.60299e-05
7.27309e-05
6.98549e-05
7.76293e-05
8.65773e-05
9.38014e-05
9.51515e-05
9.0573e-05
8.52261e-05
8.26298e-05
8.21725e-05
8.23748e-05
8.24845e-05
8.16258e-05
7.84137e-05
7.18846e-05
6.32131e-05
5.54675e-05
5.04381e-05
4.78445e-05
4.70727e-05
4.7586e-05
4.89082e-05
5.07745e-05
5.34165e-05
5.72543e-05
6.24911e-05
6.91336e-05
7.66866e-05
8.34719e-05
8.73436e-05
8.75413e-05
8.52221e-05
8.16492e-05
7.6843e-05
6.99581e-05
6.14321e-05
5.4408e-05
5.15398e-05
5.2706e-05
5.67307e-05
6.28422e-05
5.48356e-05
6.14596e-05
7.1075e-05
8.23328e-05
8.88479e-05
8.65675e-05
8.02869e-05
7.68053e-05
7.69546e-05
7.86665e-05
8.08228e-05
8.27749e-05
8.32079e-05
7.97658e-05
7.1073e-05
5.98419e-05
5.0558e-05
4.48918e-05
4.20595e-05
4.10091e-05
4.07923e-05
4.08067e-05
4.11898e-05
4.26199e-05
4.55097e-05
5.01149e-05
5.77224e-05
6.85289e-05
7.86716e-05
8.4769e-05
8.62335e-05
8.45925e-05
8.1667e-05
7.69642e-05
6.85569e-05
5.77155e-05
4.90692e-05
4.52774e-05
4.58034e-05
4.95077e-05
4.20555e-05
4.38286e-05
4.76946e-05
5.85034e-05
7.16914e-05
7.5582e-05
7.0106e-05
6.54222e-05
6.61926e-05
6.95735e-05
7.31988e-05
7.68091e-05
8.08084e-05
8.32977e-05
7.98183e-05
6.88903e-05
5.52799e-05
4.48051e-05
3.86959e-05
3.55037e-05
3.36034e-05
3.20543e-05
3.10561e-05
3.1522e-05
3.3841e-05
3.76832e-05
4.05227e-05
4.43321e-05
5.72047e-05
7.14012e-05
7.92821e-05
8.05157e-05
7.92803e-05
7.83083e-05
7.49501e-05
6.61234e-05
5.40474e-05
4.41675e-05
4.0029e-05
4.04754e-05
3.76104e-05
3.75267e-05
3.97524e-05
3.99851e-05
4.48412e-05
5.46864e-05
5.25678e-05
4.6175e-05
4.74694e-05
5.38649e-05
5.92245e-05
6.27954e-05
6.75993e-05
7.58353e-05
8.24511e-05
7.9537e-05
6.62427e-05
5.07187e-05
3.98867e-05
3.39758e-05
3.09135e-05
2.93814e-05
2.89837e-05
2.92547e-05
2.89973e-05
3.03645e-05
3.75835e-05
4.01948e-05
3.51194e-05
4.55709e-05
6.09642e-05
6.65659e-05
6.59092e-05
6.7364e-05
7.07294e-05
7.04724e-05
6.39275e-05
5.28149e-05
4.23166e-05
3.82069e-05
3.51261e-05
3.11665e-05
3.19579e-05
3.94361e-05
3.48426e-05
3.32802e-05
3.59159e-05
2.61266e-05
2.17668e-05
3.12299e-05
4.10325e-05
4.31168e-05
4.23442e-05
5.06782e-05
6.8385e-05
8.15922e-05
7.8965e-05
6.33591e-05
4.72444e-05
3.72076e-05
3.25563e-05
3.15888e-05
3.31783e-05
3.55248e-05
3.60725e-05
3.11754e-05
2.49079e-05
3.42265e-05
3.74821e-05
2.85402e-05
3.49345e-05
3.89863e-05
3.20581e-05
3.05535e-05
4.08298e-05
5.47188e-05
6.27756e-05
6.23307e-05
5.36633e-05
4.17601e-05
3.88459e-05
2.93201e-05
2.27169e-05
2.59008e-05
3.46465e-05
2.67441e-05
2.9166e-05
2.55526e-05
1.01879e-05
1.30349e-05
2.1018e-05
2.79369e-05
2.19686e-05
1.73215e-05
3.21628e-05
6.13494e-05
8.03832e-05
7.67953e-05
6.0167e-05
4.47179e-05
3.6032e-05
3.37948e-05
3.63282e-05
4.09846e-05
4.46263e-05
4.42856e-05
3.40129e-05
2.11869e-05
2.97692e-05
2.8968e-05
1.59641e-05
1.97659e-05
2.49756e-05
2.91501e-05
2.98393e-05
2.92569e-05
4.06401e-05
5.33888e-05
5.82733e-05
5.16914e-05
4.73701e-05
3.39865e-05
2.41189e-05
2.00648e-05
2.51008e-05
2.96276e-05
2.46889e-05
3.2197e-05
2.29296e-05
8.8384e-06
1.62934e-05
1.34378e-05
2.15522e-05
1.07807e-05
1.56242e-05
2.62178e-05
5.78112e-05
7.6926e-05
7.20368e-05
5.57707e-05
4.12934e-05
3.51941e-05
3.68312e-05
4.37169e-05
5.09856e-05
5.42435e-05
4.90422e-05
3.12653e-05
1.85521e-05
2.4812e-05
1.81396e-05
2.36636e-05
3.13705e-05
2.80758e-05
3.13062e-05
3.40377e-05
3.11458e-05
3.36205e-05
4.31498e-05
5.12297e-05
4.71457e-05
4.23952e-05
2.85774e-05
2.3877e-05
2.301e-05
2.56986e-05
2.75117e-05
2.62851e-05
3.11496e-05
1.66633e-05
1.23924e-05
1.76128e-05
1.14633e-05
2.24973e-05
9.51632e-06
2.28848e-05
2.68933e-05
5.32813e-05
6.9436e-05
6.41768e-05
4.86781e-05
3.58765e-05
3.26602e-05
3.91086e-05
5.11493e-05
6.04124e-05
5.97728e-05
4.52578e-05
2.22168e-05
1.84155e-05
2.04698e-05
2.30881e-05
3.04379e-05
2.72204e-05
1.77066e-05
1.60711e-05
2.31344e-05
2.78818e-05
2.84602e-05
3.55271e-05
3.49878e-05
4.50077e-05
3.65012e-05
2.80047e-05
2.91571e-05
2.54488e-05
2.6061e-05
2.59882e-05
2.1402e-05
2.26205e-05
7.67571e-06
1.47266e-05
1.61093e-05
1.29582e-05
1.8316e-05
1.19127e-05
2.65543e-05
2.53897e-05
4.32136e-05
5.48782e-05
4.89817e-05
3.40678e-05
2.2059e-05
2.67096e-05
3.80829e-05
5.36605e-05
6.2873e-05
5.52781e-05
3.43744e-05
1.97989e-05
1.99954e-05
1.94464e-05
2.49316e-05
3.126e-05
3.34422e-05
2.75283e-05
1.74005e-05
1.8407e-05
2.55465e-05
2.25522e-05
1.89023e-05
3.68442e-05
4.01019e-05
3.27787e-05
3.25468e-05
3.14986e-05
2.37637e-05
2.42011e-05
1.95431e-05
1.43513e-05
1.52e-05
5.03835e-06
1.55799e-05
1.47627e-05
1.41299e-05
1.47166e-05
1.66981e-05
2.62376e-05
1.98863e-05
2.10503e-05
2.61512e-05
2.68736e-05
2.43124e-05
2.34033e-05
2.71273e-05
3.24349e-05
5.11203e-05
5.63272e-05
4.32982e-05
2.76628e-05
2.28093e-05
1.82215e-05
1.85069e-05
2.54396e-05
3.54904e-05
4.10147e-05
3.6758e-05
2.80511e-05
2.52809e-05
2.35094e-05
1.6519e-05
1.90686e-05
3.41258e-05
3.54437e-05
3.57033e-05
3.6644e-05
2.96761e-05
2.30014e-05
2.01346e-05
1.26284e-05
1.25056e-05
1.08595e-05
9.95513e-06
1.57884e-05
1.34595e-05
1.61425e-05
1.55472e-05
2.0305e-05
3.17538e-05
3.05181e-05
1.5438e-05
1.79538e-05
2.92024e-05
2.63012e-05
2.19961e-05
1.98175e-05
2.94462e-05
4.65362e-05
4.40214e-05
3.20962e-05
2.64755e-05
2.05719e-05
1.55028e-05
1.51331e-05
2.1033e-05
3.20932e-05
3.9052e-05
3.69721e-05
2.94231e-05
2.62451e-05
2.40249e-05
1.26598e-05
1.9027e-05
3.16979e-05
3.65987e-05
3.91102e-05
3.4725e-05
2.98062e-05
2.48658e-05
1.64175e-05
1.08581e-05
1.37723e-05
1.24648e-05
1.34069e-05
1.34793e-05
1.3678e-05
1.95482e-05
2.09015e-05
2.18904e-05
2.18242e-05
1.77571e-05
1.89972e-05
2.58454e-05
3.09449e-05
2.39481e-05
1.79656e-05
1.70058e-05
3.41827e-05
4.02601e-05
3.20199e-05
2.62824e-05
2.04819e-05
1.28473e-05
1.32136e-05
1.38846e-05
1.19605e-05
1.84513e-05
2.34529e-05
2.17164e-05
2.09094e-05
2.61206e-05
2.71653e-05
1.72991e-05
2.29973e-05
3.36519e-05
3.75398e-05
3.43278e-05
3.25576e-05
3.08029e-05
2.14505e-05
1.07474e-05
1.19162e-05
1.58165e-05
1.40171e-05
1.16422e-05
1.17991e-05
1.64696e-05
2.09885e-05
2.07658e-05
1.71889e-05
1.88574e-05
2.19275e-05
2.11581e-05
2.71799e-05
2.97664e-05
1.94345e-05
1.14611e-05
2.67238e-05
3.71987e-05
3.24738e-05
2.47126e-05
1.75848e-05
1.82902e-05
2.25573e-05
2.12709e-05
1.83629e-05
1.66986e-05
1.59665e-05
1.66499e-05
1.99876e-05
2.71347e-05
3.06351e-05
3.04787e-05
2.62244e-05
2.72412e-05
3.05785e-05
2.85698e-05
2.82333e-05
3.24417e-05
2.67634e-05
1.4499e-05
6.05903e-06
1.00635e-05
1.24128e-05
1.18858e-05
1.33576e-05
1.35283e-05
1.31137e-05
1.79383e-05
2.17591e-05
2.27967e-05
2.13256e-05
1.69483e-05
2.19949e-05
3.09568e-05
2.6069e-05
8.88557e-06
1.37356e-05
2.91019e-05
3.26845e-05
2.74462e-05
1.98576e-05
1.96809e-05
1.91632e-05
1.76253e-05
1.62353e-05
1.39539e-05
1.19942e-05
1.806e-05
2.42823e-05
2.96354e-05
2.75504e-05
2.75427e-05
2.951e-05
3.14867e-05
2.87454e-05
2.12855e-05
1.93176e-05
2.72776e-05
3.07078e-05
2.54779e-05
1.57835e-05
7.42672e-06
8.05162e-06
9.99377e-06
1.23609e-05
1.4749e-05
1.90264e-05
2.4208e-05
2.50534e-05
2.31726e-05
2.07185e-05
1.60568e-05
1.75799e-05
2.82802e-05
2.98734e-05
1.57656e-05
6.6452e-06
1.93007e-05
2.59804e-05
2.74131e-05
2.45216e-05
1.83762e-05
1.2112e-05
1.70068e-05
2.19172e-05
1.63439e-05
9.74684e-06
1.98293e-05
2.86379e-05
2.30306e-05
2.10577e-05
2.11787e-05
2.23555e-05
2.59213e-05
2.70015e-05
2.04419e-05
1.52957e-05
1.71058e-05
2.03292e-05
2.30917e-05
2.3805e-05
2.26252e-05
1.84813e-05
1.00203e-05
6.83722e-06
1.81302e-05
2.8622e-05
3.10836e-05
2.33909e-05
1.97872e-05
2.37942e-05
1.95152e-05
1.30892e-05
2.79396e-05
3.99197e-05
3.03427e-05
9.95472e-06
2.23856e-05
3.06815e-05
3.18236e-05
3.15454e-05
3.19131e-05
3.08851e-05
2.62471e-05
2.29635e-05
2.2396e-05
1.78162e-05
1.6124e-05
2.19827e-05
2.27053e-05
2.32242e-05
2.06155e-05
1.75262e-05
1.73537e-05
1.82746e-05
1.77908e-05
1.90996e-05
2.11274e-05
1.73049e-05
1.33995e-05
1.53999e-05
1.76445e-05
2.15634e-05
2.34791e-05
1.97694e-05
1.63655e-05
2.21287e-05
2.90979e-05
2.72719e-05
2.11357e-05
2.38992e-05
2.52737e-05
1.88556e-05
1.13903e-05
2.05749e-05
2.48412e-05
1.06035e-05
1.89179e-05
3.49065e-05
4.06599e-05
4.65155e-05
5.06725e-05
4.74566e-05
3.82601e-05
2.74331e-05
1.90191e-05
1.41154e-05
1.26689e-05
1.78928e-05
2.31842e-05
2.47833e-05
2.26274e-05
1.92726e-05
1.71078e-05
1.37272e-05
1.41826e-05
1.87812e-05
1.95025e-05
1.48296e-05
1.0479e-05
1.46475e-05
1.90335e-05
1.88991e-05
1.73913e-05
1.81367e-05
1.94907e-05
1.63906e-05
8.86014e-06
6.98603e-06
1.03162e-05
1.77588e-05
2.51534e-05
2.58908e-05
2.12348e-05
1.17543e-05
1.05755e-05
9.16199e-06
1.26105e-05
3.0657e-05
4.15289e-05
4.60672e-05
4.4689e-05
3.85508e-05
3.26152e-05
2.9356e-05
2.75439e-05
2.49801e-05
2.23102e-05
2.16594e-05
2.65492e-05
2.39466e-05
1.94898e-05
1.38631e-05
1.61989e-05
2.04689e-05
2.10956e-05
2.24361e-05
2.32236e-05
2.05958e-05
1.54997e-05
1.04442e-05
6.98955e-06
8.4871e-06
1.26544e-05
1.29998e-05
1.04232e-05
1.22381e-05
1.77846e-05
1.92622e-05
1.5659e-05
1.91473e-05
2.80431e-05
3.30117e-05
3.1038e-05
2.35283e-05
1.51834e-05
1.17622e-05
1.47432e-05
2.64564e-05
3.49189e-05
3.47385e-05
2.85978e-05
2.21798e-05
1.97466e-05
2.18147e-05
2.72276e-05
3.06293e-05
2.99875e-05
2.82955e-05
1.61754e-05
1.25356e-05
1.15271e-05
1.23416e-05
1.30881e-05
1.26505e-05
1.04252e-05
1.03465e-05
1.38373e-05
1.46541e-05
1.42586e-05
1.76151e-05
2.02293e-05
1.85218e-05
1.37539e-05
1.18481e-05
1.40997e-05
1.40172e-05
1.1963e-05
1.57261e-05
1.94381e-05
1.81715e-05
2.25552e-05
3.08724e-05
3.31969e-05
2.84116e-05
2.01368e-05
1.44645e-05
1.46532e-05
1.9649e-05
2.35247e-05
2.26262e-05
2.06882e-05
1.93677e-05
1.64605e-05
1.201e-05
1.35935e-05
2.12627e-05
2.42323e-05
2.11387e-05
1.26687e-05
1.28727e-05
1.2622e-05
1.1793e-05
9.82324e-06
8.6923e-06
9.06355e-06
1.19535e-05
1.57945e-05
1.72835e-05
1.91208e-05
2.33998e-05
2.38668e-05
1.85719e-05
1.30708e-05
1.20226e-05
1.26354e-05
1.12248e-05
6.90606e-06
8.88814e-06
1.40012e-05
1.69504e-05
1.89267e-05
1.88107e-05
1.4673e-05
9.03018e-06
8.23976e-06
1.0323e-05
1.148e-05
1.32928e-05
1.50427e-05
1.64509e-05
1.76029e-05
1.63768e-05
1.24665e-05
8.80683e-06
8.50079e-06
9.70798e-06
1.06463e-05
1.14693e-05
1.12309e-05
1.39052e-05
1.46036e-05
1.47625e-05
1.24184e-05
9.08927e-06
9.02216e-06
1.15509e-05
1.37333e-05
1.33178e-05
1.00576e-05
8.05281e-06
9.51593e-06
9.98303e-06
9.46245e-06
1.10784e-05
1.63215e-05
2.21757e-05
2.4265e-05
2.13853e-05
1.80534e-05
1.87787e-05
2.13978e-05
2.50071e-05
2.70028e-05
2.38383e-05
1.5191e-05
5.02515e-06
4.91175e-06
9.8766e-06
1.35387e-05
1.79176e-05
2.14332e-05
2.25239e-05
1.96451e-05
1.42901e-05
1.24802e-05
1.28001e-05
8.61646e-06
6.0446e-06
6.89527e-05
7.4133e-05
7.80511e-05
8.14171e-05
8.42572e-05
8.57616e-05
8.55827e-05
8.43069e-05
8.29117e-05
8.13206e-05
7.85207e-05
7.42781e-05
6.99347e-05
6.68415e-05
6.51577e-05
6.41003e-05
6.30943e-05
6.2421e-05
6.2964e-05
6.50677e-05
6.81188e-05
7.11393e-05
7.40101e-05
7.75292e-05
8.22345e-05
8.72751e-05
9.04539e-05
9.00123e-05
8.6239e-05
8.07684e-05
7.51664e-05
7.02253e-05
6.52358e-05
5.98265e-05
5.55842e-05
5.35337e-05
5.30975e-05
5.39925e-05
5.71836e-05
6.27144e-05
6.71397e-05
7.22698e-05
7.7138e-05
8.18245e-05
8.57614e-05
8.8167e-05
8.87151e-05
8.77922e-05
8.61809e-05
8.43041e-05
8.18695e-05
7.86134e-05
7.48965e-05
7.1525e-05
6.88977e-05
6.65958e-05
6.44649e-05
6.3173e-05
6.33944e-05
6.49894e-05
6.73617e-05
7.00351e-05
7.32875e-05
7.78757e-05
8.39287e-05
8.9975e-05
9.35864e-05
9.35719e-05
9.046e-05
8.52114e-05
7.9609e-05
7.52547e-05
7.1036e-05
6.50916e-05
5.84378e-05
5.37495e-05
5.2013e-05
5.29668e-05
5.64577e-05
6.16396e-05
6.22841e-05
6.79541e-05
7.37617e-05
7.944e-05
8.42844e-05
8.76594e-05
8.92163e-05
8.90036e-05
8.76321e-05
8.60842e-05
8.47922e-05
8.3168e-05
8.03551e-05
7.65874e-05
7.28759e-05
6.93933e-05
6.60099e-05
6.33573e-05
6.21952e-05
6.25163e-05
6.38422e-05
6.58296e-05
6.86746e-05
7.315e-05
7.95589e-05
8.66316e-05
9.19406e-05
9.42412e-05
9.36467e-05
9.00467e-05
8.48412e-05
8.10334e-05
7.83697e-05
7.3203e-05
6.42555e-05
5.54504e-05
5.06109e-05
4.99341e-05
5.24226e-05
5.69021e-05
5.48414e-05
6.1024e-05
6.75375e-05
7.3933e-05
7.93954e-05
8.34734e-05
8.60766e-05
8.69701e-05
8.63624e-05
8.54429e-05
8.54386e-05
8.58777e-05
8.49159e-05
8.1648e-05
7.72371e-05
7.27374e-05
6.80957e-05
6.36194e-05
6.02464e-05
5.84366e-05
5.7922e-05
5.83492e-05
5.96566e-05
6.25346e-05
6.78757e-05
7.52879e-05
8.26383e-05
8.83871e-05
9.21509e-05
9.23989e-05
8.87912e-05
8.5388e-05
8.457e-05
8.22713e-05
7.36248e-05
6.08902e-05
5.09044e-05
4.64873e-05
4.66022e-05
4.9755e-05
4.53002e-05
5.10204e-05
5.75793e-05
6.41793e-05
6.9938e-05
7.41359e-05
7.72827e-05
7.94602e-05
8.02743e-05
8.03204e-05
8.12131e-05
8.33782e-05
8.50645e-05
8.41019e-05
8.04888e-05
7.57437e-05
7.03841e-05
6.43594e-05
5.85611e-05
5.39873e-05
5.07421e-05
4.84185e-05
4.68074e-05
4.65612e-05
4.90869e-05
5.48448e-05
6.27392e-05
7.15786e-05
8.07283e-05
8.75949e-05
8.83415e-05
8.57094e-05
8.59866e-05
8.77979e-05
8.37089e-05
7.1188e-05
5.64162e-05
4.60352e-05
4.14204e-05
4.17125e-05
3.61964e-05
3.90083e-05
4.37741e-05
4.96177e-05
5.53992e-05
5.92291e-05
6.16155e-05
6.43623e-05
6.71278e-05
6.88736e-05
7.0272e-05
7.27389e-05
7.63429e-05
7.92843e-05
7.93287e-05
7.64556e-05
7.16933e-05
6.52763e-05
5.79457e-05
5.09847e-05
4.49013e-05
3.95295e-05
3.52301e-05
3.31326e-05
3.3863e-05
3.68085e-05
3.99893e-05
4.48707e-05
5.55942e-05
7.01786e-05
7.92643e-05
7.95282e-05
7.9531e-05
8.45603e-05
8.78679e-05
8.19976e-05
6.83724e-05
5.35799e-05
4.19371e-05
3.63816e-05
3.20824e-05
3.03119e-05
3.07348e-05
3.33375e-05
3.80173e-05
4.18283e-05
4.1733e-05
4.1578e-05
4.51669e-05
4.97037e-05
5.19231e-05
5.27541e-05
5.51959e-05
6.11825e-05
6.78454e-05
7.10462e-05
6.98703e-05
6.50659e-05
5.79112e-05
5.00417e-05
4.24976e-05
3.58401e-05
3.09648e-05
2.85141e-05
2.76479e-05
2.88709e-05
3.07694e-05
2.90574e-05
2.87018e-05
4.05891e-05
5.80108e-05
6.48365e-05
6.39151e-05
6.88653e-05
7.87812e-05
8.36011e-05
7.93866e-05
6.88365e-05
5.4031e-05
3.93499e-05
3.61471e-05
2.84862e-05
2.63079e-05
2.60087e-05
2.57309e-05
2.79815e-05
2.91678e-05
2.41687e-05
2.07163e-05
2.50375e-05
3.02999e-05
3.01887e-05
2.69544e-05
2.87345e-05
3.99837e-05
5.35214e-05
6.15179e-05
6.22383e-05
5.73433e-05
4.97822e-05
4.2282e-05
3.66839e-05
3.45273e-05
3.62372e-05
3.82656e-05
3.48432e-05
3.02113e-05
2.62113e-05
2.06951e-05
2.11813e-05
3.23173e-05
4.38785e-05
3.94882e-05
3.61892e-05
4.84568e-05
6.59299e-05
7.62479e-05
7.89458e-05
7.26568e-05
5.46111e-05
5.00978e-05
3.14048e-05
2.66441e-05
2.74205e-05
2.73419e-05
2.19679e-05
2.26334e-05
2.28502e-05
1.37911e-05
1.05038e-05
1.37294e-05
1.80083e-05
1.49528e-05
8.01463e-06
1.22114e-05
2.45556e-05
4.33961e-05
5.49373e-05
5.60676e-05
4.96375e-05
4.16301e-05
3.66303e-05
3.57448e-05
3.89047e-05
4.47408e-05
4.61479e-05
3.82307e-05
3.01813e-05
2.16048e-05
1.68821e-05
1.97383e-05
2.45292e-05
2.06961e-05
1.2994e-05
1.83344e-05
2.4011e-05
4.70732e-05
6.83486e-05
8.04742e-05
7.38167e-05
6.8081e-05
4.20979e-05
2.69277e-05
2.58075e-05
3.05869e-05
2.93474e-05
1.96045e-05
2.06738e-05
1.94096e-05
9.44712e-06
1.67697e-05
1.82801e-05
1.73592e-05
1.32334e-05
1.51688e-05
1.91544e-05
1.80271e-05
3.77427e-05
5.06887e-05
4.95985e-05
4.06593e-05
3.34913e-05
3.03679e-05
3.10827e-05
3.75312e-05
4.57618e-05
4.3892e-05
3.35598e-05
2.56236e-05
1.71442e-05
1.58282e-05
1.44996e-05
1.93219e-05
1.83462e-05
2.38202e-05
2.90857e-05
1.82193e-05
3.29402e-05
6.43066e-05
8.07261e-05
7.60139e-05
5.67055e-05
3.30138e-05
2.18674e-05
2.5452e-05
3.25633e-05
2.93481e-05
1.79505e-05
1.85371e-05
1.5249e-05
1.45385e-05
2.4311e-05
2.0576e-05
1.52716e-05
1.46837e-05
2.42002e-05
2.66296e-05
1.64394e-05
3.12062e-05
4.21097e-05
3.78653e-05
2.84531e-05
2.15054e-05
1.94703e-05
2.59234e-05
3.66287e-05
4.26138e-05
3.47555e-05
2.62414e-05
1.85659e-05
1.01242e-05
1.38068e-05
2.00421e-05
2.98751e-05
2.63154e-05
1.91558e-05
2.94112e-05
2.39283e-05
2.90583e-05
6.55758e-05
6.72152e-05
6.46325e-05
4.34966e-05
2.52571e-05
1.99652e-05
2.59225e-05
3.15939e-05
2.59301e-05
1.76001e-05
1.84991e-05
1.45352e-05
1.62408e-05
2.19227e-05
2.01938e-05
1.7639e-05
1.71336e-05
2.73987e-05
2.78933e-05
1.37555e-05
1.94131e-05
2.63678e-05
2.32626e-05
1.73654e-05
1.45688e-05
1.98185e-05
2.62408e-05
3.27317e-05
3.20224e-05
2.33227e-05
1.88967e-05
1.0764e-05
7.93456e-06
1.77844e-05
2.5353e-05
3.57694e-05
3.41125e-05
1.91025e-05
3.0281e-05
2.39033e-05
3.40093e-05
4.46842e-05
6.36877e-05
5.20308e-05
3.36356e-05
2.29513e-05
2.20967e-05
2.558e-05
2.65913e-05
2.08424e-05
1.83247e-05
1.73885e-05
1.25816e-05
1.59554e-05
2.1985e-05
2.21843e-05
1.72931e-05
1.55345e-05
2.45109e-05
2.63742e-05
1.8189e-05
8.61809e-06
1.47789e-05
2.03467e-05
1.71874e-05
1.4233e-05
1.95386e-05
1.93896e-05
2.4993e-05
1.96094e-05
1.76107e-05
1.47532e-05
1.08711e-05
1.23823e-05
1.95781e-05
2.16839e-05
3.00936e-05
3.12207e-05
2.33346e-05
3.20564e-05
1.21658e-05
1.61781e-05
5.195e-05
5.78775e-05
4.49031e-05
3.24449e-05
2.72863e-05
2.42306e-05
2.29256e-05
1.97289e-05
1.76194e-05
1.85683e-05
1.64793e-05
1.59597e-05
2.17693e-05
2.44489e-05
2.04737e-05
1.2122e-05
1.2613e-05
2.47014e-05
2.66914e-05
1.83455e-05
1.94593e-05
2.13408e-05
2.02021e-05
1.43396e-05
1.12576e-05
1.16865e-05
1.83282e-05
1.9594e-05
1.43485e-05
1.7625e-05
1.66601e-05
1.34627e-05
1.11655e-05
1.50932e-05
1.43094e-05
2.19676e-05
2.33212e-05
2.5932e-05
2.28941e-05
9.06587e-06
3.19754e-05
5.7626e-05
5.77764e-05
4.58912e-05
3.735e-05
3.22641e-05
2.76311e-05
2.27968e-05
1.89047e-05
2.00569e-05
2.14461e-05
2.10127e-05
2.23563e-05
2.36419e-05
2.09093e-05
1.67571e-05
1.43063e-05
1.64762e-05
1.76429e-05
2.19434e-05
2.6229e-05
1.98615e-05
1.28937e-05
1.53932e-05
1.25381e-05
1.0921e-05
1.61678e-05
2.2223e-05
1.63629e-05
1.6677e-05
1.75534e-05
1.47362e-05
1.0651e-05
9.36719e-06
1.0097e-05
1.51363e-05
1.95658e-05
1.80316e-05
2.265e-05
2.2241e-05
8.85664e-06
4.11433e-05
6.45923e-05
6.54777e-05
5.52918e-05
4.52149e-05
3.63617e-05
2.88265e-05
2.19487e-05
2.03412e-05
2.4173e-05
2.6709e-05
2.48233e-05
2.13021e-05
1.92349e-05
1.75504e-05
1.47022e-05
1.4723e-05
1.92031e-05
2.45932e-05
2.47364e-05
1.499e-05
7.50636e-06
1.36458e-05
1.38313e-05
1.2752e-05
1.42607e-05
2.25445e-05
2.11438e-05
1.59962e-05
1.4036e-05
1.27366e-05
1.27693e-05
1.60042e-05
1.69175e-05
1.21069e-05
1.83903e-05
2.34392e-05
2.23061e-05
2.32201e-05
2.26672e-05
1.73493e-05
3.93388e-05
6.31546e-05
6.96672e-05
6.10035e-05
4.46559e-05
2.93662e-05
1.99483e-05
1.63951e-05
1.81289e-05
2.29826e-05
2.5755e-05
2.31204e-05
2.13146e-05
2.03742e-05
1.55521e-05
1.08607e-05
1.33488e-05
1.69461e-05
1.58358e-05
1.06179e-05
1.22219e-05
1.88758e-05
2.06972e-05
1.75069e-05
1.39663e-05
1.6798e-05
2.17235e-05
1.9968e-05
1.60861e-05
1.40672e-05
1.50655e-05
1.69986e-05
1.83718e-05
1.82746e-05
1.97632e-05
2.50465e-05
2.49768e-05
2.52304e-05
1.97392e-05
2.21366e-05
2.37806e-05
2.89536e-05
4.60514e-05
5.77729e-05
5.24422e-05
3.51337e-05
1.85063e-05
1.20088e-05
1.49019e-05
1.53138e-05
1.36008e-05
1.83337e-05
2.50167e-05
2.57406e-05
2.12376e-05
1.8437e-05
1.81919e-05
1.38372e-05
8.13413e-06
8.65117e-06
1.30761e-05
2.20917e-05
3.0106e-05
2.90779e-05
2.01892e-05
1.54121e-05
1.80505e-05
2.19284e-05
2.42295e-05
2.22811e-05
1.66482e-05
1.5196e-05
1.63736e-05
1.78116e-05
2.34801e-05
2.98078e-05
2.9957e-05
2.173e-05
1.63022e-05
1.32961e-05
1.97301e-05
2.59294e-05
2.13535e-05
2.68628e-05
4.44329e-05
4.6031e-05
3.45894e-05
2.05565e-05
8.55173e-06
5.33049e-06
1.10829e-05
1.38815e-05
1.60052e-05
2.26076e-05
3.12165e-05
3.5362e-05
3.05313e-05
2.00349e-05
1.45428e-05
1.56509e-05
1.55588e-05
1.4836e-05
2.10521e-05
2.83709e-05
2.51248e-05
1.96584e-05
2.29299e-05
2.82123e-05
3.32639e-05
3.41402e-05
2.83835e-05
1.8844e-05
1.49741e-05
2.07657e-05
2.66437e-05
2.825e-05
2.58665e-05
2.16623e-05
2.25463e-05
1.86733e-05
1.48541e-05
1.74283e-05
2.29957e-05
2.16229e-05
1.51768e-05
1.97792e-05
2.265e-05
1.90409e-05
1.7934e-05
1.77907e-05
1.45933e-05
1.44006e-05
1.92911e-05
2.5014e-05
3.3454e-05
3.92881e-05
3.31335e-05
1.77634e-05
1.07605e-05
1.62018e-05
1.87487e-05
2.05604e-05
1.78931e-05
1.27434e-05
1.61475e-05
2.02385e-05
2.66758e-05
3.11248e-05
3.16141e-05
3.11584e-05
3.08446e-05
2.78729e-05
2.06084e-05
1.50408e-05
1.63015e-05
1.64997e-05
1.79118e-05
1.80403e-05
2.00428e-05
1.85452e-05
1.59918e-05
1.52059e-05
1.43015e-05
1.26342e-05
1.41145e-05
1.65445e-05
1.43088e-05
8.50008e-06
9.73834e-06
1.39312e-05
1.56434e-05
1.8676e-05
2.45788e-05
2.85056e-05
2.69919e-05
2.41853e-05
2.30118e-05
1.63647e-05
8.82132e-06
1.56417e-05
2.33011e-05
2.73336e-05
2.72264e-05
2.21208e-05
1.83643e-05
1.91722e-05
2.35087e-05
2.53714e-05
2.13694e-05
2.0429e-05
2.76844e-05
3.33588e-05
3.22999e-05
2.60217e-05
1.84089e-05
1.27372e-05
1.40365e-05
1.72178e-05
1.42729e-05
1.26828e-05
1.50965e-05
1.47302e-05
1.15142e-05
1.56605e-05
2.26843e-05
2.60822e-05
2.45206e-05
1.91424e-05
1.23489e-05
6.82726e-06
9.46089e-06
1.36588e-05
1.54924e-05
1.77429e-05
1.98263e-05
1.7144e-05
1.17592e-05
9.3718e-06
5.11419e-06
7.49915e-06
1.89037e-05
2.6611e-05
2.89458e-05
2.59046e-05
2.08299e-05
1.9505e-05
2.09508e-05
2.04882e-05
1.63067e-05
1.47438e-05
1.9069e-05
2.37831e-05
2.7429e-05
2.96514e-05
2.8981e-05
2.51428e-05
2.06026e-05
1.20268e-05
1.14364e-05
1.05598e-05
9.37728e-06
1.13235e-05
1.36793e-05
1.39265e-05
1.59002e-05
1.99781e-05
2.32664e-05
2.32793e-05
2.06688e-05
1.99881e-05
2.19489e-05
2.39566e-05
2.52235e-05
2.38112e-05
1.96487e-05
1.62078e-05
1.30785e-05
8.68978e-06
5.81818e-06
6.7086e-06
8.42665e-06
1.29509e-05
2.00864e-05
2.29938e-05
2.01935e-05
1.83549e-05
1.81946e-05
1.47979e-05
1.24341e-05
1.26416e-05
9.38311e-06
5.17893e-06
7.65521e-06
1.14827e-05
1.61557e-05
1.78982e-05
1.49727e-05
1.10919e-05
1.05207e-05
9.29055e-06
1.06195e-05
1.30588e-05
1.30883e-05
1.00531e-05
8.34979e-06
1.24032e-05
1.49496e-05
1.40206e-05
1.4332e-05
1.5127e-05
1.28673e-05
9.8753e-06
9.87411e-06
1.32711e-05
1.64575e-05
1.56823e-05
1.2682e-05
1.16116e-05
1.14392e-05
1.44859e-05
2.11754e-05
2.50876e-05
2.41665e-05
2.08664e-05
1.63957e-05
1.2045e-05
1.13318e-05
1.41526e-05
1.7405e-05
1.83704e-05
1.55035e-05
1.0563e-05
9.0531e-06
1.07906e-05
1.14726e-05
1.04725e-05
1.01666e-05
1.58954e-05
1.85287e-05
1.79243e-05
1.68721e-05
1.84017e-05
2.16677e-05
2.3435e-05
2.39638e-05
2.43132e-05
2.27972e-05
1.78889e-05
1.17432e-05
1.15564e-05
1.41398e-05
1.30411e-05
9.91538e-06
1.19879e-05
1.68771e-05
1.85973e-05
1.78771e-05
1.72726e-05
1.58127e-05
1.68411e-05
2.46488e-05
2.93857e-05
2.60419e-05
2.04933e-05
1.78294e-05
1.61183e-05
1.69733e-05
2.18485e-05
2.66456e-05
2.6346e-05
2.19258e-05
1.79857e-05
1.24381e-05
7.44389e-06
8.04066e-06
6.8753e-06
9.43223e-06
5.02013e-05
5.49197e-05
5.97205e-05
6.3987e-05
6.75915e-05
7.00244e-05
7.0907e-05
7.06081e-05
6.99568e-05
6.91549e-05
6.77017e-05
6.57313e-05
6.43233e-05
6.41446e-05
6.48295e-05
6.56431e-05
6.63019e-05
6.71933e-05
6.88729e-05
7.11274e-05
7.30093e-05
7.40258e-05
7.4605e-05
7.56326e-05
7.79886e-05
8.15658e-05
8.48585e-05
8.63767e-05
8.56946e-05
8.33366e-05
7.95976e-05
7.39633e-05
6.55496e-05
5.60199e-05
4.90762e-05
4.54556e-05
4.38334e-05
4.33825e-05
4.41028e-05
4.64076e-05
4.83498e-05
5.28888e-05
5.81335e-05
6.36429e-05
6.88431e-05
7.27273e-05
7.47437e-05
7.51071e-05
7.44062e-05
7.30316e-05
7.12984e-05
6.96707e-05
6.86012e-05
6.81384e-05
6.79913e-05
6.78032e-05
6.76522e-05
6.81414e-05
6.96303e-05
7.15891e-05
7.31602e-05
7.40644e-05
7.48409e-05
7.64581e-05
7.96735e-05
8.39607e-05
8.76681e-05
8.96646e-05
8.93593e-05
8.71412e-05
8.4088e-05
8.01768e-05
7.36197e-05
6.38434e-05
5.38556e-05
4.70857e-05
4.37209e-05
4.26116e-05
4.30711e-05
4.4964e-05
4.44811e-05
4.90731e-05
5.4926e-05
6.14986e-05
6.80185e-05
7.3456e-05
7.70042e-05
7.85716e-05
7.84514e-05
7.72304e-05
7.57932e-05
7.46704e-05
7.37705e-05
7.28381e-05
7.17953e-05
7.0516e-05
6.90238e-05
6.80188e-05
6.81701e-05
6.92261e-05
7.0372e-05
7.1138e-05
7.18558e-05
7.34738e-05
7.68543e-05
8.16534e-05
8.6343e-05
8.9834e-05
9.10466e-05
8.98263e-05
8.80078e-05
8.66665e-05
8.35884e-05
7.51561e-05
6.19155e-05
5.01126e-05
4.34592e-05
4.08761e-05
4.03624e-05
4.1506e-05
3.96372e-05
4.40641e-05
5.00773e-05
5.71599e-05
6.44987e-05
7.12694e-05
7.65249e-05
7.98568e-05
8.11108e-05
8.07299e-05
7.99863e-05
7.97116e-05
7.94743e-05
7.85697e-05
7.70072e-05
7.48432e-05
7.17624e-05
6.82757e-05
6.56537e-05
6.45409e-05
6.44021e-05
6.44579e-05
6.46437e-05
6.57296e-05
6.87109e-05
7.36698e-05
7.93982e-05
8.49509e-05
8.88226e-05
8.94219e-05
8.86707e-05
8.96047e-05
9.10719e-05
8.71395e-05
7.3692e-05
5.6515e-05
4.45521e-05
3.91523e-05
3.70428e-05
3.72058e-05
3.43149e-05
3.81268e-05
4.36169e-05
5.0194e-05
5.72478e-05
6.43545e-05
7.08066e-05
7.61061e-05
7.96028e-05
8.09785e-05
8.13239e-05
8.21198e-05
8.32617e-05
8.35049e-05
8.24712e-05
8.03713e-05
7.651e-05
7.05687e-05
6.40627e-05
5.89902e-05
5.57903e-05
5.36775e-05
5.22593e-05
5.20044e-05
5.39983e-05
5.86094e-05
6.46915e-05
7.19521e-05
7.95568e-05
8.34965e-05
8.35068e-05
8.52707e-05
9.11069e-05
9.48036e-05
8.70347e-05
6.79752e-05
4.95199e-05
3.92629e-05
3.44811e-05
3.29253e-05
2.94622e-05
3.23748e-05
3.69442e-05
4.18526e-05
4.6883e-05
5.21409e-05
5.78203e-05
6.41147e-05
7.02568e-05
7.44895e-05
7.65652e-05
7.82673e-05
8.08556e-05
8.33425e-05
8.44973e-05
8.4224e-05
8.15943e-05
7.50552e-05
6.53647e-05
5.55501e-05
4.75974e-05
4.1383e-05
3.69723e-05
3.51969e-05
3.68561e-05
4.13291e-05
4.59268e-05
5.04673e-05
6.0147e-05
6.98854e-05
7.13973e-05
7.12253e-05
7.90311e-05
9.17326e-05
9.58367e-05
8.26743e-05
6.033e-05
4.33497e-05
3.44316e-05
3.00034e-05
2.64275e-05
2.78404e-05
3.20081e-05
3.54315e-05
3.77697e-05
3.92425e-05
4.04052e-05
4.33287e-05
4.95072e-05
5.68153e-05
6.18638e-05
6.44486e-05
6.72906e-05
7.16097e-05
7.6125e-05
7.98441e-05
8.14168e-05
7.77838e-05
6.8026e-05
5.53892e-05
4.35496e-05
3.37469e-05
2.70602e-05
2.46673e-05
2.66207e-05
3.18661e-05
3.7089e-05
3.71866e-05
3.58633e-05
4.77235e-05
5.38711e-05
4.8314e-05
5.17381e-05
7.13335e-05
9.11662e-05
9.32683e-05
7.57277e-05
5.32581e-05
3.85755e-05
3.03477e-05
2.74991e-05
2.46679e-05
2.79451e-05
3.15219e-05
3.28438e-05
3.22532e-05
3.01273e-05
2.79916e-05
2.90597e-05
3.25861e-05
3.71531e-05
3.99669e-05
4.04175e-05
4.21521e-05
4.77529e-05
5.71959e-05
6.70257e-05
7.09788e-05
6.59135e-05
5.44039e-05
4.24203e-05
3.36153e-05
2.83083e-05
2.53876e-05
2.48523e-05
2.79589e-05
3.34216e-05
3.43435e-05
3.11457e-05
2.76048e-05
3.69065e-05
2.9351e-05
1.78143e-05
3.00634e-05
6.3708e-05
8.8434e-05
8.82051e-05
6.9099e-05
4.83714e-05
3.55131e-05
3.47129e-05
2.62518e-05
2.35896e-05
2.73479e-05
3.06842e-05
3.09637e-05
2.89746e-05
2.54434e-05
2.28251e-05
2.41484e-05
2.35022e-05
2.16025e-05
1.90153e-05
1.91809e-05
2.42001e-05
2.48142e-05
2.99221e-05
4.5414e-05
5.24399e-05
4.75025e-05
3.85631e-05
3.35982e-05
3.41478e-05
3.67944e-05
3.73218e-05
3.45531e-05
3.48257e-05
3.86072e-05
3.01155e-05
2.69127e-05
2.30928e-05
2.86763e-05
8.84805e-06
2.04309e-05
2.07567e-05
5.81238e-05
8.48479e-05
8.41297e-05
6.4698e-05
4.57954e-05
4.51166e-05
3.53906e-05
2.53293e-05
2.22532e-05
2.78542e-05
3.27532e-05
3.26089e-05
2.90963e-05
2.38543e-05
2.00792e-05
2.12847e-05
2.07935e-05
1.96732e-05
2.20226e-05
2.98666e-05
3.79512e-05
3.2825e-05
1.58619e-05
2.59333e-05
3.46368e-05
3.23803e-05
2.93927e-05
3.23694e-05
3.899e-05
4.39132e-05
4.05914e-05
3.1175e-05
3.261e-05
3.77629e-05
2.14623e-05
2.36746e-05
1.95985e-05
2.78308e-05
6.83252e-06
3.046e-05
1.93279e-05
5.45525e-05
8.32808e-05
8.15362e-05
6.08646e-05
5.56832e-05
4.47973e-05
3.47692e-05
2.26439e-05
2.21552e-05
3.0961e-05
3.64509e-05
3.5613e-05
3.00083e-05
2.09394e-05
1.58842e-05
1.89499e-05
2.00164e-05
1.71562e-05
1.44574e-05
2.05485e-05
3.19722e-05
2.9571e-05
1.1913e-05
2.04706e-05
2.79554e-05
2.74499e-05
2.82125e-05
3.12188e-05
3.5008e-05
3.72618e-05
2.80996e-05
1.7435e-05
2.41958e-05
2.62641e-05
1.568e-05
2.02436e-05
1.75527e-05
2.66505e-05
1.31877e-05
3.49185e-05
1.98546e-05
5.41484e-05
8.23456e-05
7.58715e-05
6.51023e-05
4.93754e-05
4.04062e-05
2.84823e-05
1.89402e-05
2.41372e-05
3.2793e-05
3.72219e-05