/*--------------------------------*- C++ -*----------------------------------*\
| =========                 |                                                 |
| \\      /  F ield         | OpenFOAM: The Open Source CFD Toolbox           |
|  \\    /   O peration     | Version:  2306                                  |
|   \\  /    A nd           | Website:  www.openfoam.com                      |
|    \\/     M anipulation  |                                                 |
\*---------------------------------------------------------------------------*/
FoamFile
{
    version     2.0;
    format      ascii;
    arch        "LSB;label=32;scalar=64";
    class       surfaceScalarField;
    location    "4.5";
    object      phi;
}
// * * * * * * * * * * * * * * * * * * * * * * * * * * * * * * * * * * * * * //

dimensions      [0 3 -1 0 0 0 0];

oriented        oriented;

internalField   nonuniform List<scalar> 
175300
(
6.14046e-06
7.94417e-07
3.75494e-07
6.30619e-06
1.04408e-06
8.46713e-07
6.24847e-06
9.8146e-07
1.45783e-06
6.0564e-06
5.86333e-07
2.02219e-06
5.86711e-06
1.35984e-07
2.29435e-06
5.73259e-06
-1.05263e-07
2.23549e-06
5.62117e-06
-1.05951e-07
1.93544e-06
5.50172e-06
-1.3334e-08
1.53166e-06
5.34994e-06
1.57528e-08
1.19614e-06
5.09289e-06
-1.13187e-08
1.07e-06
4.66259e-06
-4.59562e-08
1.14378e-06
4.139e-06
-1.29681e-07
1.28378e-06
3.71443e-06
-2.90843e-07
1.36103e-06
3.51711e-06
-4.8704e-07
1.36379e-06
3.53246e-06
-6.74842e-07
1.30528e-06
3.66477e-06
-7.82514e-07
1.15377e-06
3.78197e-06
-6.73671e-07
8.77852e-07
3.84914e-06
-3.85974e-07
5.13541e-07
3.96215e-06
-1.19518e-07
1.42281e-07
4.16932e-06
6.84958e-08
-1.65007e-07
4.39885e-06
2.53381e-07
-4.00034e-07
4.58571e-06
3.55914e-07
-5.56726e-07
4.75742e-06
2.35054e-07
-6.33974e-07
4.97754e-06
-1.43471e-07
-7.07601e-07
5.27544e-06
-5.10121e-07
-9.2784e-07
5.57562e-06
-6.29538e-07
-1.31263e-06
5.72856e-06
-4.97152e-07
-1.64621e-06
5.64275e-06
-2.35592e-07
-1.81952e-06
5.31084e-06
1.04524e-07
-1.98014e-06
4.79111e-06
3.79417e-07
-2.10235e-06
4.28993e-06
2.67208e-07
-2.00288e-06
3.99596e-06
-1.18125e-07
-1.82332e-06
3.88077e-06
-3.0545e-07
-1.79667e-06
3.89073e-06
-2.30654e-07
-1.84445e-06
4.02701e-06
-7.85795e-08
-1.71905e-06
4.25387e-06
1.7212e-07
-1.35815e-06
4.52302e-06
5.19009e-07
-9.08291e-07
4.84347e-06
7.71229e-07
-5.27306e-07
5.26539e-06
7.38647e-07
-2.30434e-07
6.36972e-07
6.85522e-08
2.03059e-05
2.36025e-06
1.57239e-06
2.10431e-05
2.96229e-06
3.09645e-06
2.11346e-05
2.57468e-06
4.82159e-06
2.06718e-05
1.33391e-06
6.15777e-06
2.00057e-05
9.92353e-08
6.64201e-06
1.94375e-05
-4.86587e-07
6.3595e-06
1.90073e-05
-4.34531e-07
5.58031e-06
1.86113e-05
-1.68973e-07
4.58226e-06
1.80955e-05
-5.92339e-08
3.71303e-06
1.72264e-05
-7.81829e-08
3.30058e-06
1.58639e-05
-1.52776e-07
3.3934e-06
1.42615e-05
-4.69452e-07
3.75494e-06
1.29374e-05
-1.11897e-06
4.0731e-06
1.22248e-05
-1.92576e-06
4.17434e-06
1.20792e-05
-2.5797e-06
3.96755e-06
1.22245e-05
-2.7631e-06
3.40092e-06
1.23943e-05
-2.21435e-06
2.51025e-06
1.25901e-05
-1.22588e-06
1.46709e-06
1.29947e-05
-3.81536e-07
4.69873e-07
1.36387e-05
2.0638e-07
-3.58122e-07
1.43681e-05
6.95737e-07
-9.9826e-07
1.51031e-05
8.39383e-07
-1.44467e-06
1.59175e-05
1.36579e-07
-1.7027e-06
1.69078e-05
-1.2635e-06
-2.00338e-06
1.80282e-05
-2.45352e-06
-2.69742e-06
1.90055e-05
-2.72454e-06
-3.7507e-06
1.9442e-05
-2.11626e-06
-4.64044e-06
1.90876e-05
-1.03198e-06
-5.1334e-06
1.79874e-05
1.98487e-07
-5.47265e-06
1.64546e-05
9.63678e-07
-5.56791e-06
1.50041e-05
4.72436e-07
-5.26522e-06
1.39369e-05
-6.51245e-07
-5.04374e-06
1.32437e-05
-1.08508e-06
-5.25198e-06
1.29976e-05
-8.20525e-07
-5.42624e-06
1.32828e-05
-3.54608e-07
-4.93194e-06
1.39679e-05
4.79442e-07
-3.77419e-06
1.48899e-05
1.61437e-06
-2.45989e-06
1.6052e-05
2.38928e-06
-1.37075e-06
1.7488e-05
2.20549e-06
-4.56135e-07
1.92512e-06
4.47624e-07
3.74817e-05
3.67522e-06
2.55518e-06
3.92723e-05
4.68463e-06
5.23841e-06
3.99467e-05
3.85747e-06
8.16564e-06
3.93721e-05
1.66382e-06
1.03291e-05
3.80605e-05
-3.32455e-07
1.105e-05
3.67792e-05
-1.15776e-06
1.05661e-05
3.58567e-05
-9.82108e-07
9.42067e-06
3.51346e-05
-5.27232e-07
8.0011e-06
3.42698e-05
-3.04465e-07
6.67275e-06
3.2853e-05
-2.56545e-07
5.8317e-06
3.06291e-05
-3.03153e-07
5.65391e-06
2.78888e-05
-8.27935e-07
6.0279e-06
2.53656e-05
-2.09972e-06
6.6422e-06
2.36751e-05
-3.83914e-06
7.06069e-06
2.29225e-05
-5.28683e-06
6.88477e-06
2.27607e-05
-5.65663e-06
6.00857e-06
2.28103e-05
-4.53244e-06
4.5943e-06
2.30783e-05
-2.60317e-06
2.94735e-06
2.37787e-05
-9.77725e-07
1.35723e-06
2.49009e-05
1.44347e-07
1.41219e-08
2.6231e-05
9.97231e-07
-1.05569e-06
2.76975e-05
9.56118e-07
-1.77366e-06
2.94146e-05
-8.6852e-07
-2.13529e-06
3.14798e-05
-4.03577e-06
-2.54125e-06
3.37415e-05
-6.59653e-06
-3.62835e-06
3.57037e-05
-7.07734e-06
-5.41802e-06
3.66885e-05
-5.56183e-06
-7.08006e-06
3.6252e-05
-2.95855e-06
-8.09401e-06
3.44834e-05
-1.79745e-07
-8.65153e-06
3.19639e-05
1.39726e-06
-8.63695e-06
2.94621e-05
4.5853e-07
-8.04615e-06
2.73225e-05
-1.57459e-06
-7.7695e-06
2.55541e-05
-2.28735e-06
-8.34373e-06
2.44786e-05
-1.79525e-06
-8.9597e-06
2.44899e-05
-1.03854e-06
-8.45917e-06
2.54838e-05
4.18398e-07
-6.70059e-06
2.71273e-05
2.58008e-06
-4.54283e-06
2.93213e-05
4.02758e-06
-2.71165e-06
3.20262e-05
3.60056e-06
-1.14925e-06
2.92988e-06
5.24917e-07
5.73286e-05
3.22862e-06
2.29305e-06
6.086e-05
4.92805e-06
6.21327e-06
6.28398e-05
3.87182e-06
1.06505e-05
6.25915e-05
9.87339e-07
1.41101e-05
6.05654e-05
-1.39778e-06
1.54399e-05
5.82042e-05
-2.13967e-06
1.48626e-05
5.6514e-05
-1.69845e-06
1.33783e-05
5.5415e-05
-1.06026e-06
1.16977e-05
5.43148e-05
-7.41913e-07
1.01219e-05
5.25917e-05
-5.95295e-07
8.84393e-06
4.98103e-05
-5.03639e-07
8.04054e-06
4.60916e-05
-1.00279e-06
7.94515e-06
4.2126e-05
-2.6631e-06
8.656e-06
3.87736e-05
-5.36176e-06
9.66029e-06
3.65959e-05
-7.9677e-06
9.97391e-06
3.55067e-05
-9.00032e-06
9.13848e-06
3.50765e-05
-7.58695e-06
7.4337e-06
3.52278e-05
-4.74126e-06
5.35129e-06
3.61328e-05
-2.21624e-06
3.24907e-06
3.77052e-05
-4.13128e-07
1.41131e-06
3.96581e-05
7.39368e-07
1.05418e-07
4.19208e-05
3.19642e-07
-8.37372e-07
4.46531e-05
-3.23181e-06
-1.07361e-06
4.79963e-05
-9.17558e-06
-1.19423e-06
5.17569e-05
-1.40268e-05
-2.38449e-06
5.52256e-05
-1.5017e-05
-5.03923e-06
5.7369e-05
-1.2112e-05
-8.0235e-06
5.74365e-05
-7.04384e-06
-1.01862e-05
5.54483e-05
-1.72644e-06
-1.1415e-05
5.21816e-05
1.33605e-06
-1.14632e-05
4.86575e-05
1.7397e-07
-1.03984e-05
4.5286e-05
-2.7922e-06
-9.69183e-06
4.19877e-05
-3.78602e-06
-1.04838e-05
3.9233e-05
-3.04252e-06
-1.19068e-05
3.7999e-05
-2.19776e-06
-1.21842e-05
3.86607e-05
-5.28263e-07
-1.05494e-05
4.0815e-05
2.45671e-06
-7.88115e-06
4.40995e-05
4.47655e-06
-5.39544e-06
4.83101e-05
3.69266e-06
-3.24163e-06
2.11821e-06
-6.13434e-07
7.84055e-05
-1.80799e-06
-4.07438e-07
8.45346e-05
1.58216e-06
4.48627e-06
8.8949e-05
1.08757e-06
1.08321e-05
9.00306e-05
-1.72049e-06
1.64741e-05
8.76179e-05
-3.61254e-06
1.93757e-05
8.38463e-05
-3.56882e-06
1.91812e-05
8.09822e-05
-2.53736e-06
1.73027e-05
7.94113e-05
-1.66899e-06
1.53295e-05
7.82556e-05
-1.31953e-06
1.38241e-05
7.65865e-05
-1.12853e-06
1.25126e-05
7.37607e-05
-8.48987e-07
1.10227e-05
6.95914e-05
-9.95554e-07
9.79569e-06
6.4386e-05
-2.44065e-06
9.88832e-06
5.88764e-05
-5.60453e-06
1.14203e-05
5.4163e-05
-9.42406e-06
1.28158e-05
5.10049e-05
-1.17984e-05
1.26314e-05
4.93182e-05
-1.09329e-05
1.09931e-05
4.8897e-05
-7.63925e-06
8.73623e-06
4.97264e-05
-4.2951e-06
6.35802e-06
5.15418e-05
-1.65961e-06
4.19828e-06
5.39059e-05
5.28885e-08
2.60917e-06
5.66832e-05
-9.40498e-07
1.94073e-06
6.007e-05
-7.00837e-06
2.45933e-06
6.4405e-05
-1.70783e-05
3.49732e-06
6.97903e-05
-2.59139e-05
3.04263e-06
7.5535e-05
-2.84881e-05
-3.21113e-07
8.00604e-05
-2.38933e-05
-5.52098e-06
8.19283e-05
-1.50754e-05
-1.01713e-05
8.07995e-05
-5.65153e-06
-1.3274e-05
7.74641e-05
1.75787e-07
-1.41433e-05
7.32091e-05
-5.45838e-07
-1.26373e-05
6.86978e-05
-4.22746e-06
-1.09281e-05
6.38222e-05
-5.40462e-06
-1.13616e-05
5.88408e-05
-4.25618e-06
-1.35167e-05
5.50617e-05
-3.37313e-06
-1.52105e-05
5.38536e-05
-2.09814e-06
-1.48661e-05
5.54365e-05
8.57309e-07
-1.27554e-05
5.93109e-05
2.87266e-06
-1.02693e-05
6.49585e-05
1.00727e-06
-7.93733e-06
-2.26141e-06
-4.98038e-06
9.71492e-05
-1.26587e-05
-8.78014e-06
0.000106515
-9.39032e-06
-1.78341e-06
0.000115102
-7.45e-06
6.04049e-06
0.000119652
-8.67835e-06
1.50269e-05
0.000118215
-8.31913e-06
2.13811e-05
0.00011313
-5.99541e-06
2.31376e-05
0.000108634
-3.65178e-06
2.12259e-05
0.000106433
-2.37025e-06
1.85713e-05
0.000105459
-1.99793e-06
1.71168e-05
0.000104247
-1.8658e-06
1.6551e-05
0.000101946
-1.51186e-06
1.51482e-05
9.81668e-05
-1.13647e-06
1.24906e-05
9.26763e-05
-1.65593e-06
1.07594e-05
8.54555e-05
-4.28593e-06
1.19488e-05
7.74822e-05
-8.63595e-06
1.46814e-05
7.06499e-05
-1.25259e-05
1.59778e-05
6.61816e-05
-1.32763e-05
1.49309e-05
6.41984e-05
-1.06078e-05
1.27354e-05
6.43534e-05
-6.9179e-06
1.03185e-05
6.59576e-05
-3.39031e-06
8.10304e-06
6.82097e-05
-7.72478e-07
6.56838e-06
7.07507e-05
-2.22421e-06
6.47052e-06
7.37104e-05
-1.14499e-05
8.49198e-06
7.75967e-05
-2.69933e-05
1.17231e-05
8.32456e-05
-4.15183e-05
1.3313e-05
9.12057e-05
-4.79455e-05
1.05943e-05
0.00010008
-4.36316e-05
3.64649e-06
0.00010666
-3.01212e-05
-5.41528e-06
0.00010885
-1.42104e-05
-1.26841e-05
0.000107041
-3.33177e-06
-1.61739e-05
0.000102826
-2.21103e-06
-1.50864e-05
9.75179e-05
-5.98429e-06
-1.20854e-05
9.14878e-05
-7.06322e-06
-1.12866e-05
8.46993e-05
-5.22214e-06
-1.34526e-05
7.79879e-05
-3.9172e-06
-1.63817e-05
7.32389e-05
-2.9788e-06
-1.79925e-05
7.19361e-05
-7.8296e-07
-1.7885e-05
7.44117e-05
-1.16273e-07
-1.6992e-05
8.01902e-05
-4.68201e-06
-1.57555e-05
-1.13224e-05
-1.32791e-05
0.000110708
-2.74889e-05
-2.09724e-05
0.000120636
-2.47043e-05
-1.49485e-05
0.000133441
-2.35446e-05
-5.92336e-06
0.000145122
-2.3915e-05
6.02248e-06
0.000148668
-1.90185e-05
1.80302e-05
0.000143924
-1.11448e-05
2.498e-05
0.000137665
-5.67547e-06
2.51004e-05
0.000134677
-3.61541e-06
2.16297e-05
0.000134312
-3.09707e-06
1.92735e-05
0.000134076
-2.88774e-06
1.97124e-05
0.000132702
-2.61133e-06
2.01162e-05
0.00013006
-1.96837e-06
1.71247e-05
0.000125787
-1.27515e-06
1.26362e-05
0.00011877
-2.38482e-06
1.16934e-05
0.000108513
-5.88899e-06
1.49999e-05
9.70136e-05
-1.02168e-05
1.84306e-05
8.759e-05
-1.27664e-05
1.88166e-05
8.21713e-05
-1.20747e-05
1.69592e-05
8.05663e-05
-9.15996e-06
1.45253e-05
8.1405e-05
-5.00565e-06
1.2256e-05
8.32741e-05
-1.15929e-06
1.06998e-05
8.54667e-05
-2.77921e-06
1.09473e-05
8.77897e-05
-1.50839e-05
1.40722e-05
9.02561e-05
-3.60308e-05
1.92871e-05
9.35553e-05
-5.64302e-05
2.36353e-05
9.9805e-05
-6.80646e-05
2.37624e-05
0.000110839
-6.67978e-05
1.77538e-05
0.000124337
-5.26973e-05
6.69371e-06
0.000134499
-3.033e-05
-6.71921e-06
0.000137887
-1.15545e-05
-1.56724e-05
0.000135499
-5.93322e-06
-1.7196e-05
0.000129942
-8.2592e-06
-1.37404e-05
0.000123311
-8.60901e-06
-1.11173e-05
0.000115977
-5.91051e-06
-1.2141e-05
0.000107816
-3.82741e-06
-1.53255e-05
0.000100001
-2.31967e-06
-1.83806e-05
9.44879e-05
-1.0819e-07
-2.06299e-05
9.28578e-05
-1.27265e-06
-2.26909e-05
9.58202e-05
-1.03705e-05
-2.44766e-05
-2.27603e-05
-2.42452e-05
0.000125004
-4.10012e-05
-3.40448e-05
0.000131286
-3.91453e-05
-2.9586e-05
0.000142551
-3.98326e-05
-2.12121e-05
0.000159547
-4.46261e-05
-8.96651e-06
0.000172184
-3.90409e-05
7.29491e-06
0.000171735
-2.20319e-05
2.15531e-05
0.000164185
-9.2937e-06
2.74377e-05
0.00016012
-5.92311e-06
2.49253e-05
0.000161436
-5.95021e-06
2.0338e-05
0.000163525
-5.03093e-06
2.01333e-05
0.000163409
-4.06237e-06
2.34433e-05
0.000161872
-3.64761e-06
2.31869e-05
0.000159984
-2.77074e-06
1.71468e-05
0.000156097
-2.44557e-06
1.23424e-05
0.000147131
-3.92754e-06
1.42121e-05
0.000132648
-6.40862e-06
1.94408e-05
0.00011695
-8.69203e-06
2.21173e-05
0.000105452
-1.00809e-05
2.12204e-05
0.000100119
-9.49661e-06
1.8827e-05
9.94396e-05
-5.9489e-06
1.63745e-05
0.000101256
-1.21146e-06
1.44162e-05
0.000104301
-2.57602e-06
1.39381e-05
0.00010758
-1.66735e-05
1.64911e-05
0.000109933
-4.07229e-05
2.18827e-05
0.000110778
-6.47649e-05
2.80818e-05
0.000112105
-8.07462e-05
3.23061e-05
0.000118709
-8.4219e-05
3.08304e-05
0.000133298
-7.37193e-05
2.14483e-05
0.000151403
-5.08283e-05
6.01527e-06
0.000164229
-2.60136e-05
-9.84682e-06
0.000166894
-1.3037e-05
-1.68368e-05
0.000161711
-1.05123e-05
-1.54601e-05
0.000154521
-9.1839e-06
-1.16232e-05
0.000148132
-6.53739e-06
-1.02394e-05
0.000141383
-3.89974e-06
-1.21864e-05
0.000133655
-6.18189e-07
-1.55685e-05
0.00012623
3.52072e-06
-1.92963e-05
0.000120569
2.33445e-06
-2.40302e-05
0.000118208
-1.08184e-05
-2.97954e-05
-3.06369e-05
-3.40755e-05
0.000146409
-4.74974e-05
-4.44425e-05
0.000148409
-4.86545e-05
-4.39709e-05
0.000154553
-4.96393e-05
-3.63781e-05
0.000169311
-6.09465e-05
-2.31262e-05
0.000188158
-6.24905e-05
-6.27012e-06
0.000196197
-4.14714e-05
1.33307e-05
0.000189444
-1.60979e-05
2.60183e-05
0.000181056
-6.97757e-06
2.73297e-05
0.00018228
-9.99019e-06
2.10436e-05
0.000189354
-1.09315e-05
1.7245e-05
0.00019221
-6.49744e-06
2.11468e-05
0.000189344
-2.93729e-06
2.54175e-05
0.000187422
-3.76835e-06
2.18325e-05
0.000189041
-7.1779e-06
1.46273e-05
0.000187823
-9.06677e-06
1.36657e-05
0.000176679
-7.23727e-06
1.93589e-05
0.000157219
-4.36609e-06
2.43987e-05
0.000138055
-4.18258e-06
2.50775e-05
0.000126053
-5.80583e-06
2.31078e-05
0.000121888
-4.89391e-06
2.07578e-05
0.000123053
-1.13726e-06
1.86028e-05
0.000127323
-2.68103e-06
1.69213e-05
0.000132624
-1.72936e-05
1.73225e-05
0.000136621
-4.14058e-05
2.06584e-05
0.000137411
-6.55351e-05
2.6714e-05
0.000135124
-8.291e-05
3.40556e-05
0.000134726
-8.99552e-05
3.87422e-05
0.000143734
-8.59151e-05
3.47296e-05
0.000163272
-6.95242e-05
1.98973e-05
0.000183631
-4.50188e-05
8.12846e-07
0.000191049
-2.26172e-05
-1.26406e-05
0.000182161
-7.86184e-06
-1.54303e-05
0.00016884
-2.18123e-06
-1.21357e-05
0.000162765
-4.77099e-06
-7.87242e-06
0.00016349
-7.61312e-06
-6.55018e-06
0.000164326
-3.19064e-06
-8.7302e-06
0.000162158
6.32435e-06
-1.31724e-05
0.000157702
9.04937e-06
-1.95268e-05
0.00015188
-4.07431e-06
-2.84106e-05
-2.92645e-05
-3.81887e-05
0.000176934
-4.2398e-05
-4.78703e-05
0.000173471
-5.00187e-05
-5.54585e-05
0.000175203
-5.18188e-05
-5.19817e-05
0.000184219
-6.61468e-05
-3.83928e-05
0.000201806
-7.9336e-05
-1.94832e-05
0.000217997
-6.64771e-05
2.13558e-06
0.000219551
-3.25611e-05
2.05652e-05
0.000208972
-9.75148e-06
2.73669e-05
0.000201963
-1.00842e-05
2.20926e-05
0.000208011
-1.781e-05
1.40151e-05
0.000218052
-1.46653e-05
1.40776e-05
0.000218079
-2.38994e-06
1.99811e-05
0.000210465
2.88039e-06
2.06959e-05
0.000209266
-7.3415e-06
1.48318e-05
0.000217219
-2.14393e-05
1.21704e-05
0.000219704
-2.16513e-05
1.78328e-05
0.000205975
-9.1603e-06
2.52213e-05
0.000182675
9.51386e-07
2.77775e-05
0.000162346
2.62445e-06
2.64508e-05
0.000151251
1.22969e-06
2.49155e-05
0.00014929
6.73106e-07
2.39327e-05
0.000154115
-4.71466e-06
2.16911e-05
0.000162035
-2.11483e-05
1.85032e-05
0.000168589
-4.30358e-05
1.70016e-05
0.000170601
-6.27483e-05
2.04677e-05
0.000167219
-7.73765e-05
2.93412e-05
0.000161487
-8.43837e-05
3.96801e-05
0.000162323
-8.56696e-05
4.27581e-05
0.000176711
-7.97826e-05
3.13573e-05
0.000197768
-6.23093e-05
1.07081e-05
0.00020756
-3.28372e-05
-7.63074e-06
0.000196922
-2.68668e-06
-1.46627e-05
0.000177692
1.19825e-05
-1.27878e-05
0.000166752
5.08296e-06
-5.93923e-06
0.000169137
-8.16685e-06
5.67299e-07
0.000179006
-9.01075e-06
2.24999e-06
0.0001887
2.94415e-06
-9.41445e-07
0.00019389
1.20411e-05
-8.23972e-06
0.00019235
5.37898e-06
-1.93781e-05
-1.83116e-05
-3.38885e-05
0.000216064
-2.62126e-05
-4.23007e-05
0.000205478
-3.99747e-05
-5.97689e-05
0.00020227
-4.67927e-05
-6.53933e-05
0.00020741
-6.25436e-05
-5.52309e-05
0.000219979
-8.3594e-05
-3.50094e-05
0.000237201
-8.55793e-05
-1.21032e-05
0.000248563
-5.81856e-05
1.04232e-05
0.000245586
-2.34367e-05
2.36458e-05
0.000233422
-9.98286e-06
2.28927e-05
0.000227162
-1.6662e-05
1.31358e-05
0.000234879
-2.17456e-05
7.34711e-06
0.000245372
-1.03904e-05
1.10371e-05
0.000244041
5.23293e-06
1.58004e-05
0.000235615
8.72533e-07
1.3958e-05
0.000237275
-2.4775e-05
1.03682e-05
0.000249301
-4.20708e-05
1.42422e-05
0.000251575
-2.97689e-05
2.32941e-05
0.000235076
-4.68015e-06
2.83104e-05
0.000210804
1.05454e-05
2.76091e-05
0.000191256
1.37842e-05
2.69543e-05
0.000182177
8.83883e-06
2.89436e-05
0.000184617
-6.00661e-06
2.83506e-05
0.000195081
-3.01902e-05
2.12223e-05
0.000206112
-5.11411e-05
1.15912e-05
0.000210972
-6.20329e-05
8.5023e-06
0.000207436
-6.85448e-05
1.72846e-05
0.000197678
-7.15029e-05
3.34018e-05
0.000189957
-7.40369e-05
4.50711e-05
0.00019474
-7.70852e-05
3.98337e-05
0.000210943
-7.05896e-05
1.93553e-05
0.000221931
-4.12143e-05
-2.01474e-06
0.000214758
4.27767e-07
-1.32497e-05
0.000196598
2.53832e-05
-1.43834e-05
0.000182621
1.84395e-05
-7.39695e-06
0.000180473
-2.18153e-06
3.03949e-06
0.000188867
-1.07683e-05
1.1298e-05
0.000203001
-1.74681e-06
1.35631e-05
0.000218177
9.27973e-06
9.42951e-06
0.000228043
9.45096e-06
-2.35265e-06
-4.48374e-06
-2.10181e-05
0.000259815
-6.92493e-06
-2.93467e-05
0.000245452
-1.95744e-05
-5.57275e-05
0.000235965
-3.43457e-05
-7.18326e-05
0.000238154
-5.47328e-05
-7.00337e-05
0.000247717
-7.83197e-05
-5.25626e-05
0.00026039
-9.16881e-05
-2.87103e-05
0.000273523
-8.01431e-05
-4.48221e-06
0.000279248
-4.78397e-05
1.52399e-05
0.000271854
-1.87296e-05
2.11001e-05
0.000258107
-1.14158e-05
1.32246e-05
0.000253552
-1.81776e-05
3.51144e-06
0.000263639
-1.79999e-05
4.07335e-06
0.00027483
-5.24835e-06
1.18164e-05
0.000273338
4.15351e-07
1.49488e-05
0.000266027
-1.89942e-05
1.10614e-05
0.000270036
-4.92349e-05
1.03872e-05
0.000281981
-5.36449e-05
1.82202e-05
0.000282136
-2.58244e-05
2.56921e-05
0.000265281
7.1239e-06
2.62709e-05
0.000242645
2.50716e-05
2.63618e-05
0.000225509
2.38215e-05
3.14487e-05
0.00022017
2.38145e-06
3.28878e-05
0.000227762
-3.3372e-05
2.1418e-05
0.000243041
-6.11666e-05
2.88291e-06
0.000254846
-6.79389e-05
-7.15838e-06
0.000254735
-6.15517e-05
-1.85203e-06
0.000242549
-5.66063e-05
1.97662e-05
0.00022681
-5.5364e-05
4.13952e-05
0.000220152
-6.13828e-05
4.57241e-05
0.000227698
-6.49041e-05
2.84593e-05
0.000237598
-4.31166e-05
5.46848e-06
0.000236378
1.28548e-06
-1.03262e-05
0.000225466
3.29694e-05
-1.62533e-05
0.000214288
2.95691e-05
-1.39624e-05
0.000208634
7.26767e-06
-4.28407e-06
0.00021007
-5.04985e-06
7.49906e-06
0.000218392
-9.69241e-07
1.7425e-05
0.000233805
5.64874e-06
2.12472e-05
0.000253165
5.46103e-06
1.58976e-05
1.44564e-06
-1.97163e-06
0.000303114
2.36293e-06
-1.46696e-05
0.000291654
1.90822e-06
-4.68832e-05
0.000278009
-1.68115e-05
-7.11649e-05
0.000276063
-4.4688e-05
-7.80123e-05
0.000284357
-6.97056e-05
-6.70743e-05
0.000293359
-8.65583e-05
-4.61655e-05
0.000300722
-8.95062e-05
-2.12127e-05
0.000306698
-7.04591e-05
2.46596e-06
0.000305312
-3.57321e-05
1.53322e-05
0.000294296
-1.02754e-05
1.2128e-05
0.00028386
-8.2081e-06
1.9766e-06
0.000286338
-1.68871e-05
2.13629e-08
0.000299548
-1.69977e-05
8.86058e-06
0.000308138
-1.02588e-05
1.66252e-05
0.000304112
-1.69265e-05
1.42094e-05
0.000298001
-4.29105e-05
8.06587e-06
0.000302514
-6.13631e-05
1.01602e-05
0.00031088
-4.70705e-05
1.83419e-05
0.000308232
-1.11201e-05
2.35665e-05
0.000292215
2.12486e-05
2.7312e-05
0.000272959
3.36679e-05
3.35905e-05
0.000259887
2.08009e-05
3.19335e-05
0.000257861
-1.62428e-05
1.36395e-05
0.000270288
-5.83448e-05
-8.77492e-06
0.000290797
-7.65739e-05
-2.16988e-05
0.000301408
-6.55915e-05
-1.71118e-05
0.000292133
-4.86464e-05
5.26009e-06
0.000271047
-3.86484e-05
3.37815e-05
0.000254003
-3.95085e-05
4.85609e-05
0.000251459
-4.55931e-05
3.80539e-05
0.000257672
-3.27802e-05
1.44782e-05
0.000260577
5.16717e-06
-5.42277e-06
0.000257685
3.5778e-05
-1.71231e-05
0.000253273
3.42311e-05
-2.15026e-05
0.000249234
1.42885e-05
-1.7016e-05
0.000246055
3.06095e-06
-5.64819e-06
0.000246068
6.49103e-06
6.57316e-06
0.000254306
6.13032e-06
1.69873e-05
0.000274517
-3.82128e-06
2.10055e-05
-6.69453e-06
1.2096e-05
0.000344983
-2.67146e-06
-6.49925e-06
0.000342479
1.33095e-05
-3.73027e-05
0.000328867
3.15293e-07
-6.64594e-05
0.000321836
-3.04136e-05
-8.07324e-05
0.000327191
-5.65436e-05
-7.67816e-05
0.000335083
-7.38151e-05
-6.13186e-05
0.000337287
-8.54251e-05
-3.9082e-05
0.000336746
-8.12209e-05
-1.37259e-05
0.000334922
-5.23283e-05
6.56989e-06
0.000328411
-1.49518e-05
1.01055e-05
0.000319677
1.55928e-06
1.94843e-06
0.000318184
-7.64563e-06
-1.94023e-06
0.000328468
-2.06724e-05
5.87087e-06
0.000341453
-2.09059e-05
1.73922e-05
0.00034451
-1.92933e-05
1.92398e-05
0.00033665
-3.28121e-05
1.02949e-05
0.000328038
-5.14923e-05
3.85982e-06
0.00032441
-5.05109e-05
9.57635e-06
0.000321057
-2.67878e-05
2.18573e-05
0.000313648
4.22902e-06
3.20348e-05
0.000304737
2.75658e-05
3.43241e-05
0.00029811
3.21415e-05
2.26823e-05
0.000293587
7.56118e-06
-6.55566e-07
0.000297752
-3.96266e-05
-2.25592e-05
0.000318194
-7.74917e-05
-3.14228e-05
0.000340291
-7.86693e-05
-2.25353e-05
0.000340621
-5.4942e-05
-3.26227e-07
0.000318519
-3.21029e-05
2.86408e-05
0.000293597
-2.20179e-05
4.97036e-05
0.00028267
-2.20634e-05
4.75462e-05
0.00028561
-1.29344e-05
2.54757e-05
0.000291457
1.46178e-05
1.97358e-06
0.000295095
3.68928e-05
-1.52496e-05
0.000297523
3.20988e-05
-2.60968e-05
0.000298477
1.38461e-05
-2.82678e-05
0.000296213
6.70256e-06
-2.19928e-05
0.0002922
1.24651e-05
-1.14207e-05
0.000292564
1.01634e-05
1.94771e-07
0.000304961
-8.83347e-06
1.01089e-05
-1.92274e-05
1.06777e-05
0.000378576
-8.87245e-06
-6.94053e-06
0.000389663
1.31736e-05
-3.12567e-05
0.000384038
1.10635e-05
-5.92579e-05
0.000374974
-1.33954e-05
-7.84432e-05
0.000376508
-3.70443e-05
-8.20126e-05
0.000384711
-5.49965e-05
-7.27949e-05
0.000386548
-7.29658e-05
-5.51374e-05
0.000379922
-8.06025e-05
-3.05148e-05
0.000371672
-6.04024e-05
-6.74073e-06
0.000364225
-2.03798e-05
5.24155e-06
0.000357625
8.2076e-06
2.58765e-06
0.000355692
5.73702e-06
-1.11126e-06
0.000363135
-1.40506e-05
4.71156e-06
0.000376619
-2.44332e-05
1.75246e-05
0.000384283
-2.25157e-05
2.48821e-05
0.000377239
-2.52116e-05
1.8232e-05
0.000358461
-3.45933e-05
5.60396e-06
0.000338543
-3.60695e-05
3.22421e-06
0.000326015
-2.45747e-05
1.30266e-05
0.000324099
-6.87983e-06
2.14957e-05
0.000330478
1.25105e-05
1.78781e-05
0.000338494
2.70045e-05
1.77933e-06
0.000340985
1.98177e-05
-1.88597e-05
0.000341963
-1.64652e-05
-3.59949e-05
0.000354799
-6.40369e-05
-3.8844e-05
0.000377345
-8.59197e-05
-2.41853e-05
0.00038521
-6.84703e-05
1.22123e-06
0.000365985
-3.49758e-05
2.82315e-05
0.000336397
-1.20707e-05
4.95329e-05
0.000319368
-3.65744e-06
5.27255e-05
0.000319786
5.75359e-06
3.42669e-05
0.000327093
2.52657e-05
9.76531e-06
0.000331897
4.01227e-05
-9.55346e-06
0.000334001
3.16879e-05
-2.21599e-05
0.000337473
1.12094e-05
-3.0188e-05
0.000342287
2.14267e-06
-3.23645e-05
0.000344967
8.72093e-06
-2.69131e-05
0.000343967
1.12205e-05
-1.43469e-05
0.000345509
-4.75459e-06
-9.81494e-07
-2.01464e-05
3.60475e-06
0.000400433
-2.5839e-06
-7.46944e-06
0.000422611
1.17746e-05
-2.7943e-05
0.000433137
1.45566e-05
-5.11212e-05
0.000430782
1.6603e-06
-7.1571e-05
0.000431978
-1.45791e-05
-8.24846e-05
0.000441774
-3.23968e-05
-8.09253e-05
0.000446277
-5.54324e-05
-6.90384e-05
0.000436552
-7.12961e-05
-4.85127e-05
0.000420322
-5.94517e-05
-2.35007e-05
0.000407476
-2.20743e-05
-4.82648e-06
0.000400301
1.1315e-05
2.77819e-06
0.000398523
1.68352e-05
3.63515e-06
0.000403003
-1.04978e-06
6.97505e-06
0.000412627
-1.80518e-05
1.59555e-05
0.000420027
-2.21731e-05
2.56148e-05
0.000415948
-2.26461e-05
2.66214e-05
0.000398869
-2.37209e-05
1.46716e-05
0.00037691
-1.9199e-05
-6.65868e-08
0.000361367
-1.07501e-05
-4.69304e-06
0.000359774
-5.78325e-06
-1.10989e-06
0.00037047
-9.30058e-07
1.89295e-07
0.000383935
9.08909e-06
-6.62905e-06
0.000391064
1.55955e-05
-2.13317e-05
0.000393115
-3.8267e-07
-3.51357e-05
0.000400968
-4.15478e-05
-3.77835e-05
0.000418284
-7.89698e-05
-2.36523e-05
0.000428064
-7.72583e-05
8.11221e-07
0.000413405
-4.12253e-05
2.57737e-05
0.000384315
-5.78406e-06
4.7166e-05
0.00036316
1.22581e-05
5.53737e-05
0.000357256
2.20103e-05
4.20868e-05
0.000357515
3.56388e-05
1.89519e-05
0.000355769
4.37535e-05
3.47254e-06
0.000354131
3.15211e-05
-4.15929e-06
0.000358576
6.35808e-06
-1.34153e-05
0.00037008
-9.47494e-06
-2.4778e-05
0.000381732
-5.92018e-06
-2.67843e-05
0.000385299
3.79861e-06
-1.35627e-05
0.000382415
1.54699e-06
2.54015e-06
-6.95979e-06
4.92713e-06
0.000427503
1.73375e-05
3.04595e-06
0.000449441
2.2918e-05
-2.11107e-05
0.0004717
2.01241e-05
-4.33991e-05
0.000484041
1.02512e-05
-6.08346e-05
0.000493379
1.97988e-06
-7.35613e-05
0.000506766
-1.06729e-05
-7.99691e-05
0.000513716
-3.37144e-05
-7.77642e-05
0.000502293
-5.3788e-05
-6.46399e-05
0.000478857
-4.77461e-05
-4.24018e-05
0.000458324
-1.57889e-05
-1.94707e-05
0.0004475
1.53302e-05
-4.38694e-06
0.000444468
2.16414e-05
4.67632e-06
0.000447143
7.75274e-06
1.08557e-05
0.000452265
-8.25484e-06
1.80762e-05
0.000454114
-1.45286e-05
2.51773e-05
0.000447979
-1.67771e-05
2.79115e-05
0.0004357
-1.72749e-05
1.94299e-05
0.000423475
-1.02988e-05
6.49822e-07
0.000416278
-1.44093e-06
-1.35448e-05
0.000416962
-3.97969e-06
-1.22947e-05
0.000424721
-1.30848e-05
-3.28469e-06
0.000432888
-1.03679e-05
-1.00297e-06
0.000435266
5.20391e-06
-8.09425e-06
0.000435219
8.40157e-06
-1.76686e-05
0.000441048
-1.93904e-05
-2.24377e-05
0.000456006
-6.15698e-05
-1.57245e-05
0.000469117
-7.72875e-05
3.10912e-06
0.000464134
-4.89256e-05
2.5832e-05
0.000442026
-3.05942e-06
4.38758e-05
0.000418393
2.87107e-05
5.19193e-05
0.000401249
4.06159e-05
4.53915e-05
0.000388904
4.42836e-05
3.04749e-05
0.000381051
4.40699e-05
1.7494e-05
0.000380691
3.20332e-05
1.01397e-05
0.000388877
7.44361e-06
3.97149e-06
0.000403351
-1.52265e-05
-6.12088e-06
0.000417373
-1.90041e-05
-1.39578e-05
0.000423362
-6.13007e-06
-8.88503e-06
0.000420778
7.15424e-06
6.30735e-06
1.24311e-05
1.38295e-05
0.000467369
3.71033e-05
1.76803e-05
0.000485035
3.82925e-05
-6.24037e-07
0.000507531
2.66323e-05
-2.35814e-05
0.000528591
1.01264e-05
-4.29002e-05
0.00054937
1.77221e-06
-5.88348e-05
0.000569977
-1.85161e-06
-7.09067e-05
0.000580057
-1.42367e-05
-7.63223e-05
0.00056928
-3.01921e-05
-7.2611e-05
0.000543775
-2.91289e-05
-5.74028e-05
0.000518761
-5.46782e-06
-3.43689e-05
0.000502379
1.95828e-05
-1.31422e-05
0.000493797
2.49117e-05
5.65558e-07
0.000490522
1.3742e-05
9.2582e-06
0.000490025
1.39612e-06
1.84283e-05
0.000488105
-5.21819e-06
2.73491e-05
0.000482417
-8.53385e-06
2.84275e-05
0.000476777
-9.73063e-06
1.6487e-05
0.000477052
-4.57037e-06
-4.3031e-06
0.000483133
1.25972e-06
-1.83006e-05
0.000489016
-6.89581e-06
-1.29083e-05
0.000488363
-2.33133e-05
4.31537e-06
0.000480889
-2.43156e-05
1.51383e-05
0.000473536
-3.19779e-06
1.31693e-05
0.000474382
1.45765e-05
5.91667e-06
0.000485309
2.80391e-06
5.20579e-07
0.000501109
-3.60583e-05
1.63038e-06
0.000513664
-6.56578e-05
1.0572e-05
0.000511667
-5.03173e-05
2.60729e-05
0.000493531
-1.13671e-06
4.17086e-05
0.000468711
4.12683e-05
4.87308e-05
0.000444684
5.68764e-05
4.15956e-05
0.000425241
5.42771e-05
2.97416e-05
0.000415558
4.73502e-05
2.57054e-05
0.000417985
3.72408e-05
2.77312e-05
0.000429445
2.02222e-05
2.4255e-05
0.000444474
3.26628e-07
1.22745e-05
0.000457023
-8.94822e-06
1.7513e-06
0.000462476
-7.38244e-07
2.31094e-06
0.000461349
1.50756e-05
1.39637e-05
2.80961e-05
2.30236e-05
0.000522568
4.23255e-05
3.83987e-05
0.000532816
4.41176e-05
2.64101e-05
0.000550059
3.04671e-05
-4.56218e-07
0.00057137
4.89189e-06
-2.46684e-05
0.000596741
-1.44932e-05
-3.90056e-05
0.000621913
-1.67404e-05
-4.95881e-05
0.000635132
-1.11569e-05
-6.2491e-05
0.000629754
-9.83123e-06
-7.30293e-05
0.000613048
-7.68846e-06
-7.20263e-05
0.000596647
4.79813e-06
-5.56441e-05
0.000583274
2.09043e-05
-3.09638e-05
0.000568963
2.61231e-05
-9.59612e-06
0.000552958
2.03534e-05
3.61238e-06
0.00053884
1.15769e-05
1.3329e-05
0.000530217
2.46733e-06
2.37425e-05
0.000528185
-8.23233e-06
3.09425e-05
0.000534955
-1.90483e-05
2.88667e-05
0.000551994
-2.40326e-05
1.63634e-05
0.000572138
-2.38498e-05
2.38208e-06
0.000580552
-2.61861e-05
9.54222e-07
0.00056972
-3.11104e-05
1.82896e-05
0.000548096
-2.5744e-05
4.30689e-05
0.000531635
-2.10465e-06
5.41043e-05
0.000529648
2.51416e-05
4.06469e-05
0.000539958
3.05835e-05
1.13294e-05
0.000554525
2.16408e-06
-7.64808e-06
0.000564987
-3.72491e-05
-1.9356e-06
0.000562138
-4.36137e-05
1.79505e-05
0.000541831
-4.68343e-06
3.6466e-05
0.000512966
4.44779e-05
4.45753e-05
0.000486483
7.10295e-05
4.07931e-05
0.000469336
7.4164e-05
3.14508e-05
0.000464242
6.6487e-05
2.58503e-05
0.000468976
5.38575e-05
2.56287e-05
0.000479166
3.71138e-05
2.46834e-05
0.000492367
1.9675e-05
1.77384e-05
0.000506768
1.02517e-05
7.40427e-06
0.000518029
1.40793e-05
3.74561e-06
0.000521795
2.45437e-05
1.38243e-05
3.41417e-05
3.08259e-05
0.000573418
3.08948e-05
4.78654e-05
0.00058393
2.60574e-05
4.54949e-05
0.000602009
1.18011e-05
2.63683e-05
0.000622516
-8.64125e-06
-4.55456e-06
0.000644815
-2.64165e-05
-3.16989e-05
0.000669463
-2.93591e-05
-4.74741e-05
0.000688673
-1.76032e-05
-5.45962e-05
0.000691602
-1.72914e-06
-6.01324e-05
0.00067834
1.17793e-05
-6.53199e-05
0.000661386
2.25516e-05
-6.32539e-05
0.000651159
2.87734e-05
-5.01474e-05
0.000645576
2.73647e-05
-3.21143e-05
0.000637621
2.04468e-05
-1.68534e-05
0.000624262
1.33161e-05
-5.52314e-06
0.000608455
6.0108e-06
5.84806e-06
0.000596746
-6.00348e-06
1.90927e-05
0.000596575
-2.39339e-05
3.09525e-05
0.000612745
-4.2777e-05
3.45726e-05
0.000637172
-5.62186e-05
2.83141e-05
0.000650612
-5.80198e-05
2.08491e-05
0.000641979
-4.5947e-05
2.56095e-05
0.000619756
-2.25684e-05
4.47349e-05
0.000599415
7.36597e-06
5.97141e-05
0.0005886
3.2984e-05
4.76851e-05
0.000586731
3.85002e-05
1.14041e-05
0.000593152
1.5965e-05
-2.23428e-05
0.000604591
-2.1984e-05
-2.72872e-05
0.000610121
-4.20782e-05
-3.56718e-06
0.000600077
-1.90206e-05
2.38587e-05
0.000579111
3.0922e-05
4.059e-05
0.000561262
7.09602e-05
4.14048e-05
0.00055427
8.75298e-05
2.83929e-05
0.000555566
8.50463e-05
1.02999e-05
0.000559216
7.00801e-05
-2.69079e-06
0.00056186
4.80951e-05
-4.2226e-06
0.000565031
2.80053e-05