/*--------------------------------*- C++ -*----------------------------------*\
| =========                 |                                                 |
| \\      /  F ield         | OpenFOAM: The Open Source CFD Toolbox           |
|  \\    /   O peration     | Version:  2306                                  |
|   \\  /    A nd           | Website:  www.openfoam.com                      |
|    \\/     M anipulation  |                                                 |
\*---------------------------------------------------------------------------*/
FoamFile
{
    version     2.0;
    format      ascii;
    arch        "LSB;label=32;scalar=64";
    class       volScalarField;
    location    "4.5";
    object      pMean;
}
// * * * * * * * * * * * * * * * * * * * * * * * * * * * * * * * * * * * * * //

dimensions      [0 2 -2 0 0 0 0];

internalField   nonuniform List<scalar> 
60000
(
4.28929e-05
4.68869e-05
7.04224e-05
0.000103063
0.000132504
0.000149698
0.000151518
0.000140763
0.000126972
0.00012458
0.000141404
0.000172427
0.000204136
0.000222897
0.000221411
0.000198531
0.000159782
0.000116919
7.89206e-05
4.7902e-05
2.87386e-05
3.09069e-05
5.70266e-05
9.76753e-05
0.000136729
0.00016095
0.000171104
0.000178662
0.000191125
0.000210752
0.000235925
0.00025567
0.000260229
0.000250231
0.000229451
0.000201445
0.000168057
0.000129809
9.11897e-05
5.95652e-05
4.18792e-05
4.50991e-05
6.83858e-05
0.000101254
0.000131088
0.000148542
0.000150311
0.000139294
0.00012522
0.000122683
0.000139674
0.000171063
0.000203158
0.000222307
0.000221243
0.000198796
0.000160321
0.000117517
7.94465e-05
4.82668e-05
2.88398e-05
3.07041e-05
5.64732e-05
9.67624e-05
0.000135466
0.000159332
0.000169261
0.000176864
0.000189622
0.000209619
0.000235333
0.000255859
0.000261174
0.000251753
0.000231341
0.000203561
0.000170182
0.000131557
9.21717e-05
5.95653e-05
3.88641e-05
4.14919e-05
6.49346e-05
9.85169e-05
0.000129258
0.00014747
0.000149532
0.000138221
0.000123446
0.000120312
0.000137285
0.00016914
0.000201872
0.000221733
0.000221394
0.000199511
0.000161191
0.00011813
7.96562e-05
4.80937e-05
2.8279e-05
2.98401e-05
5.54221e-05
9.56315e-05
0.000134179
0.000157575
0.000166788
0.000174024
0.000186887
0.000207265
0.000233751
0.000255424
0.000261822
0.000253082
0.000232922
0.000204995
0.000171183
0.000131808
9.13844e-05
5.76047e-05
3.37086e-05
3.58463e-05
5.9878e-05
9.46757e-05
0.000126853
0.000146343
0.000149098
0.000137611
0.000121865
0.000117628
0.000134269
0.000166674
0.000200339
0.000221261
0.000221984
0.000200833
0.000162558
0.000118868
7.95892e-05
4.73995e-05
2.71369e-05
2.85037e-05
5.41772e-05
9.46164e-05
0.000133209
0.000155982
0.000163923
0.000170182
0.000182908
0.000203678
0.000231111
0.000254276
0.000262056
0.000254152
0.000234186
0.000205709
0.000170894
0.000130359
8.87198e-05
5.3587e-05
2.71083e-05
2.84231e-05
5.31386e-05
8.94415e-05
0.000123378
0.000144602
0.000148683
0.000137652
0.000121237
0.000115524
0.000131198
0.000163861
0.000198522
0.000220702
0.00022279
0.000202713
0.000164536
0.000119975
7.95072e-05
4.63772e-05
2.55594e-05
2.66495e-05
5.23007e-05
9.30186e-05
0.000131841
0.000154159
0.000160735
0.000165728
0.000178243
0.000199585
0.000228085
0.000252739
0.000262047
0.000255258
0.000235793
0.000206916
0.000170695
0.000128519
8.53409e-05
4.86541e-05
1.93423e-05
1.88617e-05
4.42459e-05
8.20783e-05
0.000118027
0.00014147
0.000147509
0.000137983
0.0001219
0.00011507
0.000129289
0.000161558
0.000196887
0.000220179
0.00022366
0.000204995
0.000167266
0.000121711
7.94831e-05
4.47058e-05
2.27054e-05
2.30305e-05
4.78647e-05
8.78348e-05
0.000126478
0.000148637
0.000154592
0.000159557
0.000173067
0.000195958
0.000226024
0.000252005
0.000262608
0.000257097
0.000238642
0.000210215
0.000173062
0.000128388
8.24498e-05
4.33997e-05
1.22409e-05
7.90484e-06
3.16693e-05
7.077e-05
0.000109106
0.000135678
0.000144728
0.000137348
0.00012278
0.000116246
0.000129578
0.000161148
0.000196557
0.000220463
0.000224872
0.000207566
0.000170637
0.000124182
7.96242e-05
4.20356e-05
1.76628e-05
1.66183e-05
4.05699e-05
7.93143e-05
0.000116624
0.000137671
0.000142524
0.000147703
0.000164373
0.000191643
0.000225709
0.000253875
0.000265347
0.000260357
0.000242956
0.000216135
0.000179927
0.000133921
8.42089e-05
4.07644e-05
7.46356e-06
-3.31631e-06
1.68499e-05
5.57561e-05
9.59704e-05
0.000126116
0.000139255
0.000135037
0.000122029
0.000115743
0.000129936
0.000162733
0.000199068
0.000223022
0.000227471
0.000210708
0.000174467
0.000127263
8.0074e-05
3.87887e-05
1.13265e-05
9.85001e-06
3.53461e-05
7.48291e-05
0.000110655
0.000128364
0.000129044
0.000131686
0.000150122
0.000182403
0.000222197
0.000255389
0.000269583
0.000265438
0.000248076
0.000222077
0.000188397
0.000143587
9.14567e-05
4.26578e-05
5.92266e-06
-1.39209e-05
1.29822e-07
3.76925e-05
7.96612e-05
0.000113311
0.000131306
0.000130998
0.000120184
0.000113338
0.000126017
0.000160409
0.000200338
0.000227024
0.000232273
0.000215185
0.000178893
0.000130803
8.10714e-05
3.67287e-05
7.85883e-06
9.05731e-06
4.04988e-05
8.39764e-05
0.000118241
0.000129338
0.000120934
0.000116092
0.000132473
0.000168344
0.000214012
0.000251668
0.000268374
0.000264944
0.000247917
0.000223708
0.000194304
0.00015415
0.000102432
4.9152e-05
1.02526e-05
-2.09228e-05
-1.67246e-05
1.74684e-05
6.01662e-05
9.7654e-05
0.000121111
0.000125573
0.000117078
0.000109645
0.000119324
0.000151859
0.000193228
0.000223434
0.000232525
0.000218788
0.000183693
0.000134749
8.25399e-05
3.61156e-05
8.32347e-06
1.61535e-05
5.85335e-05
0.000110195
0.000144461
0.000147205
0.000124802
0.00010605
0.000114556
0.000150168
0.000200465
0.000243358
0.00026303
0.000260701
0.000244086
0.00022064
0.000196407
0.000164397
0.000117344
6.16018e-05
2.40908e-05
-1.86488e-05
-2.7407e-05
-9.84564e-07
4.00612e-05
8.03784e-05
0.000109768
0.000120452
0.000115007
0.000106617
0.000111731
0.000138993
0.000177593
0.000208451
0.000220706
0.00021274
0.00018442
0.000138574
8.49649e-05
3.67978e-05
1.11068e-05
2.71607e-05
8.35926e-05
0.000147724
0.000185633
0.000182789
0.000146274
0.00010874
0.000101532
0.000129781
0.000180071
0.000227194
0.000252287
0.000254961
0.000242889
0.000221859
0.0002015
0.000178261
0.000137445
8.19376e-05
4.71739e-05
-4.72189e-06
-2.63549e-05
-1.13939e-05
2.36946e-05
6.31747e-05
9.75105e-05
0.000115391
0.000114887
0.000106837
0.000108488
0.000129645
0.000161728
0.000187295
0.000197423
0.000191902
0.00017137
0.000135364
8.7866e-05
4.23607e-05
1.93091e-05
4.11769e-05
0.000108197
0.00018444
0.000229039
0.000227209
0.000183962
0.000130637
0.000102336
0.000114993
0.000158093
0.000207384
0.000239537
0.000250894
0.000246715
0.00023126
0.000214918
0.000198385
0.000164716
0.000109332
7.46699e-05
1.85087e-05
-1.23545e-05
-9.70184e-06
1.51663e-05
4.88398e-05
8.4262e-05
0.000109265
0.000114163
0.00010752
0.000107449
0.000124534
0.00015165
0.000170146
0.000172762
0.00016387
0.000146721
0.00012004
8.68386e-05
5.33775e-05
3.7811e-05
6.1264e-05
0.000127788
0.000208023
0.000259051
0.000262685
0.000224626
0.00016707
0.000121992
0.000114612
0.000144238
0.000190287
0.000227543
0.000248295
0.00025329
0.000244488
0.000232108
0.000219543
0.00019216
0.000138957
0.000102083
4.89971e-05
1.50654e-05
7.19541e-06
1.93401e-05
4.29315e-05
7.47057e-05
0.000103244
0.000112481
0.000107226
0.000106485
0.000121322
0.000146079
0.000161721
0.000159189
0.000146409
0.000128412
0.000105117
8.16132e-05
6.20723e-05
5.33024e-05
7.46493e-05
0.000133241
0.000210159
0.000266714
0.000279377
0.000252288
0.000200028
0.000147782
0.000125029
0.000140715
0.000178881
0.000218847
0.00024615
0.000257737
0.000254596
0.000243908
0.000232207
0.000209371
0.000162215
0.00012964
8.73351e-05
5.50701e-05
3.85042e-05
3.71684e-05
4.83393e-05
7.21571e-05
9.9152e-05
0.000111078
0.000106698
0.000104997
0.000118348
0.000142254
0.000160162
0.000161002
0.000149089
0.000130325
0.000106482
8.32388e-05
6.71717e-05
6.12792e-05
7.78174e-05
0.000125788
0.000196802
0.000256772
0.000279601
0.000263941
0.000219536
0.000165759
0.000134129
0.000138276
0.000168496
0.00020766
0.000239487
0.000256253
0.000257471
0.000247977
0.000233899
0.000214757
0.000178214
0.000154419
0.000123097
9.63889e-05
7.55947e-05
6.36236e-05
6.23494e-05
7.53366e-05
9.6168e-05
0.000107313
0.000104347
0.0001028
0.000115399
0.000138492
0.000158283
0.00016434
0.000156679
0.000139594
0.000115317
8.89967e-05
7.24948e-05
7.0304e-05
8.51524e-05
0.00012455
0.000184856
0.000240075
0.000267096
0.000262833
0.000229172
0.000178616
0.000140842
0.00013484
0.000155545
0.000189784
0.000223492
0.000246098
0.000254349
0.00024824
0.000233116
0.000215603
0.000189002
0.000170537
0.000146469
0.000125189
0.000105764
9.1213e-05
8.29594e-05
8.46986e-05
9.49518e-05
0.000101474
9.84626e-05
9.75588e-05
0.000109481
0.000133695
0.000155904
0.000165218
0.000160131
0.000144542
0.000122115
9.70894e-05
8.25426e-05
8.67155e-05
0.000104013
0.000135109
0.00018106
0.000223935
0.000248053
0.000249413
0.000227323
0.000187239
0.000150898
0.000137155
0.000148608
0.000176442
0.000207808
0.000232302
0.000244749
0.000242226
0.000230813
0.000216742
0.000196211
0.000169025
0.000153679
0.000141007
0.000129377
0.000118719
0.000106873
9.78175e-05
9.39957e-05
9.14622e-05
8.71924e-05
8.82902e-05
0.000102985
0.000129546
0.000155311
0.000167621
0.000164938
0.000151018
0.000129163
0.000104909
9.18336e-05
9.71367e-05
0.000114618
0.000141428
0.000177472
0.000212001
0.00023126
0.000233506
0.000216024
0.000183827
0.000153126
0.000139689
0.000148759
0.00017524
0.000207092
0.000232641
0.000243486
0.000237394
0.000221918
0.000205348
0.000187196
0.000155149
0.000145959
0.000141518
0.000136829
0.000132278
0.000126654
0.000116124
0.000100478
8.30599e-05
7.02668e-05
6.90666e-05
8.33857e-05
0.000111199
0.000141323
0.000161444
0.000166932
0.000161631
0.00014741
0.000128137
0.000114507
0.000114777
0.000125758
0.000143432
0.000170852
0.000202651
0.000222737
0.000224284
0.000210042
0.000181035
0.000151339
0.00013662
0.000145205
0.000172165
0.000203899
0.000228576
0.000239289
0.000232305
0.000212066
0.000189303
0.000169983
0.000136461
0.000128381
0.000125975
0.0001259
0.00012585
0.000123904
0.000117095
0.000105031
8.86531e-05
7.19865e-05
6.29737e-05
6.64251e-05
8.2781e-05
0.000105827
0.000126511
0.000139968
0.000146431
0.000147874
0.000142813
0.000134589
0.000130559
0.000132394
0.000139263
0.000157528
0.000185434
0.000207542
0.000211413
0.000197024
0.000170634
0.000141532
0.000125002
0.00013051
0.00015519
0.000186705
0.000211668
0.000223503
0.000218026
0.000197584
0.000171844
0.000150285
0.000125842
0.000112964
0.000108194
0.000110196
0.000115918
0.000120454
0.000118697
0.00010723
8.97067e-05
7.2286e-05
6.11987e-05
5.94632e-05
6.61367e-05
7.87543e-05
9.49898e-05
0.000111074
0.000123715
0.000133168
0.000138361
0.000136931
0.00013241
0.000131534
0.00013597
0.000150007
0.000176568
0.000201533
0.00020567
0.000185202
0.00014843
0.000112564
9.12914e-05
9.6259e-05
0.000125102
0.000164228
0.000197111
0.00021425
0.000213379
0.000197393
0.000172343
0.00014645
0.000151664
0.000136651
0.000123683
0.000115514
0.000113198
0.000114448
0.000114328
0.000107416
9.40177e-05
7.90071e-05
6.84427e-05
6.44659e-05
6.64133e-05
7.28024e-05
8.26619e-05
9.53517e-05
0.000107492
0.000119067
0.000130075
0.000136779
0.000138538
0.000139159
0.000142989
0.000154564
0.000176267
0.000199568
0.000207466
0.000190017
0.000150802
0.000104846
7.47955e-05
7.28591e-05
9.97291e-05
0.000143112
0.000183191
0.00020804
0.000214368
0.000205481
0.000188367
0.000168624
0.000158547
0.000144929
0.000131671
0.000121292
0.000113077
0.000107727
0.000104612
0.000100819
9.38861e-05
8.59129e-05
8.08569e-05
7.93682e-05
8.11475e-05
8.62017e-05
9.46441e-05
0.000105307
0.000115772
0.000124997
0.00013336
0.000140977
0.000146019
0.000148517
0.000151572
0.00015891
0.000173035
0.000189797
0.000196446
0.000183703
0.000154322
0.000120176
9.54586e-05
9.09243e-05
0.000107978
0.000138769
0.000170122
0.000191408
0.000199645
0.000196956
0.000186963
0.000173192
0.000154231
0.000133281
0.000113059
9.79075e-05
8.97271e-05
8.92212e-05
9.47712e-05
0.00010066
0.00010358
0.000103449
0.000101854
9.92772e-05
9.59357e-05
9.44737e-05
9.8309e-05
0.000107352
0.000120415
0.000134341
0.000146235
0.000154007
0.000157122
0.000155827
0.000153603
0.00015303
0.00015657
0.000164974
0.000172132
0.000168458
0.000151381
0.000127125
0.000106166
9.77883e-05
0.000106196
0.000127301
0.000151163
0.000171099
0.000182872
0.000186451
0.000182684
0.000171914
0.000148102
0.000124493
0.000100283
8.1756e-05
7.27839e-05
7.37404e-05
8.10643e-05
9.11738e-05
9.88417e-05
0.000102897
0.000104451
0.000105
0.000105125
0.000106453
0.000110877
0.000119872
0.00013299
0.000148314
0.00016357
0.000175544
0.000177881
0.000169704
0.000155685
0.000140998
0.000132118
0.000133545
0.000141709
0.000146271
0.000142611
0.000131964
0.00011801
0.000108411
0.000109291
0.000121594
0.000140675
0.000159272
0.000173566
0.000180607
0.000178263
0.000166826
4.57972e-05
1.47373e-08
-1.25258e-05
7.31552e-06
4.52424e-05
8.32025e-05
0.000107039
0.000111666
0.000103788
9.96694e-05
0.000112216
0.000138831
0.000164797
0.000178004
0.000175915
0.00016102
0.000137787
0.000112407
8.75447e-05
6.3855e-05
4.77499e-05
5.17904e-05
8.39402e-05
0.000138781
0.000200457
0.00024904
0.000272214
0.000277849
0.000280849
0.000285778
0.000293863
0.000306923
0.000318256
0.000317533
0.000302003
0.000278278
0.000251368
0.000217569
0.000170344
0.000109205
4.74358e-05
5.40074e-07
-1.32161e-05
5.7932e-06
4.34176e-05
8.14423e-05
0.000105494
0.000110236
0.000102348
9.81897e-05
0.000110828
0.00013765
0.000163914
0.000177362
0.000175474
0.000160779
0.000137736
0.000112487
8.76442e-05
6.37358e-05
4.7075e-05
5.02588e-05
8.14401e-05
0.000135442
0.000196688
0.000245435
0.000269178
0.000275394
0.000278813
0.000284006
0.000292222
0.000305504
0.000317375
0.000317459
0.000302729
0.000279629
0.000253294
0.000219954
0.00017295
0.000111562
4.77085e-05
-7.74259e-07
-1.58561e-05
2.65391e-06
4.0593e-05
7.93369e-05
0.000103991
0.00010889
0.000100702
9.61692e-05
0.000108744
0.000135861
0.000162545
0.000176352
0.000174769
0.000160379
0.000137601
0.000112542
8.77504e-05
6.35639e-05
4.62641e-05
4.85876e-05
7.89905e-05
0.000132467
0.000193549
0.000242595
0.00026684
0.000273376
0.000276937
0.000282128
0.000290155
0.000303519
0.000316135
0.000317347
0.000303664
0.000281333
0.000255555
0.000222521
0.000175376
0.000113217
4.58151e-05
-4.75263e-06
-2.11359e-05
-2.65333e-06
3.6306e-05
7.64971e-05
0.000102344
0.000107662
9.90203e-05
9.3734e-05
0.000105967
0.000133361
0.000160595
0.000174888
0.000173725
0.000159749
0.000137284
0.000112479
8.78198e-05
6.34579e-05
4.56722e-05
4.74328e-05
7.75929e-05
0.000131149
0.000192388
0.000241605
0.000265918
0.000272185
0.000275455
0.000280357
0.000287837
0.000300979
0.00031432
0.000316846
0.000304387
0.000283056
0.000257919
0.000224986
0.000177224
0.000113518
4.19144e-05
-1.14502e-05
-2.93485e-05
-1.06297e-05
2.99205e-05
7.23368e-05
0.000100282
0.000106843
9.81172e-05
9.17515e-05
0.000103108
0.000130464
0.000158159
0.000172918
0.000172192
0.000158712
0.000136641
0.000112113
8.76803e-05
6.32666e-05
4.51164e-05
4.65991e-05
7.69454e-05
0.000131051
0.000192662
0.000241969
0.000266035
0.00027164
0.000274387
0.000279018
0.000285805
0.000298237
0.000311726
0.000315249
0.00030399
0.000283962
0.000259997
0.000227411
0.000178813
0.000112695
3.69871e-05
-1.99782e-05
-4.03451e-05
-2.18795e-05
2.03122e-05
6.55575e-05
9.67166e-05
0.000105945
9.8389e-05
9.14643e-05
0.00010159
0.000128307
0.000156065
0.000170976
0.000170429
0.000157368
0.000135754
0.000111577
8.7367e-05
6.27419e-05
4.38679e-05
4.45392e-05
7.44911e-05
0.000128412
0.000189967
0.000239513
0.000264015
0.000269706
0.000272873
0.000278195
0.000284876
0.00029635
0.000308948
0.000312233
0.000301608
0.000283138
0.000261259
0.000230209
0.000181276
0.000112148
3.50037e-05
-2.75799e-05
-5.17542e-05
-3.54913e-05
7.01651e-06
5.48848e-05
8.99037e-05
0.000103027
9.81916e-05
9.21738e-05
0.000101866
0.000127937
0.000155508
0.000170261
0.000169355
0.000156262
0.00013495
0.000111081
8.6887e-05
6.12182e-05
3.99552e-05
3.78157e-05
6.55087e-05
0.000117805
0.000178504
0.000228175
0.000253649
0.000260883
0.000266627
0.00027559
0.000284489
0.000295914
0.000307024
0.000308333
0.000296578
0.000279561
0.000261272
0.000233993
0.000187206
0.000115995
4.19899e-05
-2.84989e-05
-5.91978e-05
-4.78895e-05
-7.83664e-06
4.13936e-05
8.01001e-05
9.76351e-05
9.60974e-05
9.08419e-05
0.000100167
0.000126421
0.000154872
0.000170704
0.000169764
0.000156154
0.000134581
0.00011064
8.6035e-05
5.80889e-05
3.19983e-05
2.42483e-05
4.76023e-05
9.76959e-05
0.000157547
0.000207786
0.000234291
0.000242517
0.000251458
0.000266247
0.000280577
0.000294382
0.000304969
0.000304234
0.000289996
0.000273211
0.000259698
0.000239145
0.000198201
0.000128357
5.97657e-05
-1.98148e-05
-6.00347e-05
-5.64007e-05
-2.21104e-05
2.64785e-05
6.8669e-05
9.0868e-05
9.30212e-05
8.87324e-05
9.64711e-05
0.000121399
0.000150135
0.000167968
0.000169388
0.000156849
0.000134966
0.00011015
8.45575e-05
5.38724e-05
2.21686e-05
8.16067e-06
2.75568e-05
7.58876e-05
0.000134534
0.000184231
0.00021054
0.000218361
0.000228803
0.000249818
0.000270858
0.000288531
0.000299525
0.000297511
0.000282069
0.000266431
0.000258872
0.000246716
0.000214056
0.000149271
8.5416e-05
-3.03379e-06
-5.48074e-05
-6.13682e-05
-3.45102e-05
1.10973e-05
5.61925e-05
8.30961e-05
8.9164e-05
8.58713e-05
9.20308e-05
0.000114646
0.000141963
0.000160181
0.00016396
0.00015481
0.000135143
0.000109689
8.26455e-05
5.06461e-05
1.58728e-05
-1.87571e-06
1.6093e-05
6.45937e-05
0.000121584
0.000167171
0.000188982
0.00019262
0.00020179
0.00022733
0.000256411
0.00028044
0.000294033
0.000292108
0.000276104
0.000261719
0.000260479
0.000258396
0.000233984
0.000175259
0.000114561
1.96492e-05
-4.45875e-05
-6.31037e-05
-4.4817e-05
-3.12431e-06
4.43388e-05
7.62292e-05
8.60325e-05
8.37698e-05
8.79204e-05
0.000107492
0.000131913
0.000148161
0.000152136
0.000146002
0.000130539
0.000106926
7.94925e-05
4.80163e-05
1.44156e-05
-2.54407e-06
1.78459e-05
6.94139e-05
0.000125316
0.000163941
0.000177307
0.000172355
0.000175551
0.000201294
0.000237333
0.000269656
0.000289669
0.000293278
0.000280808
0.000267942
0.000270232
0.00027566
0.000257914
0.000203641
0.000144867
4.75681e-05
-2.67426e-05
-5.86329e-05
-5.11456e-05
-1.52495e-05
3.25464e-05
6.98955e-05
8.35723e-05
8.15856e-05
8.34168e-05
0.00010025
0.00012198
0.000135059
0.000136571
0.000131158
0.000119563
9.95263e-05
7.36476e-05
4.46014e-05
1.57186e-05
3.81452e-06
2.89582e-05
8.5329e-05
0.000141651
0.000173203
0.000178745
0.000164974
0.000158263
0.000177401
0.000214601
0.00025311
0.000280533
0.000292103
0.000288251
0.000280675
0.000286254
0.000296356
0.000283514
0.000232118
0.000172931
7.85675e-05
-8.43955e-07
-4.42148e-05
-4.89305e-05
-2.24077e-05
2.14685e-05
6.10113e-05
7.90185e-05
7.82478e-05
7.92071e-05
9.48932e-05
0.000115733
0.00012689
0.000124365
0.000116192
0.000106088
8.98093e-05
6.67966e-05
4.10505e-05
1.89815e-05
1.21169e-05
3.90072e-05
9.81193e-05
0.000154804
0.000183928
0.000186498
0.000170037
0.000154961
0.000162886
0.000192838
0.000231949
0.000264729
0.000284577
0.000291146
0.000291121
0.000298618
0.000310315
0.00030125
0.00025485
0.000194574
0.00011029
3.27395e-05
-1.80858e-05
-3.50521e-05
-2.09838e-05
1.4936e-05
5.30116e-05
7.42146e-05
7.599e-05
7.74499e-05
9.37342e-05
0.000115352
0.000126883
0.000122502
0.000111287
0.000100098
8.62272e-05
6.78761e-05
4.78593e-05
3.10171e-05
2.57547e-05
4.91246e-05
0.00010352
0.000159194
0.000189957
0.00019439
0.000180774
0.000161964
0.000159378
0.000177456
0.000210072
0.000242178
0.000267443
0.000283363
0.000291449
0.000300074
0.00030947
0.000302454
0.000264317
0.000208787
0.000141089
7.15615e-05
1.74682e-05
-1.0507e-05
-1.00161e-05
1.46463e-05
4.82551e-05
7.0366e-05
7.63907e-05
7.98543e-05
9.60023e-05
0.000118604
0.000133776
0.000133891
0.000123407
0.000108794
9.15201e-05
7.18201e-05
5.40026e-05
4.18233e-05
3.95948e-05
6.0245e-05
0.000108343
0.000162153
0.000196579
0.000205451
0.000193429
0.000171658
0.000160003
0.000167929
0.000192172
0.00022056
0.000247487
0.000268148
0.000280459
0.000288857
0.000294942
0.0002893
0.000261271
0.000217299
0.000168567
0.000112693
6.06947e-05
2.43574e-05
1.11967e-05
2.12265e-05
4.48811e-05
6.59692e-05
7.54596e-05
8.24226e-05
9.94644e-05
0.000123156
0.000141652
0.000145927
0.000136956
0.00011853
9.41173e-05
6.96641e-05
5.23891e-05
4.60449e-05
5.0862e-05
7.38493e-05
0.000117437
0.000167535
0.000203569
0.00021605
0.000205114
0.000181162
0.000161264
0.000160023
0.000177695
0.000204914
0.000232781
0.0002575
0.000273546
0.000280667
0.000281568
0.000274212
0.00025339
0.000221065
0.000187376
0.000146029
0.000103522
6.94648e-05
4.92229e-05
4.39576e-05
4.83291e-05
5.76279e-05
6.66097e-05
7.7064e-05
9.77189e-05
0.000125498
0.000148215
0.000156149
0.000148297
0.000129137
0.000104373
7.86817e-05
6.1475e-05
5.8715e-05
6.88606e-05
9.32852e-05
0.000131673
0.000174973
0.000207041
0.000218102
0.00020849
0.00018575
0.000163628
0.000157097
0.000170373
0.000195817
0.000224564
0.000250894
0.000267851
0.000273629
0.000271792
0.000263013
0.000245573
0.000213335
0.000194312
0.000168071
0.000138808
0.000112387
9.29963e-05
7.80138e-05
6.56767e-05
5.70359e-05
5.72182e-05
6.85112e-05
9.26127e-05
0.000124852
0.000153059
0.000164841
0.000157866
0.000138279
0.000114502
9.08633e-05
7.43028e-05
7.30351e-05
8.55256e-05
0.000108232
0.000142345
0.000181339
0.000211115
0.000220158
0.000209393
0.000186221
0.000163332
0.00015453
0.000165894
0.000191008
0.000219747
0.000245462
0.000260785
0.000262643
0.000255
0.000243402
0.000228928
0.000192015
0.000184035
0.000174139
0.000159987
0.000144334
0.000131039
0.000115
9.09332e-05
6.59038e-05
5.16539e-05
5.42832e-05
7.40812e-05
0.000106773
0.000140628
0.000161502
0.000162826
0.000150254
0.000131421
0.000109865
9.19565e-05
8.81445e-05
9.7653e-05
0.000116125
0.000144958
0.000181018
0.000210638
0.000220188
0.000209843
0.000185984
0.000162483
0.000151659
0.000159973
0.000182666
0.000210239
0.000234054
0.000246937
0.000244976
0.000231792
0.000215475
0.000202159
0.000168438
0.000163927
0.000161414
0.000156804
0.000148731
0.000137719
0.000122663
0.000102326
7.9201e-05
5.89467e-05
4.9379e-05
5.50285e-05
7.51629e-05
0.000103092
0.000127333
0.000141204
0.000143651
0.000139968
0.000130442
0.000116244
0.000103587
0.000101635
0.000111576
0.000132483
0.000163963
0.000194858
0.000208709
0.000202096
0.000180421
0.000158209
0.000147626
0.000154586
0.000175272
0.000199862
0.000219436
0.00022826
0.000224308
0.000209159
0.000190581
0.000176705
0.000153487
0.000146637
0.000144364
0.000144523
0.000143919
0.000139877
0.000129224
0.000109777
8.52555e-05
6.12079e-05
4.48068e-05
4.04743e-05
4.67551e-05
6.23487e-05
8.28681e-05
0.000102331
0.000116648
0.000126366
0.000130634
0.000126201
0.000115523
0.000110063
0.000117016
0.000134761
0.000161287
0.000187086
0.000197167
0.00018727
0.000163403
0.000139671
0.000129121
0.000137406
0.000160757
0.000188512
0.000210298
0.000219996
0.000217525
0.000204156
0.000184239
0.00016576
0.000168461
0.000160949
0.00015278
0.000146769
0.000142572
0.000136688
0.000128576
0.00011434
9.51104e-05
7.52622e-05
5.97043e-05
5.07029e-05
4.79151e-05
4.99859e-05
5.73895e-05
6.85756e-05
8.22515e-05
9.64903e-05
0.000109994
0.000119436
0.000122939
0.000125096
0.000132346
0.000146296
0.000166218
0.000185956
0.000193783
0.000183467
0.000158504
0.00013059
0.000114566
0.000119515
0.000142471
0.000172305
0.000198478
0.000212689
0.00021443
0.000206501
0.000191788
0.000177814
0.000167665
0.000159211
0.000150775
0.000142079
0.000134134
0.000127669
0.000121412
0.000112741
0.000100744
8.93893e-05
8.31096e-05
8.18349e-05
8.3021e-05
8.53074e-05
8.80284e-05
9.14711e-05
9.51838e-05
0.000100395
0.000106941
0.000114589
0.000121639
0.000125956
0.000131116
0.000141424
0.00015763
0.000174508
0.000182505
0.000174276
0.000152273
0.000127795
0.000112213
0.000112903
0.000129872
0.00015547
0.000180074
0.000195372
0.000200722
0.000198195
0.000189694
0.000178284
0.000162343
0.000147457
0.000131981
0.000117959
0.000108491
0.000104346
0.00010412
0.000104906
0.000103516
0.000100587
9.80178e-05
9.63478e-05
9.53125e-05
9.51462e-05
9.79492e-05
0.000104435
0.000113985
0.000122965
0.000130233
0.000134938
0.000136974
0.000136965
0.000137336
0.000140965
0.000148114
0.000157482
0.000164463
0.000161715
0.00014725
0.000127987
0.000113291
0.000109703
0.000119416
0.000139152
0.000160585
0.000176774
0.000185622
0.000187976
0.000184662
0.000175957
0.000155523
0.000132091
0.000107346
8.7519e-05
7.70965e-05
7.63839e-05
8.19497e-05
9.05224e-05
9.81189e-05
0.000102343
0.000104592
0.000106078
0.000106841
0.000108336
0.000112393
0.000120142
0.000131093
0.000143454
0.000155357
0.000163999
0.000165067
0.000157077
0.000145701
0.000136647
0.000133189
0.000136891
0.000144574
0.000148569
0.000145287
0.000137278
0.000128197
0.000122247
0.000123584
0.000134028
0.00014899
0.000163802
0.00017507
0.000181886
0.00018181
0.000173261
0.000106541
6.05853e-05
2.97269e-05
1.85624e-05
2.95522e-05
5.60732e-05
8.419e-05
0.00010058
0.000100685
9.25567e-05
9.03154e-05
0.000100419
0.000116249
0.000127664
0.000130521
0.000125303
0.000114418
0.00010209
9.02346e-05
7.85255e-05
7.20642e-05
8.12201e-05
0.000110562
0.000153925
0.000200755
0.000240289
0.000265496
0.000280315
0.000291187
0.000302059
0.000319035
0.000343485
0.000362976
0.000365466
0.0003514
0.000327082
0.000296444
0.000258364
0.000213157
0.000160786
0.000108645
6.21807e-05
3.07407e-05
1.89986e-05
2.95148e-05
5.57892e-05
8.39003e-05
0.000100443
0.000100736
9.27243e-05
9.05035e-05
0.000100583
0.000116381
0.000127731
0.000130453
0.000125148
0.00011416
0.000101688
8.96749e-05
7.77951e-05
7.1116e-05
8.00176e-05
0.000109123
0.000152165
0.000198624
0.000237844
0.000262725
0.000277115
0.000287565
0.000298017
0.000314755
0.000339597
0.000360138
0.000363887
0.000351045
0.00032778
0.000297954
0.00026038
0.00021549
0.000163199
0.000109848
6.24293e-05
3.01985e-05
1.7846e-05
2.80667e-05
5.4433e-05
8.29965e-05
0.000100017
0.000100538
9.24464e-05
9.00227e-05
9.99786e-05
0.000115779
0.000127189
0.000130023
0.000124812
0.000113896
0.000101374
8.92401e-05
7.71537e-05
7.0126e-05
7.86441e-05
0.000107564
0.000150518
0.000196871
0.000236074
0.000260751
0.000274562
0.000284217
0.00029369
0.000309717
0.000334981
0.000357025
0.000362685
0.000351729
0.000329874
0.000300842
0.000263413
0.000218304
0.000165346
0.000109711
6.06705e-05
2.72702e-05
1.41907e-05
2.42564e-05
5.11782e-05
8.07886e-05
9.87179e-05
9.95145e-05
9.10521e-05
8.81158e-05
9.78527e-05
0.000113756
0.000125436
0.000128663
0.000123968
0.000113517
0.000101203
8.90703e-05
7.68001e-05
6.94406e-05
7.76373e-05
0.00010661
0.000149855
0.000196422
0.000235891
0.000260434
0.000273562
0.000282204
0.000290198
0.000304851
0.000330246
0.00035402
0.000362056
0.000353572
0.000333638
0.00030542
0.00026779
0.000221693
0.000167125
0.000108623
5.71295e-05
2.20943e-05
7.96772e-06
1.77415e-05
4.5496e-05
7.67167e-05
9.60918e-05
9.7325e-05
8.81837e-05
8.4291e-05
9.35683e-05
0.000109555
0.000121623
0.000125514
0.000121843
0.000112455
0.000100838
8.88911e-05
7.64492e-05
6.87767e-05
7.68697e-05
0.000106332
0.000150361
0.000197529
0.00023746
0.000261907
0.000274288
0.000282093
0.000288623
0.00030129
0.000326058
0.000351268
0.000361736
0.000356132
0.000338818
0.000311836
0.000273925
0.000226113
0.000168963
0.000107328
5.24261e-05
1.51004e-05
-5.77067e-07
8.40371e-06
3.70047e-05
7.03662e-05
9.19298e-05
9.40883e-05
8.41636e-05
7.8784e-05
8.70651e-05
0.000102761
0.000114979
0.000119631
0.00011756
0.000110039
9.98274e-05
8.84146e-05
7.56768e-05
6.71841e-05
7.45969e-05
0.000104415
0.000149722
0.000198254
0.000239355
0.000264133
0.000275986
0.000283537
0.000289519
0.000300337
0.000323578
0.000349264
0.000361612
0.00035894
0.000345059
0.000320145
0.000282462
0.000232444
0.000171735
0.000107214
4.76218e-05
7.14595e-06
-1.08561e-05
-3.8108e-06
2.49965e-05
6.08047e-05
8.57042e-05
9.00735e-05
8.00453e-05
7.30689e-05
7.97197e-05
9.42625e-05
0.000105825
0.000110835
0.000110713
0.000106037
9.81985e-05
8.78429e-05
7.45767e-05
6.40984e-05
6.88517e-05
9.68403e-05
0.000141869
0.000191796
0.000235621
0.000262549
0.000275048
0.000283595
0.000291014
0.000301395
0.000323113
0.000348289
0.000361498
0.000361372
0.000351905
0.000330699
0.000294411
0.000242178
0.00017697
0.000110493
4.47424e-05
4.03788e-08
-2.13133e-05
-1.76686e-05
9.429e-06
4.68388e-05
7.5407e-05
8.36672e-05
7.55928e-05
6.80293e-05
7.29791e-05
8.5939e-05
9.62692e-05
0.000100981
0.000102752
0.000101292
9.64982e-05
8.76528e-05
7.34558e-05
5.93519e-05
5.88144e-05
8.20011e-05
0.000124169
0.000174085
0.000221234
0.000252039
0.000266549
0.000277062
0.000287247
0.000298989
0.000320022
0.000345248
0.000359944
0.000362321
0.00035838
0.000343221
0.000310394
0.000257239
0.000186965
0.000119532
4.6332e-05
-3.74353e-06
-2.91354e-05
-2.97419e-05
-6.10062e-06
3.05191e-05
6.11735e-05
7.27527e-05
6.71626e-05
5.98761e-05
6.34339e-05
7.44556e-05
8.33839e-05
8.82167e-05
9.25473e-05
9.58261e-05
9.48504e-05
8.77077e-05
7.21432e-05
5.2732e-05
4.41942e-05
6.05298e-05
9.84897e-05
0.000147785
0.000197651
0.000232941
0.000250004
0.00026257
0.000275549
0.000288093
0.000307577
0.000332352
0.000350152
0.000358243
0.000362497
0.000356479
0.000329883
0.00027817
0.000203601
0.000136391
5.48434e-05
-1.72869e-06
-3.17541e-05
-3.69483e-05
-1.78293e-05
1.64079e-05
4.70059e-05
5.94058e-05
5.48068e-05
4.7332e-05
4.85299e-05
5.6196e-05
6.29928e-05
6.79993e-05
7.59871e-05
8.51589e-05
8.98636e-05
8.60004e-05
7.02409e-05
4.61771e-05
2.95867e-05
3.83263e-05
7.18683e-05
0.000120092
0.000171643
0.00021046
0.000229351
0.00024223
0.000257528
0.000270913
0.000287143
0.000309904
0.000329593
0.000344374
0.000360013
0.000367693
0.000350754
0.000302873
0.000227189
0.00016239
7.25052e-05
7.32327e-06
-2.82624e-05
-3.76394e-05
-2.19068e-05
1.04494e-05
3.97158e-05
5.01703e-05
4.3696e-05
3.41202e-05
3.23583e-05
3.70376e-05
4.18885e-05
4.71588e-05
5.78046e-05
7.14843e-05
8.07372e-05
8.09671e-05
6.79679e-05
4.38125e-05
2.31114e-05
2.58509e-05
5.49736e-05
0.000100942
0.000152328
0.000192852
0.000212604
0.000223377
0.000237702
0.000252466
0.000265911
0.000284343
0.000304931
0.000324359
0.000349526
0.000372768
0.000369473