/*--------------------------------*- C++ -*----------------------------------*\
| =========                 |                                                 |
| \\      /  F ield         | OpenFOAM: The Open Source CFD Toolbox           |
|  \\    /   O peration     | Version:  2306                                  |
|   \\  /    A nd           | Website:  www.openfoam.com                      |
|    \\/     M anipulation  |                                                 |
\*---------------------------------------------------------------------------*/
FoamFile
{
    version     2.0;
    format      ascii;
    arch        "LSB;label=32;scalar=64";
    class       volScalarField;
    location    "4.5";
    object      pPrime2Mean;
}
// * * * * * * * * * * * * * * * * * * * * * * * * * * * * * * * * * * * * * //

dimensions      [0 4 -4 0 0 0 0];

internalField   nonuniform List<scalar> 
60000
(
9.57869e-10
7.34613e-09
1.47331e-08
1.65144e-08
1.44215e-08
1.24852e-08
1.11051e-08
8.93872e-09
5.97584e-09
5.4221e-09
1.04202e-08
1.70474e-08
1.86512e-08
1.47543e-08
9.27213e-09
5.29178e-09
3.8057e-09
3.82913e-09
3.43401e-09
2.35188e-09
3.42854e-09
9.94162e-09
1.83249e-08
2.06537e-08
1.57974e-08
9.41921e-09
4.96837e-09
4.51777e-09
9.88114e-09
1.66395e-08
1.66712e-08
1.09576e-08
6.57446e-09
5.21858e-09
5.15738e-09
5.53565e-09
6.83107e-09
8.25194e-09
6.51463e-09
1.9292e-09
8.46936e-10
7.11358e-09
1.46418e-08
1.65877e-08
1.44968e-08
1.24678e-08
1.1038e-08
8.87917e-09
5.92047e-09
5.34997e-09
1.03856e-08
1.70993e-08
1.87481e-08
1.48513e-08
9.34165e-09
5.32057e-09
3.81731e-09
3.84169e-09
3.44342e-09
2.33801e-09
3.3863e-09
9.90573e-09
1.83502e-08
2.0694e-08
1.58027e-08
9.4082e-09
4.95109e-09
4.46667e-09
9.83588e-09
1.67079e-08
1.68508e-08
1.11122e-08
6.678e-09
5.29756e-09
5.20968e-09
5.54654e-09
6.83371e-09
8.32905e-09
6.69616e-09
2.05021e-09
7.30644e-10
6.98628e-09
1.47801e-08
1.6898e-08
1.47383e-08
1.25517e-08
1.1034e-08
8.87842e-09
5.8964e-09
5.20273e-09
1.0237e-08
1.71548e-08
1.89795e-08
1.51011e-08
9.50964e-09
5.39076e-09
3.83461e-09
3.84575e-09
3.43924e-09
2.29921e-09
3.33368e-09
9.93385e-09
1.84925e-08
2.08123e-08
1.58161e-08
9.38336e-09
4.91433e-09
4.34307e-09
9.7313e-09
1.68128e-08
1.71132e-08
1.13089e-08
6.80369e-09
5.41491e-09
5.27411e-09
5.52799e-09
6.81424e-09
8.45022e-09
6.94734e-09
2.19139e-09
6.11856e-10
6.99523e-09
1.52051e-08
1.75092e-08
1.51907e-08
1.27703e-08
1.11111e-08
8.93492e-09
5.91246e-09
5.00237e-09
9.95361e-09
1.71646e-08
1.93265e-08
1.55296e-08
9.80845e-09
5.51854e-09
3.86327e-09
3.84775e-09
3.4188e-09
2.22425e-09
3.28864e-09
1.00786e-08
1.88001e-08
2.10306e-08
1.58202e-08
9.30319e-09
4.82929e-09
4.1695e-09
9.63108e-09
1.70118e-08
1.74735e-08
1.15088e-08
6.93276e-09
5.59018e-09
5.37866e-09
5.4904e-09
6.78319e-09
8.64019e-09
7.28323e-09
2.35092e-09
4.88265e-10
7.05458e-09
1.57705e-08
1.83159e-08
1.58313e-08
1.31155e-08
1.12661e-08
9.03663e-09
5.98798e-09
4.8343e-09
9.5407e-09
1.69722e-08
1.96051e-08
1.60498e-08
1.02451e-08
5.73005e-09
3.92811e-09
3.85138e-09
3.39118e-09
2.12844e-09
3.22458e-09
1.02851e-08
1.92328e-08
2.13429e-08
1.59101e-08
9.27761e-09
4.74736e-09
4.00396e-09
9.64979e-09
1.74149e-08
1.79247e-08
1.16661e-08
7.00475e-09
5.80892e-09
5.58502e-09
5.49442e-09
6.78423e-09
8.94549e-09
7.76111e-09
2.56105e-09
3.43276e-10
7.17342e-09
1.6365e-08
1.9164e-08
1.66037e-08
1.35855e-08
1.14639e-08
9.12283e-09
6.09373e-09
4.80709e-09
9.1714e-09
1.65544e-08
1.95991e-08
1.64478e-08
1.07382e-08
6.0307e-09
4.0541e-09
3.90305e-09
3.3773e-09
1.98459e-09
3.09723e-09
1.0512e-08
1.972e-08
2.15716e-08
1.57814e-08
9.21046e-09
4.88483e-09
4.08544e-09
9.93308e-09
1.81782e-08
1.86633e-08
1.18634e-08
6.98496e-09
6.01088e-09
5.87821e-09
5.55739e-09
6.85502e-09
9.56023e-09
8.63973e-09
2.97329e-09
1.90322e-10
6.72503e-09
1.71776e-08
2.03908e-08
1.76213e-08
1.42739e-08
1.17826e-08
9.15762e-09
6.08456e-09
4.9616e-09
9.14109e-09
1.61812e-08
1.93434e-08
1.6546e-08
1.11261e-08
6.37481e-09
4.25338e-09
4.04005e-09
3.44227e-09
1.82293e-09
2.79567e-09
1.06998e-08
2.05813e-08
2.22885e-08
1.56641e-08
8.70009e-09
4.70312e-09
4.49732e-09
1.08961e-08
1.96563e-08
1.99931e-08
1.24105e-08
7.0368e-09
6.11612e-09
6.08127e-09
5.58146e-09
6.86041e-09
1.02684e-08
1.03137e-08
4.21214e-09
3.76633e-10
5.52973e-09
1.73859e-08
2.20749e-08
1.92639e-08
1.52712e-08
1.22767e-08
9.31242e-09
5.98562e-09
4.95526e-09
9.59239e-09
1.65475e-08
1.9201e-08
1.64121e-08
1.12668e-08
6.67902e-09
4.52313e-09
4.28119e-09
3.62168e-09
1.69911e-09
2.38468e-09
1.09969e-08
2.20259e-08
2.36952e-08
1.59271e-08
7.96128e-09
3.84876e-09
4.4018e-09
1.22022e-08
2.18164e-08
2.16278e-08
1.32165e-08
7.5762e-09
6.51582e-09
6.09342e-09
5.14123e-09
6.39216e-09
1.08045e-08
1.24036e-08
6.43398e-09
1.44697e-09
3.9918e-09
1.6957e-08
2.4047e-08
2.15545e-08
1.67493e-08
1.28572e-08
9.52711e-09
6.08312e-09
4.85558e-09
9.42805e-09
1.70355e-08
2.00448e-08
1.67597e-08
1.12246e-08
6.83783e-09
4.84806e-09
4.63265e-09
3.83487e-09
1.58976e-09
2.1645e-09
1.19017e-08
2.42474e-08
2.54447e-08
1.63004e-08
7.35969e-09
2.63215e-09
3.41841e-09
1.336e-08
2.49964e-08
2.40614e-08
1.37874e-08
7.58874e-09
6.92595e-09
6.53985e-09
4.7666e-09
5.51514e-09
1.07398e-08
1.45039e-08
9.58953e-09
3.86809e-09
2.51836e-09
1.54572e-08
2.5736e-08
2.47194e-08
1.89472e-08
1.37698e-08
9.79175e-09
6.2149e-09
4.82721e-09
8.80226e-09
1.60044e-08
1.97322e-08
1.74964e-08
1.20206e-08
7.1323e-09
5.17126e-09
5.12836e-09
4.07327e-09
1.3714e-09
2.32555e-09
1.41994e-08
2.8247e-08
2.83825e-08
1.75261e-08
7.82264e-09
2.15228e-09
1.8749e-09
1.34246e-08
2.7949e-08
2.69146e-08
1.47415e-08
7.82917e-09
7.2445e-09
6.937e-09
4.70428e-09
4.73186e-09
1.01899e-08
1.61162e-08
1.33668e-08
7.39423e-09
1.6695e-09
1.20901e-08
2.55004e-08
2.77053e-08
2.22056e-08
1.5569e-08
1.03339e-08
6.45387e-09
4.73416e-09
7.89594e-09
1.45523e-08
1.83219e-08
1.67012e-08
1.22677e-08
7.65582e-09
5.60298e-09
5.67486e-09
4.4277e-09
1.14628e-09
2.83032e-09
1.7955e-08
3.47217e-08
3.37302e-08
2.1059e-08
1.06279e-08
3.92452e-09
6.18333e-10
1.12027e-08
2.79855e-08
2.85282e-08
1.60077e-08
8.85707e-09
8.56729e-09
7.88487e-09
4.98685e-09
4.1273e-09
8.98855e-09
1.66763e-08
1.68091e-08
1.06232e-08
1.82295e-09
7.5805e-09
2.19042e-08
2.8191e-08
2.558e-08
1.83219e-08
1.15679e-08
6.73606e-09
4.73232e-09
7.1413e-09
1.28094e-08
1.61472e-08
1.48496e-08
1.09369e-08
7.27487e-09
5.66294e-09
5.83012e-09
4.57618e-09
1.1259e-09
3.42001e-09
2.10253e-08
4.07112e-08
3.99001e-08
2.63277e-08
1.48993e-08
7.596e-09
7.47332e-10
6.57393e-09
2.31788e-08
2.73126e-08
1.70675e-08
1.09441e-08
1.08524e-08
9.63991e-09
5.93428e-09
3.81897e-09
7.27353e-09
1.51648e-08
1.84789e-08
1.19144e-08
2.35358e-09
3.58014e-09
1.58665e-08
2.50371e-08
2.66482e-08
2.13164e-08
1.32402e-08
7.30178e-09
4.73242e-09
6.61158e-09
1.1742e-08
1.44319e-08
1.2974e-08
9.11373e-09
5.67267e-09
4.85302e-09
5.67774e-09
4.43344e-09
1.5435e-09
3.93895e-09
2.00252e-08
4.03698e-08
4.24877e-08
3.00746e-08
1.84541e-08
1.03343e-08
2.16497e-09
2.19577e-09
1.49564e-08
2.25673e-08
1.76106e-08
1.3601e-08
1.33894e-08
1.14454e-08
7.52557e-09
4.36336e-09
5.71608e-09
1.20616e-08
1.72453e-08
1.08488e-08
2.54491e-09
1.08951e-09
9.59916e-09
1.94038e-08
2.45758e-08
2.24106e-08
1.43655e-08
7.64983e-09
4.81496e-09
6.32751e-09
1.1287e-08
1.41898e-08
1.27012e-08
8.58366e-09
4.62454e-09
3.90019e-09
5.47737e-09
4.91245e-09
2.33685e-09
4.54032e-09
1.71027e-08
3.48817e-08
4.07752e-08
3.13189e-08
2.01851e-08
1.14606e-08
3.7691e-09
2.46073e-10
7.36646e-09
1.60873e-08
1.76297e-08
1.62906e-08
1.55194e-08
1.25758e-08
8.70619e-09
5.48419e-09
4.88754e-09
8.75194e-09
1.37511e-08
8.98148e-09
2.8817e-09
1.60077e-10
4.65323e-09
1.32098e-08
2.05626e-08
2.12969e-08
1.44967e-08
7.51942e-09
4.78494e-09
6.24397e-09
1.09787e-08
1.43096e-08
1.35038e-08
9.62548e-09
5.20504e-09
3.77299e-09
5.27729e-09
4.88869e-09
2.56092e-09
4.52176e-09
1.43425e-08
2.89213e-08
3.56982e-08
3.09571e-08
2.17543e-08
1.28712e-08
5.58722e-09
4.94315e-10
3.0261e-09
1.10626e-08
1.65189e-08
1.77038e-08
1.66586e-08
1.34766e-08
9.83483e-09
6.55131e-09
4.82005e-09
6.0513e-09
9.90484e-09
7.26667e-09
3.52921e-09
6.48747e-10
1.93118e-09
7.98762e-09
1.58406e-08
1.86082e-08
1.32279e-08
6.87994e-09
4.59756e-09
6.4424e-09
1.08074e-08
1.38266e-08
1.35049e-08
1.05667e-08
6.6444e-09
4.66165e-09
5.36957e-09
4.81782e-09
2.43074e-09
4.48348e-09
1.29756e-08
2.30762e-08
2.77118e-08
2.67355e-08
2.20746e-08
1.42877e-08
7.21236e-09
1.72446e-09
1.16991e-09
7.25294e-09
1.38754e-08
1.69194e-08
1.6866e-08
1.51222e-08
1.17245e-08
7.69309e-09
4.82729e-09
4.62477e-09
7.17033e-09
6.29601e-09
4.32595e-09
1.80579e-09
1.61338e-09
5.217e-09
1.13816e-08
1.48045e-08
1.12469e-08
5.98403e-09
4.18399e-09
6.35352e-09
1.11716e-08
1.41588e-08
1.36823e-08
1.08388e-08
7.28869e-09
5.41414e-09
5.69978e-09
4.96588e-09
2.81555e-09
5.04435e-09
1.25905e-08
1.90731e-08
2.0104e-08
1.96047e-08
1.85741e-08
1.38675e-08
7.83391e-09
2.98014e-09
8.89547e-10
4.3817e-09
1.13771e-08
1.60718e-08
1.64616e-08
1.49014e-08
1.2258e-08
9.13467e-09
5.5649e-09
3.85715e-09
5.55516e-09
5.36453e-09
5.14709e-09
3.68086e-09
2.72865e-09
3.95406e-09
7.68585e-09
1.03261e-08
8.62396e-09
5.09018e-09
3.92604e-09
6.38264e-09
1.08659e-08
1.4532e-08
1.47904e-08
1.23702e-08
8.34271e-09
5.48913e-09
5.07617e-09
4.64887e-09
3.26502e-09
5.63821e-09
1.23462e-08
1.7187e-08
1.67906e-08
1.5068e-08
1.4779e-08
1.26882e-08
7.96201e-09
3.51846e-09
1.20485e-09
4.16944e-09
1.09933e-08
1.62172e-08
1.69343e-08
1.47185e-08
1.18374e-08
8.81135e-09
5.20297e-09
3.02867e-09
4.04861e-09
5.14083e-09
5.84776e-09
4.78597e-09
4.46507e-09
6.07386e-09
7.68874e-09
7.59965e-09
5.90911e-09
3.84004e-09
3.44299e-09
5.64665e-09
9.82724e-09
1.40277e-08
1.61893e-08
1.47934e-08
1.10373e-08
7.05524e-09
5.46082e-09
5.02744e-09
3.88679e-09
4.61672e-09
8.72677e-09
1.33789e-08
1.52342e-08
1.47032e-08
1.46567e-08
1.29705e-08
7.7841e-09
3.08641e-09
1.28972e-09
4.7547e-09
1.08869e-08
1.50835e-08
1.61872e-08
1.49374e-08
1.20532e-08
8.56734e-09
4.96656e-09
2.49891e-09
3.07651e-09
4.06453e-09
5.63705e-09
6.04239e-09
5.96347e-09
6.75849e-09
7.78214e-09
7.76169e-09
6.2341e-09
4.30363e-09
3.46335e-09
4.18334e-09
6.15211e-09
9.42466e-09
1.31785e-08
1.51728e-08
1.336e-08
9.63189e-09
7.56789e-09
7.62197e-09
6.29129e-09
4.13849e-09
4.72977e-09
8.34583e-09
1.32123e-08
1.63718e-08
1.67892e-08
1.40047e-08
8.6527e-09
3.15223e-09
1.12483e-09
4.13086e-09
9.98041e-09
1.45752e-08
1.61741e-08
1.53032e-08
1.20079e-08
8.08035e-09
5.07777e-09
3.14926e-09
2.80045e-09
2.51238e-09
3.84597e-09
6.43166e-09
8.92866e-09
1.02842e-08
9.72365e-09
7.17243e-09
4.92802e-09
4.12115e-09
4.38666e-09
4.77458e-09
5.08737e-09
6.14696e-09
8.83541e-09
1.21996e-08
1.33749e-08
1.17658e-08
9.75635e-09
9.06239e-09
7.97161e-09
5.22679e-09
3.49605e-09
6.06619e-09
1.29945e-08
1.89824e-08
1.92878e-08
1.53599e-08
9.65601e-09
3.77116e-09
4.06215e-10
3.78425e-09
1.2652e-08
1.96481e-08
2.02136e-08
1.66964e-08
1.20817e-08
8.20257e-09
5.81086e-09
4.36867e-09
3.11454e-09
4.79688e-09
2.77664e-09
3.09715e-09
5.6843e-09
8.67605e-09
9.64151e-09
7.76212e-09
5.43168e-09
4.298e-09
4.46659e-09
5.04187e-09
5.55924e-09
6.14967e-09
7.05669e-09
8.51517e-09
1.02118e-08
1.13366e-08
1.17727e-08
1.11973e-08
9.16263e-09
6.05322e-09
4.04427e-09
5.34414e-09
1.06469e-08
1.704e-08
1.96251e-08
1.75854e-08
1.26612e-08
6.12127e-09
7.33295e-10
2.30317e-09
1.27968e-08
2.3757e-08
2.61948e-08
2.12167e-08
1.34126e-08
7.2661e-09
5.04689e-09
5.80221e-09
6.49746e-09
6.42817e-09
4.92418e-09
3.71999e-09
3.70663e-09
4.72792e-09
6.14062e-09
6.97419e-09
6.74383e-09
6.13058e-09
5.78254e-09
5.49695e-09
5.72821e-09
6.71919e-09
7.72329e-09
8.09386e-09
8.20511e-09
8.87995e-09
9.93217e-09
1.0469e-08
9.36736e-09
6.90171e-09
4.95749e-09
5.30288e-09
8.5745e-09
1.29552e-08
1.50095e-08
1.37656e-08
1.03843e-08
5.53116e-09
1.27249e-09
1.5774e-09
8.30244e-09
1.70607e-08
2.11919e-08
1.87906e-08
1.31917e-08
8.1834e-09
5.83808e-09
5.96871e-09
6.66607e-09
6.87619e-09
4.25939e-09
2.25881e-09
2.57752e-09
4.93549e-09
7.78633e-09
9.33536e-09
9.52461e-09
8.69837e-09
7.34025e-09
6.00651e-09
5.17253e-09
5.13872e-09
6.02323e-09
7.7693e-09
9.56148e-09
1.05233e-08
1.07029e-08
1.0043e-08
8.91504e-09
7.11722e-09
5.36532e-09
4.47291e-09
5.52511e-09
8.81929e-09
1.24359e-08
1.32647e-08
1.05727e-08
6.09388e-09
2.23725e-09
1.64116e-09
5.65469e-09
1.20985e-08
1.65151e-08
1.67891e-08
1.32362e-08
9.30671e-09
7.34316e-09
7.57719e-09
8.00594e-09
8.00147e-09
5.2134e-09
2.41524e-09
1.69783e-09
3.95733e-09
7.78248e-09
1.09053e-08
1.15687e-08
1.06327e-08
8.61343e-09
6.56795e-09
5.66873e-09
6.33855e-09
7.51858e-09
8.00399e-09
8.20779e-09
9.36531e-09
1.13321e-08
1.26114e-08
1.12371e-08
8.04588e-09
4.98986e-09
3.12283e-09
3.04702e-09
5.53513e-09
9.73629e-09
1.23842e-08
1.19547e-08
8.56013e-09
4.24908e-09
2.5027e-09
4.52325e-09
9.17502e-09
1.34848e-08
1.47443e-08
1.3308e-08
1.08051e-08
8.96767e-09
8.52442e-09
8.71471e-09
4.61784e-09
4.78516e-15
4.94252e-09
1.44405e-08
2.06564e-08
2.09072e-08
1.68191e-08
1.1123e-08
6.30593e-09
5.67664e-09
1.08409e-08
1.6053e-08
1.56089e-08
1.12506e-08
6.75578e-09
4.13228e-09
4.03313e-09
5.09733e-09
4.9098e-09
3.06308e-09
2.81645e-09
9.32451e-09
2.14938e-08
2.90381e-08
2.48688e-08
1.4482e-08
7.74757e-09
5.87909e-09
6.02799e-09
7.40495e-09
9.29984e-09
9.778e-09
8.75633e-09
7.07765e-09
5.41316e-09
5.32907e-09
8.15029e-09
1.22194e-08
1.46505e-08
1.21395e-08
4.87035e-09
5.02931e-12
4.64522e-09
1.40741e-08
2.04303e-08
2.08345e-08
1.68203e-08
1.11326e-08
6.28393e-09
5.63397e-09
1.08452e-08
1.61551e-08
1.57171e-08
1.13163e-08
6.78377e-09
4.13818e-09
4.03579e-09
5.10897e-09
4.93034e-09
3.07746e-09
2.75652e-09
9.09928e-09
2.11496e-08
2.87711e-08
2.48032e-08
1.45234e-08
7.78925e-09
5.95195e-09
6.13522e-09
7.46454e-09
9.31149e-09
9.82431e-09
8.87131e-09
7.20773e-09
5.50767e-09
5.40095e-09
8.20193e-09
1.22763e-08
1.47613e-08
1.23796e-08
5.32162e-09
2.48751e-11
4.43168e-09
1.39732e-08
2.05531e-08
2.10676e-08
1.70082e-08
1.12202e-08
6.26095e-09
5.51755e-09
1.08022e-08
1.62823e-08
1.58935e-08
1.14239e-08
6.81845e-09
4.12856e-09
4.02501e-09
5.13049e-09
4.9706e-09
3.09391e-09
2.67945e-09
8.91158e-09
2.09642e-08
2.87142e-08
2.48651e-08
1.45682e-08
7.78127e-09
6.00998e-09
6.25416e-09
7.47603e-09
9.20639e-09
9.77291e-09
8.99319e-09
7.41533e-09
5.64559e-09
5.43143e-09
8.23081e-09
1.2441e-08
1.51561e-08
1.29751e-08
6.0171e-09
7.1181e-11
4.38255e-09
1.42544e-08
2.10957e-08
2.16267e-08
1.73969e-08
1.1402e-08
6.24893e-09
5.32765e-09
1.06614e-08
1.63992e-08
1.61231e-08
1.15772e-08
6.85874e-09
4.09378e-09
3.99463e-09
5.15651e-09
5.02952e-09
3.10439e-09
2.60119e-09
8.86488e-09
2.11033e-08
2.89828e-08
2.50567e-08
1.45694e-08
7.66116e-09
5.99491e-09
6.36435e-09
7.47096e-09
9.02646e-09
9.59547e-09
9.03035e-09
7.63885e-09
5.82815e-09
5.44902e-09
8.27577e-09
1.28101e-08
1.59845e-08
1.40717e-08
7.07699e-09
1.77721e-10
4.47858e-09
1.48812e-08
2.20113e-08
2.2463e-08
1.79739e-08
1.1682e-08
6.2995e-09
5.15095e-09
1.04057e-08
1.63606e-08
1.62803e-08
1.17368e-08
6.91086e-09
4.03909e-09
3.94431e-09
5.19428e-09
5.09479e-09
3.09758e-09
2.53428e-09
8.95934e-09
2.15382e-08
2.95359e-08
2.53967e-08
1.45913e-08
7.50897e-09
5.93155e-09
6.47654e-09
7.51775e-09
8.88925e-09
9.32979e-09
8.86411e-09
7.71407e-09
5.96704e-09
5.48422e-09
8.40346e-09
1.34437e-08
1.73191e-08
1.58031e-08
8.6961e-09
4.21753e-10
4.61222e-09
1.56671e-08
2.31173e-08
2.34569e-08
1.86691e-08
1.20335e-08
6.41712e-09
5.13503e-09
1.02291e-08
1.61417e-08
1.61735e-08
1.17655e-08
6.95068e-09
3.98382e-09
3.88153e-09
5.24455e-09
5.19331e-09
3.08631e-09
2.41527e-09
9.01668e-09
2.19729e-08
3.01959e-08
2.58679e-08
1.47278e-08
7.48548e-09
6.0641e-09
6.75472e-09
7.72151e-09
8.95603e-09
9.15001e-09
8.5083e-09
7.49397e-09
5.89183e-09
5.48104e-09
8.73811e-09
1.44585e-08
1.92343e-08
1.83244e-08
1.13816e-08
9.49049e-10
4.58435e-09
1.64018e-08
2.42416e-08
2.44305e-08
1.9355e-08
1.23954e-08
6.52243e-09
5.27276e-09
1.04187e-08
1.61208e-08
1.59398e-08
1.15517e-08
6.86495e-09
3.91314e-09
3.826e-09
5.32167e-09
5.35311e-09
3.11446e-09
2.12398e-09
8.7103e-09
2.23046e-08
3.1242e-08
2.67832e-08
1.49648e-08
7.44003e-09
6.42593e-09
7.61359e-09
8.44991e-09
9.47988e-09
9.35151e-09
8.21732e-09
7.05425e-09
5.49661e-09
5.25382e-09
9.24457e-09
1.60642e-08
2.18569e-08
2.19296e-08
1.54435e-08
2.06549e-09
3.99904e-09
1.6418e-08
2.54025e-08
2.56128e-08
2.01683e-08
1.28969e-08
6.75487e-09
5.25218e-09
1.03628e-08
1.62654e-08
1.6155e-08
1.14763e-08
6.68527e-09
3.76328e-09
3.74692e-09
5.41924e-09
5.58354e-09
3.24648e-09
1.66844e-09
7.86954e-09
2.25609e-08
3.29272e-08
2.87314e-08
1.576e-08
7.21655e-09
6.5637e-09
8.78095e-09
9.90071e-09
1.05856e-08
1.0107e-08
8.5191e-09
6.91599e-09
5.03833e-09
4.71153e-09
9.59377e-09
1.78668e-08
2.47737e-08
2.61462e-08
2.06095e-08
4.15061e-09
2.92392e-09
1.51439e-08
2.59371e-08
2.71661e-08
2.14003e-08
1.36524e-08
7.25003e-09
5.26159e-09
9.59169e-09
1.53333e-08
1.59765e-08
1.185e-08
6.88682e-09
3.66575e-09
3.59794e-09
5.45416e-09
5.80048e-09
3.45938e-09
1.29529e-09
6.62706e-09
2.17514e-08
3.34789e-08
3.01102e-08
1.67137e-08
7.00576e-09
6.14819e-09
9.75801e-09
1.19377e-08
1.24826e-08
1.09566e-08
8.67006e-09
7.21984e-09
5.32574e-09
4.32037e-09
9.29672e-09
1.90262e-08
2.74109e-08
3.03629e-08
2.63779e-08
7.63283e-09
1.86762e-09
1.29476e-08
2.54503e-08
2.89015e-08
2.32117e-08
1.47598e-08
7.8593e-09
5.40755e-09
8.96529e-09
1.4041e-08
1.49016e-08
1.16765e-08
7.28359e-09
4.00656e-09
3.60004e-09
5.39378e-09
5.84445e-09
3.53657e-09
1.19226e-09
5.86826e-09
2.05539e-08
3.20852e-08
2.87186e-08
1.61039e-08
6.42776e-09
5.12093e-09
1.00605e-08
1.4533e-08
1.55249e-08
1.2717e-08
8.92817e-09
7.11182e-09
5.72312e-09
4.46585e-09
8.97659e-09
1.8801e-08
2.88473e-08
3.41092e-08
3.18552e-08
1.26004e-08
1.52175e-09
1.00602e-08
2.41521e-08
3.08577e-08
2.58208e-08
1.61591e-08
8.43689e-09
5.49855e-09
8.40341e-09
1.29164e-08
1.3663e-08
1.08804e-08
7.12143e-09
4.32102e-09
3.99994e-09
5.58397e-09
5.77392e-09
3.25172e-09
1.21127e-09
6.36392e-09
2.07694e-08
3.07976e-08
2.59877e-08
1.42523e-08
5.33985e-09
3.60188e-09
9.13182e-09
1.66316e-08
1.92059e-08
1.55765e-08
1.02475e-08
7.575e-09
6.39187e-09
4.85256e-09
8.35612e-09
1.73519e-08
2.82583e-08
3.62563e-08
3.4465e-08
1.73356e-08
2.27566e-09
6.34531e-09
2.10065e-08
3.16561e-08
2.95809e-08
1.83773e-08
9.11497e-09
5.32252e-09
7.79416e-09
1.22463e-08
1.29346e-08
1.01183e-08
6.62547e-09
4.2881e-09
4.29564e-09
5.9211e-09
5.83744e-09
2.89773e-09
1.45852e-09
8.16627e-09
2.30796e-08
3.13242e-08
2.42864e-08
1.33595e-08
4.9558e-09
2.33665e-09
6.61711e-09
1.58879e-08
2.13647e-08
1.83966e-08
1.23863e-08
9.01618e-09
7.52046e-09
5.84323e-09
8.05176e-09
1.54781e-08
2.5689e-08
3.53415e-08
3.27187e-08
1.97066e-08
3.8725e-09
3.06942e-09
1.60019e-08
2.9603e-08
3.13842e-08
2.116e-08
1.01351e-08
5.28137e-09
7.40141e-09
1.22026e-08
1.31998e-08
9.9078e-09
6.03807e-09
3.89323e-09
4.3764e-09
6.22849e-09
6.06348e-09
3.09489e-09
2.0581e-09
9.8397e-09
2.51963e-08
3.18096e-08
2.45908e-08
1.4113e-08
6.04983e-09
2.28935e-09
4.04382e-09
1.18084e-08
1.93948e-08
1.92474e-08
1.47021e-08
1.14737e-08
9.57407e-09
7.15533e-09
7.75297e-09
1.3525e-08
2.21577e-08
3.12051e-08
2.70529e-08
1.84536e-08
5.09613e-09
1.05692e-09
1.04585e-08
2.46305e-08
3.02554e-08
2.27513e-08
1.13439e-08
5.46829e-09
7.47212e-09
1.26653e-08
1.41074e-08
1.04379e-08
5.98345e-09
3.56049e-09
4.38025e-09
6.57456e-09
6.34272e-09
3.31052e-09
2.65627e-09
9.57612e-09
2.2579e-08
2.89682e-08
2.42844e-08
1.56037e-08
8.06349e-09
3.31815e-09
2.88026e-09
7.4911e-09
1.43843e-08
1.65601e-08
1.53282e-08
1.38289e-08
1.23734e-08
9.11403e-09
7.22397e-09
1.08498e-08
1.80381e-08
2.51385e-08
1.98074e-08
1.45454e-08
5.2032e-09
2.55996e-10
5.91499e-09
1.85091e-08
2.65712e-08
2.24965e-08
1.24861e-08
6.0329e-09
7.56338e-09
1.29519e-08
1.4868e-08
1.14506e-08
6.92505e-09
4.39531e-09
4.53168e-09
5.78322e-09
5.22596e-09
2.92503e-09
3.28819e-09
9.2596e-09
1.89103e-08
2.48217e-08
2.32721e-08
1.73866e-08
1.00361e-08
4.42707e-09
2.59051e-09
4.8065e-09
9.84378e-09
1.34537e-08
1.47845e-08
1.47045e-08
1.36976e-08
1.09619e-08
7.60362e-09
8.17669e-09
1.31782e-08
1.84962e-08
1.28495e-08
9.54363e-09
4.1259e-09
1.46301e-10
2.69314e-09
1.18176e-08
2.00544e-08
1.96561e-08
1.22225e-08
6.85049e-09
8.16756e-09
1.31848e-08
1.54991e-08
1.26068e-08
7.97795e-09
5.16326e-09
4.96077e-09
5.6061e-09
4.34398e-09
2.26819e-09
4.2083e-09
1.08429e-08
1.77333e-08
2.11086e-08
2.10042e-08
1.84502e-08
1.24211e-08
6.25344e-09
2.48154e-09
3.00056e-09
7.47846e-09
1.21775e-08
1.41579e-08
1.51297e-08
1.50087e-08
1.26871e-08
8.43529e-09
6.105e-09
8.47054e-09
1.22396e-08
9.01429e-09
6.06119e-09
2.3953e-09
5.54827e-10
2.35128e-09
6.68986e-09
1.07256e-08
1.21272e-08
9.96956e-09
7.47783e-09
9.43188e-09
1.43929e-08
1.66633e-08
1.37999e-08
8.79695e-09
5.62712e-09
5.13202e-09
5.73103e-09
4.53509e-09
2.38141e-09
4.56877e-09
1.18299e-08
1.7512e-08
1.82483e-08
1.72289e-08
1.64418e-08
1.29336e-08
7.37215e-09
3.07217e-09
2.3463e-09
5.72708e-09
1.09826e-08
1.43123e-08
1.52948e-08
1.51053e-08
1.36385e-08
9.57013e-09
5.23776e-09
5.52199e-09
8.79778e-09
7.49759e-09
5.36696e-09
2.77927e-09
1.97026e-09
3.73586e-09
5.47529e-09
6.01559e-09
5.93904e-09
6.05468e-09
6.55124e-09
9.85291e-09
1.55045e-08
1.8319e-08
1.52106e-08
9.97294e-09
6.20739e-09
4.82655e-09
5.06096e-09
4.6834e-09
3.14131e-09
4.53989e-09
1.06926e-08
1.7e-08
1.82876e-08
1.62415e-08
1.4091e-08
1.16723e-08
7.30179e-09
3.37285e-09
2.24706e-09
5.20814e-09
1.01608e-08
1.3927e-08
1.55509e-08
1.52206e-08
1.32872e-08
9.16229e-09
4.7018e-09
3.61581e-09
6.14083e-09
7.11131e-09
6.6925e-09
4.14724e-09
3.95101e-09
6.7937e-09
7.91928e-09
5.42579e-09
3.21653e-09
2.86426e-09
4.19022e-09
7.31699e-09
1.23531e-08
1.69822e-08
1.75693e-08
1.39765e-08
9.48418e-09
5.79281e-09
4.29186e-09
4.5566e-09
4.18709e-09
4.19406e-09
7.9378e-09
1.39679e-08
1.8144e-08
1.80166e-08
1.48361e-08
1.09091e-08
6.4439e-09
3.1031e-09
2.31698e-09
5.10488e-09
9.37688e-09
1.27624e-08
1.4757e-08
1.46747e-08
1.26511e-08
9.2528e-09
4.94643e-09
2.59452e-09
4.26893e-09
5.48861e-09
7.13828e-09
6.65141e-09
5.65559e-09
5.90717e-09
6.74451e-09
6.38043e-09
4.89402e-09
3.45416e-09
2.93637e-09
4.05665e-09
7.16426e-09
1.13539e-08
1.40556e-08
1.45857e-08
1.23411e-08
9.16273e-09
6.69904e-09
6.03283e-09
5.12021e-09
3.85052e-09
4.34713e-09
8.79822e-09
1.56512e-08
2.01153e-08
1.83446e-08
1.25519e-08
6.29563e-09
2.72845e-09
2.4124e-09
5.61947e-09
9.60744e-09
1.18766e-08
1.26642e-08
1.22409e-08
1.0679e-08
8.26908e-09
5.4793e-09
3.29086e-09
3.46197e-09
3.77742e-09
5.66015e-09
7.08862e-09
7.9253e-09
8.87748e-09
8.75981e-09
6.60851e-09
4.34057e-09
3.38237e-09
3.47144e-09
3.67632e-09
4.47377e-09
6.77922e-09
1.01756e-08
1.27577e-08
1.33427e-08
1.24274e-08
1.07001e-08
8.73708e-09
6.48837e-09
4.27612e-09
3.98616e-09
7.40967e-09
1.35738e-08
1.79505e-08
1.69105e-08
1.20349e-08
6.27407e-09
2.53736e-09
1.85054e-09
5.7558e-09
1.1767e-08
1.51713e-08
1.45795e-08
1.16413e-08
9.02149e-09
7.45735e-09
6.20958e-09
4.51879e-09
3.24792e-09
5.09608e-09
3.74287e-09
4.35274e-09
6.35533e-09
8.41328e-09
9.07116e-09
6.95917e-09
4.39042e-09
3.25715e-09
3.84486e-09
4.83871e-09
5.16065e-09
5.22629e-09
5.97099e-09
7.64639e-09
9.82198e-09
1.20106e-08
1.32396e-08
1.24166e-08
9.53672e-09
6.54374e-09
5.44909e-09
6.98956e-09
1.07391e-08
1.43214e-08
1.47083e-08
1.20315e-08
7.86842e-09
3.52446e-09
1.07622e-09
3.82655e-09
1.11418e-08
1.72379e-08
1.84195e-08
1.4644e-08
9.4693e-09
5.92502e-09
5.37454e-09
6.57899e-09
6.63381e-09
6.24778e-09
4.79679e-09
4.26441e-09
4.85568e-09
5.96913e-09
6.5865e-09
5.92443e-09
4.7403e-09
4.23472e-09
4.77906e-09
5.81066e-09
6.73622e-09
7.34345e-09
7.23809e-09
6.39499e-09
5.75686e-09
6.85397e-09
8.94725e-09
1.05101e-08
9.72717e-09
6.99566e-09
5.6295e-09
7.02857e-09
1.03593e-08
1.3185e-08
1.33496e-08
1.12528e-08
8.18155e-09
4.57853e-09
1.70879e-09
2.67718e-09
8.3358e-09
1.49657e-08
1.78693e-08
1.53817e-08
1.07736e-08
7.14419e-09
5.89075e-09
6.51642e-09
7.04509e-09
6.74633e-09
4.49755e-09
3.13233e-09
3.35197e-09
4.71618e-09
6.09247e-09
6.83084e-09
7.14669e-09
7.43622e-09
7.19768e-09
6.35821e-09
5.44222e-09
5.43136e-09
6.45701e-09
7.9853e-09
9.05324e-09
8.9929e-09
8.95509e-09
8.73837e-09
8.00143e-09
6.72476e-09
5.52837e-09
5.52355e-09
6.95151e-09
9.31555e-09
1.12388e-08
1.11875e-08
8.99228e-09
5.54645e-09
2.58468e-09
2.60169e-09
6.48952e-09
1.19957e-08
1.5296e-08
1.46761e-08
1.14937e-08
8.31709e-09
7.07601e-09
7.58229e-09
7.90225e-09
7.56997e-09
5.0124e-09
2.58944e-09
1.83369e-09
3.4699e-09
6.50526e-09
9.35089e-09
1.0861e-08
1.06854e-08
9.24097e-09
7.18114e-09
5.88481e-09
6.12161e-09
7.19941e-09
7.89463e-09
8.26955e-09
9.29403e-09
1.07484e-08
1.13828e-08
1.01017e-08
7.32068e-09
4.70739e-09
3.29661e-09
3.82631e-09
6.29229e-09
9.40205e-09
1.12064e-08
1.04293e-08
7.54969e-09
4.38796e-09
3.50122e-09
5.54613e-09
9.03571e-09
1.17205e-08
1.23152e-08
1.12404e-08
1.00205e-08
9.20738e-09
9.05075e-09
8.83894e-09
4.8461e-09
1.92531e-09
1.00558e-09
3.89928e-09
9.50155e-09
1.45039e-08
1.55062e-08
1.21295e-08
7.22917e-09
4.8811e-09
7.44623e-09
1.16727e-08
1.21332e-08
9.03977e-09
5.88819e-09
4.59815e-09
5.2515e-09
6.00902e-09
5.14736e-09
3.67152e-09
4.17088e-09
9.13596e-09
1.79552e-08
2.46906e-08
2.37058e-08
1.68709e-08
1.06609e-08
6.99961e-09
5.48903e-09
6.86853e-09
1.02973e-08
1.29473e-08
1.26539e-08
1.01593e-08
7.3405e-09
5.56449e-09
5.46272e-09
6.70493e-09
7.35007e-09
6.85224e-09
4.94751e-09
1.96645e-09
9.61897e-10
3.79777e-09
9.39065e-09
1.44346e-08
1.55062e-08
1.21716e-08
7.27045e-09
4.90054e-09
7.45572e-09
1.17005e-08
1.21726e-08
9.06165e-09
5.88673e-09
4.58594e-09
5.24766e-09
6.02148e-09
5.15943e-09
3.66103e-09
4.12278e-09
9.03124e-09
1.77959e-08
2.45186e-08
2.35833e-08
1.68013e-08
1.06185e-08
6.96913e-09
5.40541e-09
6.72208e-09
1.01857e-08
1.30106e-08
1.28958e-08
1.04331e-08
7.518e-09
5.65041e-09
5.5069e-09
6.77083e-09
7.44281e-09
6.95403e-09
5.08111e-09
2.00121e-09
9.03827e-10
3.72569e-09
9.3622e-09
1.44995e-08
1.56342e-08
1.22995e-08
7.33655e-09
4.88404e-09
7.41534e-09
1.17268e-08
1.22371e-08
9.08599e-09
5.86673e-09
4.56909e-09
5.25998e-09
6.06202e-09
5.18393e-09
3.64107e-09
4.05533e-09
8.92557e-09
1.76917e-08
2.44786e-08
2.36024e-08
1.68032e-08
1.06037e-08
6.96789e-09
5.30679e-09
6.45475e-09
9.86312e-09
1.29409e-08
1.32454e-08
1.09318e-08
7.85551e-09
5.79733e-09
5.56477e-09
6.86385e-09
7.57063e-09
7.11177e-09
5.27243e-09
2.03356e-09
8.30631e-10
3.68512e-09
9.44304e-09
1.47205e-08
1.59057e-08
1.25061e-08
7.40801e-09
4.81165e-09
7.30516e-09
1.17423e-08
1.23326e-08
9.12084e-09
5.8406e-09
4.55263e-09
5.31097e-09
6.15602e-09
5.22743e-09
3.60562e-09
3.98228e-09
8.89398e-09
1.77743e-08
2.46836e-08
2.3813e-08
1.68463e-08
1.05673e-08
6.96533e-09
5.215e-09
6.13437e-09
9.34667e-09
1.26245e-08
1.35456e-08
1.15943e-08
8.37677e-09
6.04463e-09
5.70314e-09
7.02959e-09
7.79326e-09
7.36171e-09
5.54831e-09
2.07876e-09
7.43228e-10
3.65114e-09
9.59359e-09
1.50527e-08
1.62857e-08
1.27693e-08
7.47636e-09
4.68251e-09
7.09423e-09
1.16715e-08
1.23924e-08
9.14395e-09
5.80556e-09
4.54531e-09
5.41646e-09
6.33037e-09
5.3177e-09
3.55212e-09
3.90184e-09
8.9713e-09
1.81226e-08
2.5217e-08
2.43119e-08
1.69909e-08
1.047e-08
6.90776e-09
5.15861e-09
5.92996e-09
8.82551e-09
1.20313e-08
1.35527e-08
1.22289e-08
9.05075e-09
6.45569e-09
5.99702e-09
7.31544e-09
8.15491e-09
7.74467e-09
5.9508e-09
2.16468e-09
6.43955e-10
3.58133e-09
9.75644e-09
1.54579e-08
1.67558e-08
1.30767e-08
7.55253e-09
4.53536e-09
6.78109e-09
1.13991e-08
1.22658e-08
9.08743e-09
5.76009e-09
4.56039e-09
5.59483e-09
6.60723e-09
5.47535e-09
3.49922e-09
3.75084e-09
8.94143e-09
1.8474e-08
2.60461e-08
2.53625e-08
1.76021e-08
1.05405e-08
6.7779e-09
5.08612e-09
5.98009e-09
8.62982e-09
1.13528e-08
1.31042e-08
1.25433e-08
9.73687e-09
7.0672e-09
6.57559e-09
7.82565e-09
8.74662e-09
8.34081e-09
6.59372e-09
2.3228e-09
5.37763e-10
3.42368e-09
9.77456e-09
1.57802e-08
1.72775e-08
1.3455e-08
7.66289e-09
4.44231e-09
6.48581e-09
1.09339e-08
1.17871e-08
8.72086e-09
5.58135e-09
4.59814e-09
5.87159e-09
7.00421e-09
5.72508e-09
3.48319e-09
3.47383e-09
8.43268e-09
1.81521e-08
2.66118e-08
2.69431e-08
1.90971e-08
1.1334e-08
7.00108e-09
5.00229e-09
6.23696e-09
9.10417e-09
1.11222e-08
1.23955e-08
1.23181e-08
1.01817e-08
7.83299e-09
7.57167e-09
8.75994e-09
9.74381e-09
9.33554e-09
7.69413e-09
2.64713e-09
4.07286e-10
3.19298e-09
9.53542e-09
1.57644e-08
1.7596e-08
1.38827e-08
7.86224e-09
4.47343e-09
6.33209e-09
1.05387e-08
1.13021e-08
8.30873e-09
5.25814e-09
4.56252e-09
6.21378e-09
7.52532e-09
6.06768e-09
3.52421e-09
3.08586e-09
7.33943e-09
1.69673e-08
2.67534e-08
2.88662e-08
2.1257e-08
1.26897e-08
7.91518e-09
5.33957e-09
6.26351e-09
9.66691e-09
1.1836e-08
1.2491e-08
1.19766e-08
1.02387e-08
8.58238e-09
9.01791e-09
1.04218e-08
1.14158e-08
1.10091e-08
9.57586e-09
3.23871e-09
2.82273e-10
2.86795e-09
9.156e-09
1.5519e-08
1.76789e-08
1.41856e-08
8.14171e-09
4.56189e-09
6.10741e-09
9.82478e-09
1.04572e-08
7.93305e-09
5.47926e-09
5.05719e-09
6.83539e-09
8.17671e-09
6.48775e-09
3.632e-09
2.70122e-09
5.87027e-09
1.49968e-08
2.64477e-08
3.07987e-08
2.38227e-08
1.41888e-08
9.02169e-09
6.33213e-09
6.46003e-09
9.19944e-09
1.17458e-08
1.33e-08
1.30161e-08
1.07408e-08
9.25114e-09
1.07254e-08
1.27544e-08
1.39589e-08
1.36813e-08
1.25779e-08
4.44501e-09
2.09946e-10
2.45203e-09
8.72941e-09
1.52297e-08
1.76285e-08
1.43192e-08
8.36491e-09
4.59569e-09
5.74895e-09
8.88624e-09
9.25403e-09
7.14895e-09
5.58021e-09
6.15942e-09
8.38457e-09
9.48461e-09
7.14677e-09
3.84945e-09
2.59381e-09
4.4988e-09
1.21787e-08
2.44103e-08
3.12756e-08
2.59105e-08
1.53913e-08
9.59291e-09
7.22692e-09
7.26972e-09
8.91168e-09
1.05524e-08
1.27407e-08
1.41831e-08
1.24666e-08
1.06742e-08
1.24089e-08
1.51073e-08
1.69248e-08
1.71485e-08
1.63825e-08
6.82813e-09
4.16928e-10
1.78582e-09
8.30943e-09
1.55792e-08
1.80915e-08
1.42541e-08
8.17683e-09
4.36172e-09
5.24889e-09
8.08617e-09
8.4822e-09
6.76711e-09
5.63846e-09
6.71373e-09
9.65128e-09
1.10714e-08
8.13928e-09
4.18393e-09
2.85182e-09
4.01787e-09
9.43206e-09
2.0524e-08
2.91139e-08
2.65465e-08
1.64837e-08
9.52971e-09
7.05984e-09
7.83539e-09
9.39645e-09
9.72261e-09
1.07891e-08
1.34483e-08
1.37e-08
1.28307e-08
1.42082e-08
1.65174e-08
1.88846e-08
2.02458e-08
1.88826e-08
9.90568e-09
1.41283e-09
7.6339e-10
7.02416e-09