/*--------------------------------*- C++ -*----------------------------------*\
| =========                 |                                                 |
| \\      /  F ield         | OpenFOAM: The Open Source CFD Toolbox           |
|  \\    /   O peration     | Version:  2306                                  |
|   \\  /    A nd           | Website:  www.openfoam.com                      |
|    \\/     M anipulation  |                                                 |
\*---------------------------------------------------------------------------*/
FoamFile
{
    version     2.0;
    format      ascii;
    arch        "LSB;label=32;scalar=64";
    class       volScalarField;
    location    "2";
    object      p;
}
// * * * * * * * * * * * * * * * * * * * * * * * * * * * * * * * * * * * * * //

dimensions      [0 2 -2 0 0 0 0];

internalField   nonuniform List<scalar> 
60000
(
5.73742e-05
0.000101209
0.000166541
0.000210804
0.000231254
0.000247879
0.000259729
0.000246706
0.000207207
0.000182549
0.00020472
0.000264546
0.000326148
0.000352138
0.000327586
0.000275401
0.000228683
0.000189529
0.000145023
0.000102415
7.85107e-05
9.93184e-05
0.000162435
0.000224252
0.000259888
0.000263123
0.000239805
0.000221156
0.000255916
0.000323891
0.000361413
0.000356325
0.000336562
0.000322546
0.000305825
0.000285123
0.000264735
0.000233676
0.000161244
8.23808e-05
5.53193e-05
9.81705e-05
0.000163975
0.000209299
0.00023034
0.000246897
0.000258497
0.000245166
0.000205275
0.000180386
0.000202607
0.000262898
0.000325156
0.000351795
0.000327791
0.000275882
0.000229412
0.000190232
0.000145592
0.000102582
7.81882e-05
9.87472e-05
0.00016202
0.000223699
0.000258901
0.000261683
0.00023817
0.000219161
0.000253653
0.00032254
0.000361126
0.000356791
0.000337937
0.000324269
0.00030789
0.000287202
0.000266644
0.000236074
0.000163084
8.23212e-05
5.0202e-05
9.32322e-05
0.000160345
0.000207482
0.000229364
0.000245998
0.00025767
0.000244371
0.000203938
0.000177749
0.000199136
0.00026005
0.000323928
0.000352051
0.000328906
0.000277042
0.00023027
0.000190754
0.000145711
0.000101856
7.69469e-05
9.75945e-05
0.000161655
0.000223171
0.000257817
0.000260053
0.000235985
0.000215515
0.000249702
0.000320067
0.000360145
0.000356621
0.000338956
0.000326192
0.00030977
0.00028828
0.00026752
0.00023723
0.000163179
7.94953e-05
4.12633e-05
8.61461e-05
0.000155535
0.000205292
0.000228238
0.000245145
0.000257268
0.000244262
0.000203269
0.000175039
0.00019456
0.000255778
0.000322265
0.000353082
0.000331251
0.000279072
0.000231326
0.000191396
0.000144952
0.000100071
7.48416e-05
9.61418e-05
0.000161907
0.000223258
0.000257093
0.000258293
0.000233149
0.000210489
0.00024426
0.000316859
0.000358566
0.000355467
0.000339171
0.000328368
0.000312204
0.000288347
0.000267891
0.000237102
0.0001614
7.35102e-05
2.9999e-05
7.72008e-05
0.000149123
0.000202094
0.000226461
0.000243901
0.00025688
0.000244675
0.000203769
0.000173616
0.000190217
0.000250434
0.000319347
0.000354168
0.000334698
0.000282178
0.000233192
0.000191911
0.000144674
9.76348e-05
7.17797e-05
9.41884e-05
0.000162178
0.000222907
0.000256477
0.000256413
0.000229702
0.000204266
0.000238039
0.000313972
0.000357338
0.000353633
0.000338401
0.000330752
0.000315608
0.000289177
0.000267691
0.000237582
0.00015922
6.53466e-05
1.5162e-05
6.63667e-05
0.000140754
0.000196859
0.00022299
0.000241746
0.000255921
0.000244658
0.000205268
0.000174343
0.000188307
0.000245947
0.000315515
0.000354338
0.000338688
0.000286415
0.00023612
0.00019343
0.000144009
9.39091e-05
6.6527e-05
9.0076e-05
0.000161644
0.000218902
0.000249907
0.000250484
0.000224812
0.000196593
0.0002312
0.000312162
0.000358313
0.000353063
0.000337415
0.000333243
0.000320591
0.000292068
0.000269959
0.00024091
0.000159005
5.50087e-05
-6.01751e-06
4.92028e-05
0.000128872
0.000189261
0.000216608
0.000237393
0.000254272
0.000243518
0.00020508
0.000176699
0.000189608
0.000245065
0.000313163
0.000353879
0.000342509
0.000291514
0.00024024
0.000196016
0.000143495
8.87241e-05
5.73678e-05
8.07351e-05
0.000155165
0.000214859
0.000240081
0.000234877
0.00021157
0.00018425
0.000222099
0.000309865
0.000361758
0.000356814
0.000339669
0.000337018
0.000325971
0.000296774
0.000275822
0.000252408
0.000167929
4.8238e-05
-2.24453e-05
2.36992e-05
0.000109856
0.000179556
0.000208893
0.000229847
0.00025017
0.000241787
0.000202587
0.000174974
0.000190686
0.000249007
0.000315655
0.000355224
0.00034627
0.000297256
0.000245497
0.000199569
0.00014326
8.27481e-05
4.62047e-05
6.88251e-05
0.000149802
0.000218188
0.000236501
0.000220547
0.000191059
0.000162736
0.000207832
0.00030492
0.000361256
0.000358601
0.00034684
0.000346282
0.000331795
0.000296898
0.00027882
0.000269903
0.000190733
5.27124e-05
-3.49118e-05
-1.10428e-05
8.22812e-05
0.0001672
0.000200975
0.000220703
0.000242599
0.000238324
0.000201078
0.000172926
0.000185355
0.00024448
0.000320394
0.000360258
0.000350853
0.000303492
0.000252222
0.000203942
0.000142544
7.74988e-05
3.97758e-05
6.49523e-05
0.000155232
0.00023608
0.000250949
0.000218711
0.000171023
0.000132256
0.000186915
0.000298193
0.000359456
0.000354661
0.000342922
0.000349605
0.00033706
0.00029386
0.000272746
0.00028402
0.000224785
7.04383e-05
-3.74149e-05
-4.36154e-05
5.06647e-05
0.000151008
0.000191987
0.000211292
0.000232921
0.000233281
0.000199106
0.000171347
0.000180192
0.000230922
0.000308014
0.00035889
0.000354489
0.000309089
0.000260054
0.000209943
0.000141243
7.12506e-05
3.80056e-05
7.2975e-05
0.000177201
0.000274614
0.000288485
0.000234211
0.000159089
9.86084e-05
0.000161421
0.000285155
0.000351495
0.000346864
0.000337438
0.000346913
0.000338742
0.000291825
0.000262989
0.000288838
0.000264305
0.000104769
-1.96373e-05
-6.3135e-05
1.14857e-05
0.00012859
0.000181307
0.000203717
0.000224369
0.000229089
0.000199507
0.000170787
0.000173774
0.000217047
0.000286637
0.000338422
0.000342128
0.000307268
0.000265062
0.000217949
0.000142316
6.51185e-05
3.76431e-05
8.64252e-05
0.000206675
0.0003276
0.000349984
0.000273125
0.000164227
7.3393e-05
0.000138023
0.000263369
0.000333444
0.00033025
0.0003286
0.000349734
0.000343984
0.000297196
0.000259487
0.000288382
0.000300411
0.000156352
2.20548e-05
-5.96532e-05
-1.25121e-05
0.000105224
0.000165176
0.000196323
0.000218682
0.000226529
0.000201993
0.000172594
0.000171479
0.000207896
0.000267844
0.000311135
0.000311493
0.000285967
0.000256241
0.000221587
0.000149813
6.91183e-05
4.39746e-05
0.000101809
0.000229347
0.000371384
0.000418667
0.000335694
0.000198241
9.51103e-05
0.00012642
0.000235393
0.000304759
0.000309493
0.000318249
0.000355016
0.000356254
0.000314393
0.000271346
0.000290433
0.000325414
0.000214669
8.13986e-05
-3.11797e-05
-1.44845e-05
7.26277e-05
0.0001473
0.000186468
0.000212695
0.000224074
0.000204809
0.00017329
0.000170463
0.000203396
0.000257792
0.000292909
0.000278343
0.000233653
0.000227814
0.000214039
0.00015618
8.77017e-05
7.19222e-05
0.000121055
0.000236373
0.000384241
0.000462951
0.000402192
0.000256513
0.000139341
0.000135556
0.000212062
0.000272628
0.000288795
0.000307054
0.000358925
0.000370177
0.000338415
0.000297202
0.000294589
0.0003351
0.000263439
0.00014539
2.06981e-05
8.67735e-06
6.34407e-05
0.000130429
0.00018041
0.000206684
0.000218391
0.000204891
0.000174918
0.000167648
0.000198922
0.000253221
0.000289749
0.00026422
0.00020968
0.000201718
0.000201935
0.000156915
0.000105809
9.47113e-05
0.000138928
0.000228143
0.000375429
0.000464452
0.000444612
0.000315951
0.000195355
0.000159553
0.00019525
0.00024378
0.000273163
0.000316549
0.00036025
0.000376043
0.000357499
0.000321395
0.00029508
0.00032889
0.000291939
0.000203664
9.103e-05
5.55752e-05
7.52899e-05
0.000126752
0.00018056
0.000205858
0.000211299
0.00020173
0.000176837
0.000165112
0.00019277
0.000245641
0.000291139
0.000273711
0.00022035
0.000199624
0.000201764
0.000162113
0.000107761
0.000108316
0.000152678
0.000211213
0.000325211
0.000433716
0.000458695
0.000359416
0.000243656
0.000181051
0.000180624
0.000219464
0.000259722
0.00030683
0.000350508
0.000374353
0.000366293
0.000335873
0.000298314
0.000310421
0.000302898
0.000243747
0.000161415
0.000114849
0.00010124
0.000132513
0.000187268
0.000209063
0.000204374
0.000186211
0.000172338
0.000167371
0.000190538
0.000236227
0.000277084
0.000280131
0.000242817
0.00021771
0.000212172
0.000171242
0.000107911
0.000111308
0.000177322
0.000213456
0.000275577
0.000387311
0.000445986
0.000385199
0.000284451
0.000202194
0.000174584
0.000200617
0.000243523
0.00028024
0.000326968
0.000365001
0.000373461
0.000344395
0.000299199
0.000294895
0.000300874
0.000263883
0.000208821
0.000165271
0.000135554
0.000148581
0.000196255
0.000214931
0.000205895
0.000170507
0.000158988
0.000164228
0.000186952
0.000230619
0.000270058
0.000278872
0.000252637
0.000227105
0.000220144
0.000183589
0.000119497
0.00013308
0.000207803
0.000239573
0.000256113
0.000338535
0.000413998
0.000381461
0.000310004
0.000230251
0.000181651
0.000187527
0.000229633
0.000271364
0.000310225
0.000344966
0.000367211
0.000350385
0.000303267
0.000288438
0.000292461
0.000257617
0.000229494
0.000206122
0.000177244
0.000175028
0.000205338
0.000216674
0.000193267
0.000155573
0.000142744
0.000156577
0.000177639
0.000220359
0.000270828
0.000291143
0.000266651
0.000233172
0.000222743
0.000192415
0.000136085
0.000152511
0.000219129
0.000257814
0.000257121
0.000308897
0.000341449
0.000362082
0.000311245
0.000236546
0.000186137
0.000189762
0.00022561
0.00026968
0.000312464
0.000343241
0.000365686
0.000345403
0.000294976
0.000263569
0.000262964
0.000240585
0.000226209
0.00021125
0.00020089
0.000213628
0.000226229
0.000219129
0.000186274
0.000147591
0.000130358
0.00013611
0.000154022
0.000191286
0.000248894
0.000291863
0.000281056
0.00025234
0.000237897
0.000220049
0.000174635
0.000165409
0.000221961
0.000248517
0.00024733
0.000295785
0.000346182
0.000353348
0.00030034
0.000228133
0.000188091
0.000198823
0.000224578
0.000259171
0.000306065
0.000345067
0.0003614
0.000338321
0.000285467
0.00024243
0.000235329
0.000207931
0.000209786
0.000206539
0.000198565
0.000203181
0.000223372
0.000220296
0.000192116
0.000160142
0.000139069
0.000130129
0.000129725
0.000147045
0.000190612
0.000246833
0.000261466
0.000240899
0.000243888
0.000250168
0.000223836
0.000187718
0.000200816
0.00021842
0.00023703
0.000277192
0.000343369
0.000352552
0.00028894
0.000214721
0.00016737
0.000184546
0.000208145
0.000237782
0.000288567
0.000333047
0.000343707
0.000318501
0.000277331
0.000233453
0.000212204
0.000175403
0.000175283
0.000185795
0.000200999
0.00021767
0.000227237
0.000210937
0.000182894
0.000164175
0.000152269
0.000138217
0.000127362
0.000133986
0.000147704
0.000189769
0.000224251
0.000227793
0.000226294
0.00024546
0.000244517
0.000208158
0.000181745
0.000194049
0.000227174
0.000281648
0.000348156
0.000354674
0.000279396
0.000182184
0.000125297
0.000136064
0.000177257
0.000226668
0.000276371
0.000318408
0.000331743
0.000312127
0.000287099
0.000249679
0.000206797
0.000223393
0.000191782
0.000182819
0.000192918
0.00021144
0.000221071
0.000208504
0.000186468
0.000169219
0.000156971
0.000146452
0.000143126
0.000144843
0.000148534
0.00016233
0.000181814
0.000205744
0.000222707
0.000243351
0.000245864
0.000219601
0.000196493
0.00020015
0.000224296
0.000276557
0.000361444
0.000370611
0.000295794
0.000183004
9.57924e-05
9.4672e-05
0.000138876
0.000205217
0.000275521
0.000322776
0.00033873
0.000293528
0.000278569
0.000283834
0.000265141
0.000249382
0.000219157
0.000196217
0.000184051
0.000187025
0.000192474
0.000192127
0.000190166
0.00018383
0.000168124
0.000155716
0.000156017
0.000165921
0.000174988
0.000179943
0.000185555
0.000210074
0.000225201
0.000242396
0.000245927
0.000231704
0.000215933
0.00021525
0.00023014
0.000264339
0.000320076
0.000340501
0.000293853
0.000208679
0.000140741
0.000122064
0.000145834
0.000198189
0.00025925
0.000300568
0.000305171
0.000283936
0.000268717
0.000276238
0.000272383
0.00024966
0.000199846
0.000161121
0.000149655
0.000157851
0.000173429
0.00018871
0.000201998
0.000206052
0.000194838
0.00018042
0.000176097
0.000171392
0.000170637
0.000179717
0.000200051
0.000220307
0.000243363
0.000252134
0.000258873
0.000248518
0.000231414
0.000218971
0.000214859
0.000231723
0.000287111
0.000307469
0.000288737
0.00022635
0.000165481
0.000149795
0.000151492
0.000187252
0.000233883
0.000271712
0.000279693
0.000268394
0.000264423
0.000280261
0.000281525
0.000250549
0.000198158
0.000147861
0.000122522
0.000129729
0.000151561
0.000177483
0.000198695
0.000208467
0.000200186
0.000183178
0.000177072
0.000188231
0.000198477
0.000198056
0.000197141
0.000215431
0.000250863
0.000288674
0.000294269
0.000278914
0.000244443
0.0002128
0.000198062
0.000192242
0.000205103
0.000259182
0.000273504
0.000240525
0.000190102
0.000154662
0.000161718
0.000185064
0.000218946
0.000248334
0.000262126
0.000267814
0.000267079
0.000283059
0.000280324
3.93292e-05
4.13064e-08
2.69495e-05
8.61239e-05
0.000149527
0.00020333
0.000233459
0.000222931
0.000182105
0.000159156
0.000185523
0.000242146
0.000285947
0.000291031
0.000262824
0.00022974
0.000212352
0.000199509
0.000170088
0.00012344
9.22467e-05
0.000106064
0.000176606
0.000272022
0.000340008
0.000361894
0.000363427
0.000357697
0.000351349
0.000364715
0.000383336
0.000397044
0.00040476
0.000400254
0.000376725
0.000352357
0.000357086
0.000351719
0.000281391
0.000149013
4.11784e-05
-8.16168e-08
2.53622e-05
8.33034e-05
0.000146957
0.000201313
0.000232028
0.00022144
0.000180625
0.000157182
0.000183816
0.000241019
0.000285311
0.000290642
0.000262516
0.00022945
0.000212239
0.000199693
0.000170424
0.000123473
9.15614e-05
0.000104216
0.000173558
0.000268204
0.000336085
0.000358127
0.000360218
0.000355566
0.000349891
0.000363228
0.000381546
0.000395363
0.000403908
0.000400537
0.000377831
0.000353715
0.000359134
0.000354529
0.000285083
0.000152045
4.01533e-05
-3.47552e-06
2.1224e-05
7.9407e-05
0.000143892
0.000199432
0.000231143
0.00022074
0.000179102
0.000154545
0.000180991
0.000239217
0.000284479
0.000290135
0.000261937
0.000228764
0.000211922
0.000200004
0.000171056
0.000123369
9.04193e-05
0.000101981
0.00017065
0.000265179
0.000333263
0.000355079
0.000357387
0.000354036
0.000349015
0.000361832
0.000379034
0.000392409
0.000402334
0.000401256
0.000379432
0.000354994
0.000361078
0.000358215
0.000289511
0.000153851
3.47076e-05
-1.12202e-05
1.42521e-05
7.39586e-05
0.000140084
0.000197432
0.0002307
0.000220639
0.000177753
0.000151308
0.000177047
0.000236493
0.000283342
0.000289528
0.000261008
0.000227497
0.000211267
0.000200148
0.000172002
0.000123113
8.90278e-05
0.000100077
0.000169192
0.0002645
0.000332942
0.000353788
0.00035547
0.000353179
0.000348663
0.000360841
0.000376468
0.000388504
0.000399385
0.000401574
0.00038106
0.00035583
0.000362291
0.000362911
0.00029437
0.000153865
2.47659e-05
-2.34048e-05
4.26345e-06
6.64983e-05
0.000134833
0.000194534
0.000230121
0.000221011
0.000177491
0.000149138
0.000173154
0.000232946
0.000281431
0.00028866
0.000259717
0.000225509
0.00021007
0.000200272
0.00017203
0.000122581
8.73149e-05
9.83664e-05
0.000168889
0.000265601
0.000334306
0.000353754
0.000354446
0.000352899
0.00034855
0.000360506
0.000374958
0.000384809
0.000394961
0.000399805
0.000381017
0.000355299
0.000364227
0.000368673
0.000300313
0.000153376
1.1623e-05
-3.96113e-05
-1.06584e-05
5.65675e-05
0.00012676
0.000189089
0.00022805
0.000220933
0.000178144
0.000149388
0.000172267
0.000230532
0.000278878
0.000287273
0.000258374
0.000223152
0.000208457
0.000200416
0.000172278
0.000121486
8.44603e-05
9.48019e-05
0.00016648
0.000264269
0.000332598
0.000350071
0.000351418
0.00035238
0.000348242
0.00036071
0.000375512
0.00038339
0.000390644
0.000395631
0.000376914
0.000351687
0.000365811
0.000378787
0.000308703
0.0001529
2.17254e-06
-5.80307e-05
-2.65139e-05
4.4881e-05
0.000116002
0.000179502
0.000222669
0.000218644
0.000177365
0.000149975
0.000174489
0.000232233
0.000278114
0.000285708
0.000257112
0.000221052
0.000206975
0.000200873
0.000172974
0.000119599
7.77749e-05
8.38384e-05
0.000155763
0.000256728
0.000324266
0.000336979
0.000337533
0.000345349
0.000344798
0.000359864
0.000377721
0.000385471
0.000388961
0.000390806
0.000368503
0.000340947
0.000364266
0.000393649
0.000326592
0.000158693
4.20337e-06
-7.03403e-05
-4.44287e-05
3.07061e-05
0.000104748
0.000167545
0.000213875
0.000214821
0.000176285
0.000148754
0.000171326
0.000232044
0.000279741
0.00028591
0.000256424
0.000219369
0.000205809
0.000201642
0.00017388
0.000116686
6.64961e-05
6.28076e-05
0.000131708
0.000239204
0.000311287
0.000317601
0.00031282
0.000326
0.000332065
0.000353644
0.000375943
0.000387676
0.000390663
0.000388801
0.000359404
0.000324002
0.000354346
0.000410152
0.000355774
0.000177609
1.92723e-05
-7.1887e-05
-6.06388e-05
1.40339e-05
9.18699e-05
0.00015509
0.000203634
0.000210283
0.000176468
0.000149759
0.000166095
0.000222705
0.000274351
0.000285916
0.00025694
0.000218479
0.00020486
0.000202089
0.000173902
0.000112601
5.51533e-05
3.9899e-05
0.000101189
0.000213324
0.000294957
0.000299859
0.000284047
0.000298035
0.000308157
0.000341341
0.000373676
0.00038456
0.0003851
0.000387033
0.000356244
0.000308869
0.000336729
0.000421844
0.000394571
0.000211912
4.65575e-05
-6.60761e-05
-7.38592e-05
-4.96449e-06
7.73005e-05
0.000142728
0.000193443
0.000205784
0.000175907
0.000150413
0.00016286
0.000212504
0.00026115
0.00027707
0.000255167
0.000218229
0.000204374
0.000201926
0.000172009
0.000109484
5.05269e-05
3.15587e-05
8.44399e-05
0.000193991
0.000280099
0.000286678
0.000259865
0.000267292
0.000274691
0.000321633
0.000369627
0.00038458
0.000377197
0.000382345
0.000357244
0.000306615
0.000321183
0.000424233
0.000435421
0.000260573
8.85614e-05
-5.37727e-05
-7.90711e-05
-2.83234e-05
5.9846e-05
0.000131807
0.000186475
0.000202703
0.00017557
0.000150485
0.000159841
0.000203727
0.000247435
0.000260305
0.000242373
0.000211783
0.000202186
0.000200949
0.000168214
0.000103645
4.89857e-05
3.90893e-05
9.1364e-05
0.000195948
0.000279117
0.00028224
0.000246671
0.000243575
0.000237091
0.000294552
0.000358939
0.000385141
0.00037594
0.000382187
0.000376099
0.000320145
0.000320255
0.000422617
0.00046859
0.000317869
0.000145084
-2.41616e-05
-7.70384e-05
-5.41462e-05
3.80959e-05
0.00011863
0.000181831
0.000202979
0.000176333
0.000147647
0.000153639
0.000196044
0.000236863
0.000243892
0.000223344
0.000196003
0.000192234
0.000196071
0.000163445
9.46431e-05
4.69854e-05
5.47586e-05
0.000114287
0.000213136
0.00029408
0.00029163
0.000248885
0.000216107
0.000207381
0.000261642
0.000336243
0.000379522
0.000371941
0.000383854
0.000387619
0.000346813
0.000332727
0.000422897
0.00048973
0.000372497
0.000206461
2.36672e-05
-5.74941e-05
-5.27618e-05
1.74533e-05
0.000104416
0.000174293
0.000202593
0.00017746
0.000143215
0.000144706
0.000190402
0.000234086
0.000236304
0.000206802
0.000177187
0.000177706
0.000188164
0.000159978
8.88717e-05
4.75526e-05
7.06557e-05
0.00013312
0.000219818
0.000307338
0.000310098
0.00026464
0.000218733
0.000201526
0.000232901
0.000302491
0.000350121
0.000361939
0.000383027
0.000398103
0.000367501
0.000346002
0.000417427
0.000494472
0.000412794
0.000259832
8.24794e-05
-1.68851e-05
-3.6234e-05
1.3188e-05
9.18312e-05
0.000165089
0.000200159
0.000177838
0.000140412
0.000137845
0.000188455
0.000237718
0.000240926
0.00020459
0.000169165
0.000173578
0.000186256
0.000161359
9.62311e-05
6.6156e-05
9.06424e-05
0.000141262
0.000206345
0.000301511
0.000324821
0.000287351
0.000240412
0.000216503
0.000221176
0.000269896
0.000313615
0.000337985
0.000369623
0.000399867
0.00038181
0.000348303
0.000398334
0.000474999
0.000430138
0.000300367
0.000145633
4.00257e-05
-1.16386e-06
2.25008e-05
8.94901e-05
0.000157795
0.000192605
0.000175928
0.000141573
0.000134609
0.000187724
0.000240051
0.000250817
0.000223384
0.000191526
0.00018752
0.000187306
0.000153054
0.000101454
8.45916e-05
0.00011551
0.00015281
0.000214386
0.000289426
0.000338197
0.000312592
0.000269081
0.000231412
0.000219743
0.000245164
0.000283824
0.000314393
0.000346684
0.000384691
0.000383975
0.00034999
0.000369423
0.000431321
0.000423454
0.000322398
0.000206435
0.000110052
5.63566e-05
5.21746e-05
9.42233e-05
0.000153703
0.000174684
0.000167543
0.000143856
0.000141569
0.000189003
0.000242178
0.00026024
0.000241485
0.00021386
0.000202924
0.000192099
0.000145404
9.04789e-05
8.9049e-05
0.000141858
0.000174285
0.000202736
0.000275955
0.000345886
0.000341389
0.000289811
0.000238735
0.000214022
0.000231296
0.000264565
0.000294453
0.000327306
0.000371434
0.000390703
0.00035929
0.000348125
0.000381351
0.000395845
0.000329342
0.000242671
0.000168772
0.000129899
0.000118104
0.000128169
0.000142894
0.000139472
0.000150356
0.000136242
0.000136808
0.000187665
0.000244369
0.000268221
0.00025426
0.000230446
0.000214403
0.000199916
0.000157176
9.74528e-05
9.44411e-05
0.000163265
0.00020723
0.000215716
0.000267403
0.000338159
0.00035073
0.000300974
0.000244566
0.00021507
0.000221123
0.000251719
0.000287534
0.000318403
0.000358022
0.000392524
0.000370658
0.000333145
0.000344586
0.000367269
0.000319683
0.000269621
0.000215169
0.0001898
0.000183832
0.00017818
0.000162493
0.000148496
0.000135907
0.000121414
0.000139833
0.000182978
0.000242163
0.000274909
0.0002718
0.000246157
0.000220187
0.000203425
0.00017759
0.000125651
0.00010115
0.000162863
0.000222938
0.00024105
0.000275769
0.000323894
0.000350997
0.000303704
0.000245184
0.000215397
0.000218147
0.000245351
0.000279766
0.000316142
0.000358552
0.000385417
0.00036679
0.000314648
0.000306657
0.000325466
0.000293076
0.000271494
0.000231357
0.000221987
0.00024296
0.00023442
0.000192695
0.000150108
0.000126893
0.000115206
0.000120574
0.000148111
0.00020418
0.000257774
0.000297964
0.000272308
0.000232891
0.000209174
0.00019762
0.000161551
0.00013059
0.000146304
0.000214282
0.000250284
0.00028538
0.00033026
0.000334283
0.000294751
0.000242187
0.000220072
0.000219858
0.000237557
0.000271064
0.000305129
0.000346702
0.00036853
0.000353897
0.000303
0.000265298
0.000277254
0.000249178
0.000257135
0.000244389
0.00022874
0.000231186
0.000233832
0.00021645
0.000177758
0.000143965
0.00012124
0.000111288
0.000117399
0.000148138
0.000194324
0.000242247
0.000262172
0.000244867
0.000226386
0.000223495
0.000203992
0.000161934
0.000146491
0.000176467
0.000220177
0.000279469
0.000332543
0.000340303
0.000281317
0.000231289
0.000226525
0.000221537
0.000238647
0.000262788
0.000291286
0.000324389
0.000337782
0.000327132
0.000294421
0.000250433
0.000231518
0.00021537
0.000226172
0.000229215
0.00022884
0.000243994
0.00024857
0.000218965
0.000177495
0.000152346
0.000135925
0.000112068
9.92824e-05
0.000103948
0.000136421
0.000174036
0.000209907
0.000226437
0.000231455
0.000233885
0.000219993
0.000185497
0.000161699
0.000187103
0.000216363
0.00027341
0.000322826
0.000312939
0.000267837
0.000206409
0.000186995
0.000192869
0.000226766
0.000265041
0.000293863
0.000311009
0.000311947
0.000311526
0.000301503
0.000261892
0.000222276
0.00023852
0.000225327
0.000225814
0.000231812
0.000243581
0.000246879
0.000220045
0.0001827
0.000159437
0.00014946
0.000140292
0.000125904
0.000117655
0.000118332
0.000125863
0.000147643
0.000176077
0.000206131
0.000224593
0.000222981
0.000205197
0.000192497
0.000200874
0.000223692
0.000267406
0.000316369
0.000324213
0.00027655
0.000208659
0.000167158
0.000156644
0.000194477
0.000247506
0.000294744
0.000316495
0.000290385
0.000285016
0.000288062
0.000291753
0.000271469
0.000253197
0.000231402
0.000220816
0.000217688
0.000221312
0.00022066
0.000204663
0.000187282
0.000175789
0.000165607
0.0001611
0.000164222
0.00017433
0.00017605
0.000167538
0.000158678
0.000157016
0.000190751
0.000215985
0.000217703
0.000202044
0.000192807
0.000202672
0.000225012
0.000256987
0.000294453
0.000307663
0.000276999
0.000217455
0.000167935
0.000148467
0.000174853
0.000223297
0.000273259
0.000300698
0.000293157
0.000274263
0.000266391
0.000282949
0.000277676
0.000254721
0.000217891
0.000190886
0.000180536
0.000181708
0.000185568
0.000186224
0.000192478
0.000199805
0.000194299
0.000180678
0.000173323
0.000169317
0.000177271
0.000186174
0.000195197
0.000202299
0.000204781
0.000227898
0.000231633
0.000222753
0.000211676
0.000207311
0.000213614
0.000232862
0.000265792
0.000284683
0.000272669
0.000224769
0.000171748
0.000155394
0.000169993
0.000204846
0.00024523
0.000275626
0.00027812
0.000265392
0.000263795
0.000282077
0.000282873
0.000253907
0.000203257
0.000157663
0.000132152
0.000133011
0.00014834
0.000169967
0.000192789
0.000207769
0.000204707
0.000188499
0.000178597
0.000186925
0.000198505
0.000197868
0.000198691
0.000214974
0.000243486
0.000269989
0.000276237
0.000260717
0.000230491
0.000207248
0.000197095
0.000202415
0.000224536
0.000255447
0.000265003
0.000237102
0.000195502
0.000177475
0.000183387
0.000205469
0.000227654
0.000247799
0.000258061
0.000264823
0.00027259
0.000288275
0.000285452
0.000162545
9.50952e-05
6.53687e-05
7.33149e-05
0.000104923
0.000152649
0.000199742
0.00021406
0.000186984
0.000155638
0.000160665
0.000196427
0.000225264
0.000224831
0.000207495
0.000195773
0.00019616
0.000192522
0.000170565
0.000142827
0.000128186
0.000139999
0.000191154
0.000268785
0.00033196
0.000362355
0.000371612
0.000363711
0.000354986
0.000371064
0.00040062
0.000438093
0.00046682
0.000467284
0.000445372
0.000406127
0.000381162
0.000355289
0.00030599
0.000237268
0.000164632
9.61067e-05
6.58422e-05
7.32142e-05
0.000104531
0.000152104
0.000199321
0.00021401
0.000187239
0.000155896
0.000160823
0.000196672
0.000225611
0.000225024
0.000207382
0.000195489
0.000195912
0.000192242
0.000170157
0.000142087
0.000127184
0.000138685
0.000189446
0.000266805
0.000329768
0.000359798
0.000368893
0.000360806
0.000351205
0.000366392
0.000395626
0.000433549
0.000464083
0.000466379
0.000446194
0.000406791
0.000382846
0.000358125
0.000309003
0.000240269
0.000165439
9.50682e-05
6.42769e-05
7.14644e-05
0.000102861
0.000150678
0.00019857
0.000214057
0.000187484
0.000155587
0.000160062
0.000196178
0.000225415
0.000224546
0.000206674
0.000194869
0.000195773
0.000192251
0.00016994
0.000141304
0.000126022
0.000137062
0.000187504
0.000265099
0.000328289
0.000357969
0.000367055
0.000358969
0.000348195
0.000361696
0.000389228
0.000426855
0.000460683
0.000466661
0.0004482
0.000409301
0.000386294
0.000361922
0.000312337
0.000242949
0.000164287
9.15107e-05
5.98252e-05
6.72679e-05
9.9056e-05
0.000147586
0.000196885
0.000213617
0.000187041
0.000153954
0.000157538
0.00019413
0.00022401
0.000222816
0.000204754
0.000193546
0.000195723
0.000192903
0.000170082
0.000140561
0.000124896
0.000135631
0.0001862
0.000264852
0.000328795
0.000357808
0.000366709
0.000358743
0.000346771
0.000358512
0.000383091
0.000418598
0.000456183
0.000468279
0.000452236
0.000414157
0.000391934
0.000367403
0.000316136
0.000244325
0.000161518
8.56062e-05
5.25768e-05
6.05159e-05
9.27202e-05
0.000142221
0.000193623
0.000212151
0.000185501
0.000150721
0.000152837
0.000189662
0.000220352
0.000218885
0.000200751
0.00019071
0.000195231
0.000193881
0.000170507
0.000139514
0.000123434
0.000134185
0.000185425
0.000266337
0.000331966
0.00036
0.000367768
0.000359617
0.000346858
0.000358237
0.000379836
0.000410307
0.000449848
0.00047012
0.000457654
0.000421509
0.000400478
0.000375319
0.000320919
0.00024385
0.000157825
7.8957e-05
4.28175e-05
5.12253e-05
8.3497e-05
0.000134114
0.000188304
0.000209277
0.000182945
0.000146501
0.000146616
0.000182661
0.000213465
0.000211576
0.000193778
0.000185469
0.000193565
0.000194932
0.000171099
0.000138029
0.00012093
0.000130705
0.000181768
0.000266428
0.000335851
0.000364451
0.000370559
0.000360367
0.000346993
0.000360877
0.000382121
0.000405129
0.00044248
0.000470329
0.000462517
0.000431112
0.000410845
0.000386999
0.00032772
0.00024413
0.000152856
7.11504e-05
3.12516e-05
3.98472e-05
7.09466e-05
0.000122045
0.000179753
0.000204315
0.000179437
0.000142544
0.000141182
0.00017509
0.000203996
0.000200209
0.000183109
0.00017757
0.000190433
0.000196028
0.000172253
0.000136716
0.000117437
0.000123138
0.000170112
0.00025692
0.000331553
0.000364725
0.00037367
0.000360314
0.000343207
0.000362452
0.00038946
0.000406015
0.000436242
0.000467875
0.000462482
0.000441456
0.000428503
0.000404844
0.000338662
0.000246408
0.000150967
6.32549e-05
1.99742e-05
2.42324e-05
5.64819e-05
0.000106074
0.000165309
0.00019536
0.000173576
0.000137935
0.00013632
0.000168949
0.000195203
0.000187212
0.000170374
0.000167953
0.00018656
0.000197664
0.000174388
0.000136052
0.000113022
0.000110087
0.00014772
0.000235195
0.000316171
0.000353202
0.000368908
0.000358855
0.000335854
0.000354232
0.00038875
0.00040933
0.000432178
0.000463825
0.000460205
0.000448039
0.000450343
0.000431747
0.000357372
0.000252764
0.000153528
5.93648e-05
1.12071e-05
1.23913e-05
4.33748e-05
8.9485e-05
0.0001486
0.000182538
0.000164072
0.000130176
0.000128557
0.000157622
0.000179691
0.000180374
0.000159367
0.000158237
0.000182715
0.000199987
0.000177158
0.000135667
0.000107589
9.25634e-05
0.000114925
0.000200663
0.000291996
0.000333446
0.000352731
0.000350841
0.00032741
0.000342823
0.000372959
0.000392198
0.000421248
0.000457384
0.000455055
0.000444122
0.000470613
0.000467469
0.000388154
0.000266798
0.000164665
6.10062e-05
6.45953e-06
5.77408e-06
3.46817e-05
7.77038e-05
0.000134102
0.000169402
0.000152439
0.00011838
0.000115828
0.000140699
0.000155777
0.000151833
0.000136872
0.000145073
0.000177206
0.000201499
0.00017905
0.000134967
0.000104445
7.87544e-05
8.10831e-05
0.000157805
0.000261426
0.000312168
0.000331468
0.000334388
0.000313302
0.000329139
0.000358392
0.000362848
0.000390137
0.000440012
0.000447352
0.000437533
0.000480708
0.000503612
0.000431262
0.000293769
0.000191068
7.31222e-05
6.36196e-06
-8.19831e-07
2.90879e-05
7.46782e-05
0.00013154
0.000163291
0.000142905
0.000106479
0.000101447
0.000121704
0.000132968
0.000127379
0.000113089
0.000117541
0.000165507
0.000199738
0.00017991
0.000133977
0.00010651
8.07518e-05
6.52876e-05
0.000122522
0.000229922
0.000296055
0.000318258
0.000318405
0.000293906
0.000310441
0.000345769
0.00034328
0.000353189
0.00040625
0.000433673
0.00042948
0.000470955
0.000525975
0.000479977
0.000335359
0.000232403
0.000102088
1.86677e-05
-4.39697e-06
2.01734e-05
7.45673e-05