/*--------------------------------*- C++ -*----------------------------------*\
| =========                 |                                                 |
| \\      /  F ield         | OpenFOAM: The Open Source CFD Toolbox           |
|  \\    /   O peration     | Version:  2306                                  |
|   \\  /    A nd           | Website:  www.openfoam.com                      |
|    \\/     M anipulation  |                                                 |
\*---------------------------------------------------------------------------*/
FoamFile
{
    version     2.0;
    format      ascii;
    arch        "LSB;label=32;scalar=64";
    class       surfaceScalarField;
    location    "2";
    object      phi_0;
}
// * * * * * * * * * * * * * * * * * * * * * * * * * * * * * * * * * * * * * //

dimensions      [0 3 -1 0 0 0 0];

oriented        oriented;

internalField   nonuniform List<scalar> 
175300
(
6.58675e-06
3.8701e-07
1.92397e-06
6.50836e-06
-1.67002e-07
2.25084e-06
6.42526e-06
-4.77475e-07
2.28003e-06
6.33718e-06
-4.68393e-07
2.13759e-06
6.22412e-06
-3.00618e-07
1.90544e-06
6.05993e-06
-1.61787e-07
1.61897e-06
5.79473e-06
-8.47282e-08
1.35141e-06
5.34928e-06
-3.51932e-08
1.21071e-06
4.72634e-06
-5.18261e-08
1.25078e-06
4.10957e-06
-2.41379e-07
1.39377e-06
3.73104e-06
-5.76991e-07
1.51199e-06
3.64266e-06
-8.35473e-07
1.55531e-06
3.72773e-06
-8.9878e-07
1.48895e-06
3.83759e-06
-7.77184e-07
1.25287e-06
3.89564e-06
-5.00397e-07
8.64059e-07
3.95413e-06
-1.83676e-07
4.29443e-07
4.09104e-06
5.17855e-08
5.19376e-08
4.29778e-06
1.98572e-07
-2.47473e-07
4.51629e-06
2.64684e-07
-4.86191e-07
4.74264e-06
2.23775e-07
-6.8272e-07
4.98792e-06
4.78872e-08
-8.85886e-07
5.30511e-06
-1.96849e-07
-1.13617e-06
5.66758e-06
-3.20411e-07
-1.46411e-06
5.94113e-06
-2.50135e-07
-1.77895e-06
6.00463e-06
-1.51133e-07
-1.92301e-06
5.79822e-06
-4.44681e-08
-1.93996e-06
5.32972e-06
1.13162e-07
-1.94883e-06
4.75149e-06
1.18496e-07
-1.90176e-06
4.30534e-06
-1.83914e-07
-1.78858e-06
4.06689e-06
-4.61647e-07
-1.78592e-06
3.97986e-06
-4.26736e-07
-1.92726e-06
4.03539e-06
-2.18498e-07
-1.97067e-06
4.24279e-06
4.95663e-08
-1.72496e-06
4.57588e-06
3.9609e-07
-1.2363e-06
4.95675e-06
8.03618e-07
-7.25701e-07
5.36752e-06
1.04226e-06
-3.59777e-07
5.80779e-06
1.04866e-06
-5.66435e-08
6.23868e-06
1.04306e-06
2.30515e-07
6.5121e-06
1.10285e-06
6.76617e-07
9.0898e-07
1.30549e-06
2.24516e-05
4.84292e-07
5.83481e-06
2.22195e-05
-1.1053e-06
6.42115e-06
2.18251e-05
-1.8762e-06
6.34571e-06
2.14386e-05
-1.73802e-06
6.03216e-06
2.10509e-05
-1.19887e-06
5.60518e-06
2.04991e-05
-7.36121e-07
4.97851e-06
1.95789e-05
-3.97624e-07
4.24334e-06
1.81259e-05
-1.67499e-07
3.7482e-06
1.62259e-05
-2.50339e-07
3.77335e-06
1.43534e-05
-9.44441e-07
4.19972e-06
1.3076e-05
-2.0857e-06
4.62009e-06
1.25602e-05
-2.9537e-06
4.72045e-06
1.25262e-05
-3.11221e-06
4.35753e-06
1.26249e-05
-2.59537e-06
3.52476e-06
1.27219e-05
-1.61414e-06
2.40626e-06
1.29347e-05
-5.78301e-07
1.26052e-06
1.34007e-05
1.31298e-07
2.74077e-07
1.40836e-05
5.09566e-07
-5.48668e-07
1.48755e-05
6.08201e-07
-1.25106e-06
1.57677e-05
2.9128e-07
-1.87437e-06
1.67944e-05
-4.29896e-07
-2.53111e-06
1.79946e-05
-1.25066e-06
-3.33601e-06
1.92144e-05
-1.58747e-06
-4.30989e-06
2.01024e-05
-1.30232e-06
-5.17131e-06
2.03162e-05
-8.78138e-07
-5.53048e-06
1.96729e-05
-4.3336e-07
-5.4516e-06
1.82756e-05
1.6205e-08
-5.23243e-06
1.65741e-05
-6.82377e-08
-4.98279e-06
1.50742e-05
-9.13436e-07
-4.86884e-06
1.39744e-05
-1.57292e-06
-5.18958e-06
1.33628e-05
-1.4231e-06
-5.74164e-06
1.33719e-05
-8.33203e-07
-5.79348e-06
1.39969e-05
6.72053e-09
-4.92079e-06
1.50564e-05
1.18672e-06
-3.41071e-06
1.63181e-05
2.53807e-06
-1.91399e-06
1.7701e-05
3.32397e-06
-7.75093e-07
1.91672e-05
3.38442e-06
1.76847e-07
2.05877e-05
3.28243e-06
1.18653e-06
2.16695e-05
3.14456e-06
2.64021e-06
2.20563e-06
4.39819e-06
4.24998e-05
-1.85936e-07
9.75444e-06
4.21001e-05
-2.9055e-06
1.05617e-05
4.12066e-05
-4.07761e-06
1.02416e-05
4.03563e-05
-3.6901e-06
9.68589e-06
3.96392e-05
-2.64621e-06
9.22721e-06
3.87154e-05
-1.73155e-06
8.55285e-06
3.71937e-05
-9.69527e-07
7.49962e-06
3.48379e-05
-4.18998e-07
6.5104e-06
3.17191e-05
-5.10505e-07
6.22418e-06
2.83635e-05
-1.73521e-06
6.78189e-06
2.56332e-05
-3.89704e-06
7.65668e-06
2.40881e-05
-5.76266e-06
8.06084e-06
2.35088e-05
-6.27081e-06
7.53369e-06
2.33498e-05
-5.30851e-06
6.18196e-06
2.33613e-05
-3.38459e-06
4.43554e-06
2.36819e-05
-1.3765e-06
2.67252e-06
2.44887e-05
-3.11686e-08
1.1028e-06
2.57209e-05
5.59724e-07
-1.91788e-07
2.72245e-05
5.45406e-07
-1.36951e-06
2.89905e-05
-2.98078e-07
-2.38508e-06
3.10742e-05
-2.05313e-06
-3.42173e-06
3.3468e-05
-3.90153e-06
-4.74434e-06
3.58621e-05
-4.60303e-06
-6.45778e-06
3.76872e-05
-3.91019e-06
-8.11047e-06
3.83725e-05
-2.77732e-06
-8.96225e-06
3.75681e-05
-1.58419e-06
-8.89152e-06
3.54014e-05
-5.8235e-07
-8.30164e-06
3.25404e-05
-7.16192e-07
-7.61196e-06
2.97013e-05
-2.13339e-06
-7.35262e-06
2.72202e-05
-3.1554e-06
-8.01169e-06
2.54243e-05
-2.86869e-06
-9.22831e-06
2.48079e-05
-1.95312e-06
-9.746e-06
2.55551e-05
-6.10329e-07
-8.64237e-06
2.73361e-05
1.5229e-06
-6.25517e-06
2.96591e-05
4.1104e-06
-3.70426e-06
3.22914e-05
5.72923e-06
-1.63705e-06
3.51176e-05
5.89636e-06
1.81691e-07
3.79258e-05
5.67999e-06
2.02227e-06
4.02896e-05
5.12929e-06
4.54824e-06
3.05576e-06
7.47561e-06
6.68728e-05
-2.02637e-06
1.32734e-05
6.63763e-05
-5.53796e-06
1.46484e-05
6.47653e-05
-6.80183e-06
1.40286e-05
6.32213e-05
-6.06589e-06
1.29e-05
6.21275e-05
-4.45745e-06
1.23139e-05
6.09696e-05
-3.01804e-06
1.19419e-05
5.91131e-05
-1.74951e-06
1.10119e-05
5.62373e-05
-7.80224e-07
9.56482e-06
5.22741e-05
-7.39589e-07
8.53316e-06
4.7435e-05
-2.1839e-06
8.75154e-06
4.25984e-05
-5.13446e-06
1.01063e-05
3.90166e-05
-8.28678e-06
1.13478e-05
3.70774e-05
-9.76665e-06
1.1157e-05
3.61876e-05
-8.76836e-06
9.52308e-06
3.58426e-05
-5.96994e-06
7.2896e-06
3.60961e-05
-2.89673e-06
5.06342e-06
3.71354e-05
-8.00169e-07
3.03758e-06
3.88688e-05
1.78295e-08
1.35688e-06
4.10879e-05
-3.14482e-07
-1.37178e-08
4.37932e-05
-2.02548e-06
-1.31199e-06
4.71095e-05
-5.524e-06
-2.43157e-06
5.10259e-05
-9.20438e-06
-4.02061e-06
5.50604e-05
-1.06734e-05
-6.54313e-06
5.83917e-05
-9.35588e-06
-9.50511e-06
6.02061e-05
-6.8705e-06
-1.1617e-05
5.99059e-05
-4.12631e-06
-1.21851e-05
5.74688e-05
-1.92702e-06
-1.14258e-05
5.36487e-05
-1.83643e-06
-1.00185e-05
4.93816e-05
-3.75248e-06
-9.08638e-06
4.51316e-05
-5.02171e-06
-9.68272e-06
4.13467e-05
-4.47697e-06
-1.16339e-05
3.89733e-05
-3.36968e-06
-1.33194e-05
3.8876e-05
-2.05171e-06
-1.30153e-05
4.09463e-05
4.54907e-07
-1.0481e-05
4.43617e-05
3.9773e-06
-7.0753e-06
4.85412e-05
6.45976e-06
-4.00735e-06
5.31712e-05
6.78934e-06
-1.11999e-06
5.79055e-05
6.61648e-06
1.74093e-06
6.21675e-05
5.86448e-06
5.38012e-06
2.66049e-06
9.71482e-06
9.4862e-05
-5.91926e-06
1.5353e-05
9.45955e-05
-9.25014e-06
1.82765e-05
9.20517e-05
-9.70259e-06
1.78711e-05
8.94871e-05
-8.40671e-06
1.58214e-05
8.79673e-05
-6.35174e-06
1.45286e-05
8.68467e-05
-4.4019e-06
1.45006e-05
8.51062e-05
-2.61236e-06
1.43916e-05
8.23022e-05
-1.21598e-06
1.3057e-05
7.82441e-05
-9.56397e-07
1.10358e-05
7.25383e-05
-2.12804e-06
1.00683e-05
6.54513e-05
-5.07034e-06
1.13629e-05
5.87129e-05
-9.25801e-06
1.39181e-05
5.40339e-05
-1.24309e-05
1.50138e-05
5.14656e-05
-1.23965e-05
1.35919e-05
5.02265e-05
-9.26482e-06
1.09753e-05
5.00405e-05
-5.2476e-06
8.43799e-06
5.09799e-05
-2.36409e-06
6.24627e-06
5.28762e-05
-1.24501e-06
4.46407e-06
5.54342e-05
-1.89249e-06
3.09108e-06
5.8663e-05
-5.01904e-06
2.23234e-06
6.2924e-05
-1.12841e-05
1.73965e-06
6.84662e-05
-1.82888e-05
6.77383e-07
7.47465e-05
-2.16492e-05
-2.30141e-06
8.05607e-05
-1.97345e-05
-7.1686e-06
8.46836e-05
-1.49926e-05
-1.19104e-05
8.61084e-05
-9.28057e-06
-1.46077e-05
8.44122e-05
-4.51619e-06
-1.4674e-05
8.02382e-05
-3.47243e-06
-1.27059e-05
7.48101e-05
-5.74606e-06
-1.04989e-05
6.88644e-05
-7.12146e-06
-1.01975e-05
6.28055e-05
-5.9738e-06
-1.23718e-05
5.75982e-05
-4.45423e-06
-1.54327e-05
5.4887e-05
-3.56261e-06
-1.70514e-05
5.56531e-05
-1.80266e-06
-1.59336e-05
5.93486e-05
1.3267e-06
-1.28186e-05
6.49915e-05
3.56028e-06
-9.26631e-06
7.18265e-05
3.45968e-06
-5.6189e-06
7.90988e-05
3.0946e-06
-1.02261e-06
8.59823e-05
3.24545e-06
3.66612e-06
-3.7785e-07
9.71606e-06
0.000123967
-1.40758e-05
1.35851e-05
0.000125109
-1.53882e-05
1.98176e-05
0.000121641
-1.28514e-05
2.1478e-05
0.000117546
-1.00935e-05
1.91019e-05
0.000115504
-8.02398e-06
1.62688e-05
0.00011489
-5.8992e-06
1.5751e-05
0.000113901
-3.51547e-06
1.68121e-05
0.000111797
-1.64998e-06
1.68225e-05
0.000108566
-1.27131e-06
1.44021e-05
0.000103364
-1.9227e-06
1.14123e-05
9.51836e-05
-3.76423e-06
1.12535e-05
8.50913e-05
-7.77133e-06
1.47646e-05
7.60537e-05
-1.26014e-05
1.82532e-05
7.00572e-05
-1.47516e-05
1.81347e-05
6.68486e-05
-1.25237e-05
1.5327e-05
6.56066e-05
-8.04937e-06
1.23747e-05
6.59184e-05
-4.42221e-06
1.01645e-05
6.73379e-05
-2.86602e-06
8.65688e-06
6.93303e-05
-3.67956e-06
7.80928e-06
7.17741e-05
-8.43887e-06
8.0377e-06
7.53918e-05
-1.86359e-05
9.35924e-06
8.12708e-05
-3.0901e-05
1.02273e-05
8.95733e-05
-3.83036e-05
8.21945e-06
9.92047e-05
-3.77038e-05
2.2794e-06
0.000108062
-3.02066e-05
-6.69935e-06
0.00011368
-1.95328e-05
-1.3988e-05
0.000114632
-9.62234e-06
-1.71017e-05
0.000111296
-5.97452e-06
-1.58371e-05
0.000105359
-8.21319e-06
-1.23964e-05
9.82919e-05
-9.66867e-06
-1.02987e-05
9.06662e-05
-7.50942e-06
-1.15947e-05
8.29153e-05
-4.91714e-06
-1.52845e-05
7.6495e-05
-3.93652e-06
-1.89307e-05
7.34853e-05
-3.1208e-06
-2.0618e-05
7.48328e-05
-1.95451e-06
-1.99705e-05
8.01551e-05
-2.48325e-06
-1.77941e-05
8.83779e-05
-5.09669e-06
-1.44111e-05
9.80733e-05
-6.6531e-06
-9.43646e-06
0.000107983
-6.61532e-06
-2.52714e-06
-8.78597e-06
4.96817e-06
0.000147682
-2.97883e-05
4.87387e-06
0.000153758
-2.76426e-05
1.59097e-05
0.000150694
-1.78712e-05
2.27207e-05
0.000144262
-1.04859e-05
2.28903e-05
0.000141263
-8.92705e-06
1.89106e-05
0.000142034
-8.12183e-06
1.62971e-05
0.000142939
-5.09929e-06
1.74135e-05
0.000142079
-2.10068e-06
1.98057e-05
0.000140229
-1.7601e-06
1.90244e-05
0.000137157
-2.51838e-06
1.42966e-05
0.000130558
-2.7169e-06
1.08291e-05
0.000119308
-4.67001e-06
1.34447e-05
0.000105713
-9.38076e-06
1.94849e-05
9.40776e-05
-1.37509e-05
2.23085e-05
8.6791e-05
-1.40264e-05
2.0235e-05
8.34091e-05
-1.04178e-05
1.66942e-05
8.26163e-05
-6.42333e-06
1.40895e-05
8.32183e-05
-4.24741e-06
1.26781e-05
8.42106e-05
-4.81705e-06
1.22349e-05
8.50375e-05
-1.08547e-05
1.34558e-05
8.63527e-05
-2.51083e-05
1.68314e-05
9.00434e-05
-4.38195e-05
2.06109e-05
9.73674e-05
-5.6896e-05
2.12083e-05
0.000108504
-5.89798e-05
1.6101e-05
0.000122704
-5.19048e-05
5.93089e-06
0.000136238
-3.72368e-05
-7.05797e-06
0.000143777
-1.9879e-05
-1.59935e-05
0.00014363
-1.05486e-05
-1.80402e-05
0.000138244
-1.13534e-05
-1.49352e-05
0.000130878
-1.27148e-05
-1.10672e-05
0.000123068
-9.30779e-06
-1.02849e-05
0.000114754
-5.08361e-06
-1.31303e-05
0.000106169
-3.05333e-06
-1.76406e-05
9.88893e-05
-1.6231e-06
-2.18776e-05
9.51403e-05
-1.80004e-06
-2.51173e-05
9.6639e-05
-7.1066e-06
-2.69917e-05
0.000103319
-1.56215e-05
-2.63348e-05
0.000112935
-2.07323e-05
-2.22028e-05
0.000123388
-2.08018e-05
-1.53103e-05
-2.3513e-05
-6.15789e-06
0.000162037
-4.84744e-05
-8.59615e-06
0.000175142
-4.83123e-05
6.15925e-06
0.000176566
-2.88717e-05
1.90815e-05
0.000167812
-1.0137e-05
2.49818e-05
0.000161271
-6.58052e-06
2.27856e-05
0.000163381
-1.06748e-05
1.76594e-05
0.000168675
-9.45601e-06
1.62761e-05
0.000169994
-3.31047e-06
1.99023e-05
0.000168169
-1.36683e-06
2.32306e-05
0.000167371
-4.64916e-06
1.99811e-05
0.000165998
-5.88967e-06
1.28728e-05
0.000158901
-4.52858e-06
1.15572e-05
0.000144518
-5.36163e-06
1.81698e-05
0.000127
-8.81232e-06
2.46555e-05
0.000112766
-1.13174e-05
2.50714e-05
0.000104882
-1.0488e-05
2.16264e-05
0.000102212
-7.72881e-06
1.82835e-05
0.000102334
-5.49399e-06
1.63087e-05
0.000103441
-5.71223e-06
1.54107e-05
0.000104313
-1.22308e-05
1.62314e-05
0.000104326
-2.86637e-05
2.00043e-05
0.000104695
-5.18878e-05
2.62277e-05
0.000107992
-7.08128e-05
3.10233e-05
0.000116198
-7.70037e-05
2.93578e-05
0.000130526
-7.17177e-05
1.98643e-05
0.000149575
-5.70758e-05
5.5535e-06
0.000165923
-3.54102e-05
-9.19041e-06
0.000171618
-1.85824e-05
-1.64473e-05
0.000166648
-1.3881e-05
-1.62586e-05
0.000158113
-1.39518e-05
-1.2499e-05
0.0001518
-1.14558e-05
-9.35679e-06
0.000147188
-7.0025e-06
-9.57564e-06
0.000141216
-2.59162e-06
-1.32307e-05
0.000133252
2.2607e-06
-1.86086e-05
0.000125238
3.83084e-06
-2.50364e-05
0.000120509
-4.83906e-06
-3.22011e-05
0.000122067
-2.13289e-05
-3.73347e-05
0.000129033
-3.34532e-05
-3.67111e-05
0.000137482
-3.51786e-05
-3.0522e-05
-3.83372e-05
-2.0773e-05
0.000175953
-6.27409e-05
-2.17637e-05
0.00019149
-6.95126e-05
-5.14378e-06
0.000200017
-4.80309e-05
1.24061e-05
0.000193858
-1.5123e-05
2.38959e-05
0.000182122
-1.31034e-06
2.54232e-05
0.000179519
-8.68625e-06
1.9413e-05
0.000188098
-1.54562e-05
1.40261e-05
0.000195646
-8.64413e-06
1.55849e-05
0.000193372
6.22606e-07
2.18984e-05
0.000187963
-2.25834e-06
2.40494e-05
0.000189395
-1.25696e-05
1.78015e-05
0.000193475
-1.59159e-05
1.22279e-05
0.000188108
-1.05784e-05
1.63594e-05
0.00017049
-5.40235e-06
2.48656e-05
0.000149055
-4.41709e-06
2.85034e-05
0.000133295
-5.42731e-06
2.65217e-05
0.000126212
-6.09221e-06
2.31462e-05
0.000125396
-6.29744e-06
2.06323e-05
0.000127629
-7.57044e-06
1.87489e-05
0.000130444
-1.42793e-05
1.78678e-05
0.00013167
-3.03911e-05
1.98015e-05
0.000130636
-5.39693e-05
2.60596e-05
0.000129385
-7.58346e-05
3.46565e-05
0.000131849
-8.66443e-05
3.88814e-05
0.000141891
-8.5186e-05
3.31873e-05
0.00016072
-7.39629e-05
1.85498e-05
0.000181947
-5.2912e-05
1.11849e-06
0.00019208
-2.87266e-05
-1.16393e-05
0.000184485
-1.24475e-05
-1.51395e-05
0.000168725
-6.18306e-06
-1.25221e-05
0.000159294
-7.25115e-06
-7.65874e-06
0.000161006
-1.04044e-05
-4.2945e-06
0.000167056
-8.38565e-06
-5.17502e-06
0.000168412
2.48383e-06
-1.04012e-05
0.000163057
1.15695e-05
-1.88154e-05
0.00015496
4.7052e-06
-3.0177e-05
0.000149827
-1.72695e-05
-4.22345e-05
0.000151306
-3.84695e-05
-4.86869e-05
0.000157139
-4.51793e-05
-4.60525e-05
-4.88824e-05
-3.60826e-05
0.000195446
-6.88654e-05
-3.5931e-05
0.000208801
-8.44444e-05
-1.64673e-05
0.000221944
-7.09926e-05
3.57377e-06
0.000223433
-3.07601e-05
1.94341e-05
0.000212299
-1.42776e-06
2.54569e-05
0.00020125
-2.05507e-06
2.1011e-05
0.000203208
-1.62468e-05
1.24287e-05
0.000215335
-1.75272e-05
9.18522e-06
0.000221569
-3.22249e-06
1.41413e-05
0.000214621
4.15565e-06
2.01482e-05
0.000207185
-9.68196e-06
1.89557e-05
0.000213259
-2.99926e-05
1.35642e-05
0.000223312
-3.20634e-05
1.5177e-05
0.000218033
-1.60612e-05
2.40433e-05
0.000196602
-9.00584e-07
3.00785e-05
0.000173043
4.1091e-06
2.98072e-05
0.000158025
1.91479e-06
2.73973e-05
0.000153116
-3.2102e-06
2.57437e-05
0.000155412
-9.68277e-06
2.38991e-05
0.000161052
-1.94317e-05
2.09194e-05
0.000165316
-3.42998e-05
1.88051e-05
0.000164947
-5.36577e-05
2.19606e-05
0.000160872
-7.35374e-05
3.20142e-05
0.00015755
-8.6656e-05
4.19681e-05
0.000160963
-8.93723e-05
4.22957e-05
0.000175024
-8.35758e-05
2.99811e-05
0.000195274
-6.69864e-05
1.07807e-05
0.000207224
-3.84395e-05
-6.47398e-06
0.000199542
-9.12611e-06
-1.39218e-05
0.000179353
7.95727e-06
-1.25785e-05
0.00016399
6.10152e-06
-5.67919e-06
0.000163437
-7.25692e-06
2.35221e-06
0.000176014
-1.45894e-05
6.14515e-06
0.000190892
-3.90303e-06
2.86735e-06
0.000197436
1.3499e-05
-6.22438e-06
0.000194289
1.61666e-05
-2.0694e-05
0.000187092
-4.73854e-06
-3.83866e-05
0.000182479
-3.23733e-05
-5.32907e-05
0.000182987
-4.62633e-05
-5.84166e-05
-5.25034e-05
-5.17498e-05
0.000219868
-6.64003e-05
-5.18383e-05
0.000230313
-8.94149e-05
-2.99065e-05
0.000243805
-8.88939e-05
-7.9336e-06
0.000251866
-5.4458e-05
1.11252e-05
0.000247612
-1.3814e-05
2.15606e-05
0.000234457
8.5912e-07
2.12219e-05
0.000225048
-9.4326e-06
1.24226e-05
0.000229643
-2.00648e-05
4.42626e-06
0.000242884
-1.28327e-05
5.1082e-06
0.000248348
1.03911e-06
1.21657e-05
0.00024021
-3.37261e-06
1.59919e-05
0.000234568
-3.05005e-05
1.32133e-05
0.000244893
-5.19011e-05
1.29513e-05
0.00025551
-4.13699e-05
2.12155e-05
0.00024664
-1.16502e-05
2.94246e-05
0.000223257
9.8065e-06
3.06222e-05
0.000201174
1.46249e-05
2.90292e-05
0.000188566
8.01767e-06
2.92186e-05
0.000186814
-6.66845e-06
2.95448e-05
0.000194079
-2.65776e-05
2.57036e-05
0.000203593
-4.45122e-05
1.80006e-05
0.00020683
-5.6597e-05
1.41907e-05
0.000201569
-6.75705e-05
2.24645e-05
0.000192819
-7.86394e-05
3.79129e-05
0.000188236
-8.40009e-05
4.61013e-05
0.000194088
-8.25789e-05
3.83618e-05
0.000209119
-7.18546e-05
1.89759e-05
0.000220976
-4.45755e-05
-5.56044e-07
0.000217182
-6.90623e-06
-1.20262e-05
0.000200087
2.05963e-05
-1.36755e-05
0.000183269
2.15159e-05
-7.07633e-06
0.000177369
2.02173e-06
4.17856e-06
0.0001857
-1.45224e-05
1.38586e-05
0.000203737
-1.01551e-05
1.62585e-05
0.000221105
9.31094e-06
1.0085e-05
0.000229355
2.13494e-05
-4.78317e-06
0.000228257
9.43119e-06
-2.61077e-05
0.000222663
-1.78248e-05
-4.83908e-05
0.000217134
-3.67673e-05
-6.33556e-05
-4.73209e-05
-6.49766e-05
0.000250446
-5.75609e-05
-6.653e-05
0.000258509
-8.59148e-05
-4.58224e-05
0.000269908
-9.6963e-05
-2.096e-05
0.000278699
-7.59302e-05
-5.12562e-07
0.00027973
-3.58651e-05
1.37328e-05
0.000271075
-6.51544e-06
1.84453e-05
0.000257499
-2.19672e-06
1.2677e-05
0.000250791
-1.27326e-05
2.41995e-06
0.000258879
-1.79332e-05
-7.42526e-07
0.000273425
-1.13722e-05
6.12995e-06
0.000277311
-8.9508e-06
1.41673e-05
0.000268848
-2.73487e-05
1.37566e-05
0.000266863
-5.62912e-05
1.04208e-05
0.000278811
-6.24718e-05
1.55552e-05
0.000285529
-3.41304e-05
2.52684e-05
0.000273742
2.63877e-06
2.86837e-05
0.000252122
2.31215e-05
2.76515e-05
0.000233191
2.42102e-05
2.9229e-05
0.000223626
7.40764e-06
3.11712e-05
0.000227511
-2.55624e-05
2.62461e-05
0.000241929
-5.59183e-05
1.30573e-05
0.000253515
-6.52047e-05
1.21054e-06
0.000251504
-6.27727e-05
5.47613e-06
0.000238743
-6.50198e-05
2.50241e-05
0.000225264
-7.04027e-05
4.34622e-05
0.000220332
-7.06045e-05
4.40773e-05
0.000226894
-6.3911e-05
2.70094e-05
0.000236879
-4.25974e-05
6.3841e-06
0.000238087
-4.60313e-06
-8.77326e-06
0.000228181
2.84111e-05
-1.51686e-05
0.000215307
3.31546e-05
-1.28188e-05
0.000207483
1.27576e-05
-2.3047e-06
0.000209031
-7.87801e-06
1.03451e-05
0.000220598
-9.74307e-06
1.93675e-05
0.000238555
4.76733e-06
2.06031e-05
0.000256163
1.73293e-05
1.2047e-05
0.000266774
1.37395e-05
-8.71006e-06
0.000267232
-3.58071e-06
-3.56879e-05
0.000259681
-1.98729e-05
-5.96894e-05
-3.40618e-05
-7.17736e-05
0.000289519
-4.58332e-05
-7.59151e-05
0.000295257
-7.84757e-05
-6.01096e-05
0.000303906
-9.51165e-05
-3.55112e-05
0.000308087
-8.64127e-05
-1.37587e-05
0.000307379
-5.62931e-05
2.67287e-06
0.000302602
-2.15346e-05
1.22339e-05
0.000293131
-1.23016e-06
1.1527e-05
0.000283489
-1.74765e-06
2.3426e-06
0.000283902
-1.39273e-05
-3.59045e-06
0.000296614
-2.17115e-05
2.19964e-06
0.000307911
-2.17632e-05
1.297e-05
0.000305524
-2.89092e-05
1.5162e-05
0.000297206
-5.13049e-05
8.55966e-06
0.000299096
-6.77927e-05
7.50333e-06
0.000308188
-5.25287e-05
1.64999e-05
0.000307603
-1.41875e-05
2.4836e-05
0.000292979
1.89562e-05
2.7856e-05
0.000274542
3.27397e-05
2.99117e-05
0.000261572
2.46156e-05
2.79994e-05
0.000259216
-8.92904e-06
1.58701e-05
0.000272445
-5.39251e-05
-1.78366e-06
0.000293993
-7.65261e-05
-1.48857e-05
0.000303476
-6.66224e-05
-1.34776e-05
0.000292155
-5.27272e-05
8.1699e-06
0.000270897
-5.25011e-05
3.52007e-05
0.000254741
-5.19723e-05
4.66752e-05
0.000251585
-4.49696e-05
3.48953e-05
0.00025765
-2.79549e-05
1.3179e-05
0.000262238
2.95319e-06
-4.19465e-06
0.000259542
3.29497e-05
-1.53016e-05
0.000252956
3.85726e-05
-1.99631e-05
0.000247712
1.98841e-05
-1.50467e-05
0.000246383
-2.05319e-07
-2.30412e-06
0.000250207
-3.34365e-06
1.03711e-05
0.000260692
5.45877e-06
1.79988e-05
0.000278866
8.72022e-06
1.81806e-05
0.000299501
2.76311e-06
6.33872e-06
0.000310497
-1.58099e-06
-2.07704e-05
0.000305988
-4.16106e-06
-5.10148e-05
-1.66685e-05
-7.23482e-05
0.000337128
-3.23203e-05
-8.02678e-05
0.000340602
-6.66532e-05
-7.07406e-05
0.00034608
-8.36721e-05
-4.9417e-05
0.000343961
-8.25643e-05
-2.86979e-05
0.000336548
-6.57559e-05
-1.10715e-05
0.000330398
-3.62158e-05
4.24837e-06
0.000325474
-6.26214e-06
1.02369e-05
0.000320044
6.8245e-06
4.08054e-06
0.000318899
-3.66118e-06
-3.69818e-06
0.000327619
-2.33065e-05
-5.33677e-07
0.000340144
-3.21017e-05
1.15429e-05
0.000343134
-3.21562e-05
1.71204e-05
0.000333705
-4.12723e-05
9.11883e-06
0.000323092
-5.68135e-05
9.85361e-07
0.000318651
-5.42009e-05
6.43553e-06
0.000314591
-2.63752e-05
2.02697e-05
0.000306711
5.5912e-06
3.04148e-05
0.000299766
2.61868e-05
2.99124e-05
0.000296967
3.08289e-05
1.70128e-05
0.000295213
1.03607e-05
-3.18578e-06
0.000300542
-3.65214e-05
-2.06524e-05
0.000322174
-8.07242e-05
-2.7549e-05
0.000345489
-8.28546e-05
-2.12082e-05
0.000344956
-5.69167e-05
-8.15364e-08
0.000321054
-3.98542e-05
2.91081e-05
0.000294588
-3.2919e-05
4.78921e-05
0.000282534
-2.32399e-05
4.33631e-05
0.000285825
-7.45864e-06
2.22602e-05
0.000294277
1.4946e-05
1.03358e-06
0.000298576
3.47813e-05
-1.4061e-05
0.000298166
3.62165e-05
-2.45081e-05
0.000297126
1.87544e-05
-2.72733e-05
0.000296907
2.03064e-06
-1.99466e-05
0.000297155
1.19316e-06
-7.28976e-06
0.000300134
8.69374e-06
4.12683e-06
0.000311178
2.65737e-06
1.09941e-05
0.000331491
-1.20924e-05
8.01849e-06
0.000350004
-1.10477e-05
-1.16266e-05
0.000353005
2.20713e-06
-4.16917e-05
-1.63415e-06
-6.87598e-05
0.000390941
-1.89949e-05
-7.85837e-05
0.000392521
-4.94147e-05
-7.66211e-05
0.000396498
-6.47857e-05
-6.10101e-05
0.000391312
-6.84628e-05
-4.30135e-05
0.000377197
-6.39822e-05
-2.51662e-05
0.000364648
-4.37631e-05
-6.49314e-06
0.000358433
-1.14875e-05
6.59219e-06
0.000356264
1.25883e-05
6.18677e-06
0.000357584
8.75671e-06
-3.93689e-07
0.000364953
-1.61734e-05
2.61497e-07
0.000376276
-3.44474e-05
1.12145e-05
0.00038134
-3.41607e-05
2.03196e-05
0.000371685
-3.14358e-05
1.48647e-05
0.000351082
-3.70764e-05
8.65475e-07
0.00033088
-3.76313e-05
-3.07389e-06
0.000318621
-2.22587e-05
5.74614e-06
0.000316601
-1.02552e-06
1.45681e-05
0.000324034
1.46776e-05
1.11168e-05
0.000334709
2.38665e-05
-4.54256e-06
0.000340209
1.85752e-05
-2.4925e-05
0.00034246
-1.61402e-05
-3.76311e-05
0.000355653
-7.0297e-05
-3.48926e-05
0.000379971
-9.63892e-05
-1.93258e-05
0.000389366
-7.50356e-05
4.47535e-06
0.000369548
-4.0019e-05
3.0892e-05
0.000337798
-1.87468e-05
4.98023e-05
0.000318619
-4.846e-06
4.98328e-05
0.000318499
9.4289e-06
3.13877e-05
0.000327577
2.51368e-05
8.02483e-06
0.000333845
3.65299e-05
-9.87285e-06
0.0003348
3.30904e-05
-2.15221e-05
0.00033631
1.44878e-05
-2.88023e-05
0.000341497
-2.44406e-06
-2.96731e-05
0.000347231
-2.47469e-06
-2.22771e-05
0.000350413
6.22635e-06
-8.64989e-06
0.000353869
2.03799e-06
3.34589e-06
0.000363834
-1.44008e-05
4.45685e-06
0.000380891
-1.64297e-05
-1.02521e-05
0.000394098
3.76966e-07
-3.60164e-05
4.87639e-06
-6.24538e-05
0.000445579
-9.23736e-06
-7.16856e-05
0.000448263
-2.958e-05
-7.71793e-05
0.000453294
-4.25311e-05
-7.03133e-05
0.00045009
-5.02656e-05
-5.6491e-05
0.0004322
-5.4041e-05
-3.97431e-05
0.000410719
-4.22254e-05
-2.02214e-05
0.000398172
-1.23481e-05
-2.29797e-06
0.000395565
1.59658e-05
7.41908e-06
0.000398831
1.90891e-05
7.24309e-06
0.000405275
-3.90625e-06
6.09294e-06
0.000413426
-2.75016e-05
1.144e-05
0.000418013
-3.26837e-05
2.09265e-05
0.000411346
-2.7257e-05
2.23801e-05
0.000392364
-2.36013e-05
1.01052e-05
0.000369886
-1.88861e-05
-5.67874e-06
0.000355742
-8.39258e-06
-1.26826e-05
0.000355241
1.36276e-06
-1.04416e-05
0.000365832
5.17068e-06
-7.59245e-06
0.000379915
9.53572e-06
-1.30771e-05
0.000390607
1.3521e-05
-2.79276e-05
0.000397058
-1.96579e-06
-4.04735e-05
0.000405695
-4.6829e-05
-3.85145e-05
0.000421365
-8.92595e-05
-2.00842e-05
0.000430461
-8.63006e-05
5.95502e-06
0.00041555
-4.62251e-05
3.01511e-05
0.000384687
-8.01478e-06
4.78608e-05
0.000360989
1.45665e-05
5.38269e-05
0.000353752
2.62177e-05
4.26799e-05
0.000354897
3.33723e-05
2.13121e-05
0.000354996
3.68102e-05
3.28199e-06
0.000354153
2.92619e-05
-5.83484e-06
0.000358102
7.85201e-06
-1.1885e-05
0.00036951
-1.3262e-05
-2.00944e-05
0.000382724
-1.5629e-05
-2.28221e-05
0.000389882
-2.77599e-06
-1.08555e-05
0.000390258
4.57275e-06
6.24772e-06
0.00039127
-2.58453e-06
8.69971e-06
0.000402382
-7.20645e-06
-8.58438e-06
0.000422939
6.29241e-07
-3.33822e-05
4.22567e-06
-5.57248e-05
0.000494346
-3.2231e-06
-6.19642e-05
0.000505561
-1.55186e-05
-6.93423e-05
0.000515257
-2.31418e-05
-7.09225e-05
0.000515441
-3.09962e-05
-6.54726e-05
0.000496244
-3.78908e-05
-5.38401e-05
0.000466806
-3.06747e-05
-3.67636e-05
0.000445385
-5.44974e-06
-1.6397e-05
0.000438689
1.99621e-05
1.00025e-06
0.000441913
2.36262e-05
1.01639e-05
0.0004479
4.34778e-06
1.33511e-05
0.000452489
-1.73216e-05
1.66703e-05
0.000452932
-2.45506e-05
2.22552e-05
0.000445785
-2.11157e-05
2.41956e-05
0.000431762
-1.61249e-05
1.52962e-05
0.00041798
-9.28549e-06
-2.33451e-06
0.000412081
-9.00641e-07
-1.75662e-05
0.000414728
1.15447e-06
-1.97463e-05
0.000421962
-4.87177e-06
-1.06576e-05
0.000430218
-6.64021e-06
-5.06204e-06
0.000437357
2.83821e-06
-1.29878e-05
0.000443528
5.46663e-06
-2.5004e-05
0.000450962
-2.25536e-05
-2.80864e-05
0.000462719
-6.85731e-05
-1.76914e-05
0.000472502
-8.4105e-05
3.1608e-06
0.00046554
-5.02364e-05
2.72928e-05
0.000441386
-8.54143e-08
4.48873e-05
0.000415738
3.44542e-05
5.12317e-05
0.000398364
4.60186e-05
4.55793e-05
0.000387506
4.22222e-05
3.3503e-05
0.000381388
3.43111e-05
2.11546e-05
0.000382309
2.43612e-05
1.09484e-05
0.000391492
6.71961e-06
2.53546e-06
0.000406279
-1.53585e-05
-5.83404e-06
0.000420409
-2.47993e-05
-1.06606e-05
0.000427935
-1.22536e-05
-6.27108e-06
0.000428563
8.33026e-06
6.90587e-06
0.000426938
1.63564e-05
1.47109e-05
0.000432939
1.46613e-05
1.45151e-06
0.000451909
1.29249e-05
-2.56573e-05
8.33024e-06
-4.83968e-05
0.000539276
-3.09672e-06
-4.85694e-05
0.000558172
-1.25899e-05
-5.91533e-05
0.000573945
-1.30192e-05
-6.54937e-05
0.000578411
-1.35462e-05
-6.67929e-05
0.00056192
-1.7179e-05
-6.19965e-05
0.000531524
-1.32307e-05
-5.03944e-05
0.00050511
5.23984e-06
-3.18339e-05
0.00049142
2.49929e-05
-1.01588e-05
0.000487566
2.66285e-05
6.7744e-06
0.00048803
9.7033e-06
1.57229e-05
0.000488764
-8.27983e-06
2.1143e-05
0.000487423
-1.55669e-05
2.68253e-05
0.000482719
-1.41174e-05
2.66695e-05
0.000476993
-1.00984e-05
1.34266e-05
0.000475547
-4.16909e-06
-7.3637e-06
0.000480163
9.06538e-07
-2.05163e-05
0.000484881
-3.24171e-06
-1.63377e-05
0.000483225
-1.46073e-05
1.28318e-07
0.000477082
-1.73937e-05
1.21261e-05
0.000474496
-2.61182e-06
9.47009e-06
0.000480663
1.23919e-05
-5.76198e-07
0.000493273
-7.57169e-07
-5.28455e-06
0.00050673
-4.28102e-05
-1.9306e-07
0.000514685
-7.13941e-05
1.30986e-05
0.000508693
-4.8959e-05
2.84408e-05
0.000487443
6.61843e-06
4.08669e-05
0.000461195
5.11098e-05
4.68363e-05
0.000439563
6.43294e-05
4.27841e-05
0.000424901
5.44017e-05
3.34933e-05
0.00041822
3.97634e-05
2.78302e-05
0.000421096
2.88522e-05
2.6422e-05
0.000432515
1.69816e-05
2.15125e-05
0.000448051
6.29755e-07
1.01976e-05
0.000461708
-1.06735e-05
1.07019e-06
0.000469055
-4.2386e-06
3.20551e-06
0.000471068
1.48983e-05
1.57742e-05
0.000472342
2.92012e-05
2.44411e-05
0.000478651
3.2212e-05
1.62055e-05
0.000494314
2.6747e-05
-7.42448e-06
1.3507e-05
-3.1803e-05
0.000585649
-1.06719e-05
-3.63823e-05
0.000609724
-2.63055e-05
-4.76013e-05
0.000628182
-2.26822e-05
-5.17227e-05
0.000633811
-8.16055e-06
-5.78736e-05
0.000623766
1.79128e-06
-6.46094e-05
0.000605144
5.70279e-06
-6.43819e-05
0.000587486
1.46904e-05
-5.12054e-05
0.000573123
2.75928e-05
-2.72324e-05
0.000558829
3.02292e-05
-3.34232e-06
0.000543995
1.79042e-05
1.15566e-05
0.000532309
8.54796e-07
2.02821e-05
0.000527279
-1.18113e-05
2.87625e-05
0.000530703
-2.05144e-05
3.46575e-05
0.000542425
-2.68883e-05
2.95883e-05
0.000559567
-2.79799e-05
1.41797e-05
0.00057383
-2.27264e-05
9.14035e-07
0.000574643
-1.77588e-05
2.16904e-06
0.000559228
-1.66843e-05
1.98666e-05
0.000538709
-1.10222e-05
4.20284e-05
0.000528393
7.00083e-06
4.72542e-05
0.000533339
2.69872e-05
2.69273e-05
0.000546619
2.48728e-05
-1.74927e-06
0.00055931
-7.27141e-06
-1.35571e-05
0.000565103
-4.35777e-05
2.02833e-06
0.00055791
-4.24052e-05
2.76784e-05
0.000535971
2.47649e-06
4.29991e-05
0.000509082
5.37395e-05
4.5273e-05
0.000488488
7.91696e-05
3.93428e-05
0.000478073
7.68239e-05
3.0598e-05
0.000476071
6.10458e-05
2.40703e-05
0.000479781
4.39522e-05
2.05507e-05
0.000487639
2.88139e-05
1.71601e-05
0.000498856
1.52753e-05
1.19257e-05
0.000511858
7.47086e-06
6.19986e-06
0.000523347
1.07354e-05
6.30726e-06
0.000530121
2.2311e-05
1.78264e-05
0.000532385
3.19726e-05
3.4008e-05
0.000534894
3.42805e-05
3.8566e-05
0.000543912
2.84527e-05
2.12036e-05
1.24634e-05
-1.07853e-05
0.000639263
-2.23504e-05
-2.14306e-05
0.000662493
-3.47652e-05
-4.54264e-05
0.000680931
-2.77574e-05
-5.36297e-05
0.000687817
-4.78306e-06
-5.33846e-05
0.000679136
1.64126e-05
-5.43526e-05
0.000660907
2.58561e-05
-5.78637e-05
0.000645846
2.80345e-05
-5.59577e-05
0.000639896
2.91968e-05
-4.37668e-05
0.000637467
2.71898e-05
-2.61037e-05
0.0006298
1.87322e-05
-1.01405e-05
0.000614758
6.16735e-06
2.73293e-06
0.00059848
-7.00287e-06
1.57395e-05
0.000590367
-2.25904e-05
2.98708e-05
0.000597299
-4.15624e-05
3.88435e-05
0.000619071
-5.74805e-05
3.64576e-05
0.000643557
-6.04363e-05
2.60616e-05
0.000652258
-4.86758e-05
1.94379e-05
0.000637395
-2.8433e-05
2.69978e-05
0.000610958
-4.4822e-06
4.50752e-05
0.000591009
2.01874e-05
5.25976e-05
0.000585199
3.61102e-05
3.27854e-05
0.000589392
3.13904e-05
-5.06874e-06
0.000599113
4.45781e-06
-3.32552e-05
0.00060919
-2.85638e-05
-2.79832e-05
0.00061136
-3.84192e-05
3.88174e-06
0.000600505
-1.00617e-05
3.38493e-05
0.00058501
3.77636e-05
4.47567e-05
0.000575835
7.42164e-05
3.78036e-05
0.000574675
8.58863e-05
1.98696e-05
0.000575575
7.66679e-05
4.81705e-07
0.000574455
5.73469e-05
-1.03081e-05
0.000572388
3.53043e-05
-7.7081e-06
0.000572693
1.8588e-05
2.75513e-06
0.00057545
1.34285e-05
1.40434e-05
0.000578419
1.89674e-05
2.29656e-05
0.000579793