/*--------------------------------*- C++ -*----------------------------------*\
| =========                 |                                                 |
| \\      /  F ield         | OpenFOAM: The Open Source CFD Toolbox           |
|  \\    /   O peration     | Version:  2306                                  |
|   \\  /    A nd           | Website:  www.openfoam.com                      |
|    \\/     M anipulation  |                                                 |
\*---------------------------------------------------------------------------*/
FoamFile
{
    version     2.0;
    format      ascii;
    arch        "LSB;label=32;scalar=64";
    class       volScalarField;
    location    "2";
    object      pMean;
}
// * * * * * * * * * * * * * * * * * * * * * * * * * * * * * * * * * * * * * //

dimensions      [0 2 -2 0 0 0 0];

internalField   nonuniform List<scalar> 
60000
(
6.78429e-05
0.000126385
0.000172735
0.000200117
0.000218813
0.000226965
0.000211703
0.000176189
0.000152115
0.00017192
0.000227951
0.000282662
0.000303267
0.000282827
0.000238548
0.000191596
0.000148938
0.000107812
7.19892e-05
5.45542e-05
7.0041e-05
0.000117593
0.000170043
0.000201726
0.000207702
0.000196676
0.000194247
0.000226588
0.000279378
0.000312881
0.000315414
0.000305128
0.000295409
0.000281046
0.000254426
0.000219549
0.000172742
0.00010765
4.58559e-05
3.00842e-05
6.48252e-05
0.000123529
0.000170695
0.000198697
0.000217473
0.000225429
0.000209856
0.000173978
0.000149633
0.000169508
0.000226182
0.000281691
0.00030288
0.000282859
0.000238907
0.000192248
0.000149682
0.000108411
7.23062e-05
5.45773e-05
6.987e-05
0.000117386
0.000169682
0.000200822
0.000206174
0.000194581
0.00019184
0.000224255
0.000277858
0.000312397
0.000315802
0.000306318
0.000297316
0.000283412
0.000256904
0.000222098
0.000175202
0.000109253
4.56972e-05
2.80416e-05
5.98927e-05
0.000119686
0.000168287
0.00019719
0.000216298
0.000224499
0.000208973
0.000172348
0.000146557
0.000165657
0.000223259
0.000280499
0.000302989
0.000283587
0.000239792
0.000193082
0.000150317
0.000108593
7.19516e-05
5.38777e-05
6.91928e-05
0.000116931
0.000169185
0.000199825
0.000204642
0.000192184
0.000188167
0.000220222
0.000274937
0.000310935
0.00031544
0.000307113
0.000299268
0.000285784
0.000258792
0.000223389
0.00017603
0.00010883
4.29637e-05
2.34156e-05
5.30839e-05
0.000114883
0.000165573
0.000195643
0.00021529
0.000224152
0.000209013
0.000171511
0.000143403
0.000160634
0.000218996
0.000278903
0.000303724
0.000285279
0.00024138
0.000194175
0.000150867
0.000108339
7.08143e-05
5.25372e-05
6.83138e-05
0.00011669
0.000169
0.000198984
0.000203175
0.000189533
0.000183604
0.000214918
0.000270983
0.000308558
0.000314032
0.000307155
0.00030115
0.000288247
0.000260151
0.000223278
0.000174954
0.000106003
3.74224e-05
1.6092e-05
4.47017e-05
0.000108702
0.000161817
0.000193448
0.000213849
0.000223674
0.000209658
0.000172144
0.000141902
0.000155973
0.000213682
0.000276203
0.000304424
0.000287778
0.000243812
0.000195775
0.000151469
0.000107819
6.92096e-05
5.05025e-05
6.71497e-05
0.000116402
0.000168593
0.000197844
0.000201695
0.000186869
0.000178763
0.000209282
0.000267116
0.000306292
0.000311992
0.000306249
0.00030289
0.000291504
0.000262408
0.000223666
0.000173696
0.000102069
3.00911e-05
7.02146e-06
3.44759e-05
0.00010076
0.000155923
0.000189266
0.000211039
0.000222105
0.000209574
0.000173873
0.000143317
0.000154272
0.000209317
0.000272678
0.000304336
0.000290543
0.000247082
0.000198158
0.000152554
0.000107152
6.65866e-05
4.69505e-05
6.44521e-05
0.000114759
0.000165653
0.000192202
0.000196279
0.000182585
0.000173403
0.000203615
0.000264242
0.000305962
0.000311471
0.000305451
0.00030462
0.000296074
0.000266936
0.000227442
0.000176393
9.98804e-05
2.09739e-05
-4.3118e-06
1.90282e-05
8.95135e-05
0.000147798
0.000182057
0.000205196
0.000218579
0.000207772
0.000173838
0.000145995
0.000156889
0.000208766
0.000270606
0.000303874
0.000293057
0.000250893
0.000201344
0.000154245
0.000106425
6.25755e-05
4.03858e-05
5.81456e-05
0.000110929
0.000161865
0.000183936
0.000183606
0.000170706
0.000163309
0.000195596
0.000260811
0.000307706
0.000315393
0.000308384
0.000307704
0.000300791
0.000273134
0.000235846
0.000187238
0.000107386
1.6875e-05
-1.91021e-05
-1.61915e-06
7.2613e-05
0.000137488
0.00017357
0.00019634
0.000211768
0.000203961
0.000171891
0.00014538
0.000157934
0.000211914
0.000272778
0.000305402
0.000295855
0.000255096
0.000205205
0.000156381
0.000105588
5.74263e-05
3.13914e-05
4.92598e-05
0.000107607
0.000163207
0.000181841
0.000172403
0.000153214
0.00014555
0.000182036
0.000253952
0.000306035
0.000317045
0.000314545
0.000315396
0.000305964
0.00027616
0.000242668
0.000203736
0.000126313
2.26146e-05
-3.226e-05
-2.56399e-05
5.10534e-05
0.000124196
0.000164226
0.000186101
0.000202105
0.000198145
0.000169431
0.000144112
0.000154341
0.000207266
0.000273316
0.000309502
0.0003
0.000259906
0.000210016
0.000159083
0.000104525
5.22764e-05
2.43755e-05
4.49804e-05
0.000112185
0.000176886
0.000193735
0.000170606
0.000136476
0.000122395
0.000163042
0.00024436
0.000302479
0.00031402
0.000311771
0.000316631
0.000308084
0.000274405
0.000243015
0.0002179
0.000152704
3.91557e-05
-4.04102e-05
-4.87202e-05
2.43636e-05
0.000107204
0.000153763
0.000175292
0.000191096
0.000190828
0.000166246
0.000141942
0.00014909
0.000195692
0.000260903
0.000304379
0.000301934
0.000264162
0.000215491
0.000163092
0.000103744
4.72671e-05
2.09206e-05
4.96039e-05
0.000129902
0.000207425
0.000224412
0.000184424
0.000128254
0.000100657
0.00014054
0.000230199
0.000294574
0.000307436
0.000306642
0.000313948
0.000306153
0.000269581
0.0002373
0.000226318
0.000181477
6.69357e-05
-3.88587e-05
-6.18273e-05
-2.51232e-06
8.59705e-05
0.000141704
0.000166205
0.000181742
0.000184312
0.000164289
0.000140574
0.000142922
0.000182142
0.000241347
0.000284473
0.000288634
0.000260506
0.000218672
0.000169018
0.000105706
4.40377e-05
2.00059e-05
5.9835e-05
0.000156212
0.00025126
0.000274158
0.000218553
0.000137088
9.03308e-05
0.000119735
0.000209683
0.000276846
0.000292821
0.000298351
0.000312446
0.000307189
0.000270432
0.000235303
0.000232331
0.000209477
0.000105098
-2.14613e-05
-5.65664e-05
-2.00855e-05
6.39586e-05
0.000127974
0.000157748
0.000175266
0.000179611
0.000163582
0.000141321
0.000140926
0.000172507
0.000222955
0.000259073
0.0002605
0.000237709
0.000208319
0.000170055
0.00011253
5.0134e-05
2.72264e-05
7.40722e-05
0.000181299
0.000292948
0.000331683
0.000272191
0.000170131
0.000101538
0.000111661
0.000186174
0.000251304
0.000273249
0.000288972
0.000314245
0.000315584
0.000281099
0.000243907
0.000240688
0.000234615
0.000148314
1.30898e-05
-3.11739e-05
-2.10919e-05
4.85051e-05
0.000112647
0.000148358
0.000168201
0.000175395
0.000163543
0.00014216
0.000139498
0.00016755
0.000211453
0.000239293
0.000230961
0.00020286
0.000182213
0.00016103
0.000118331
6.77161e-05
4.96316e-05
9.47258e-05
0.000196147
0.000314023
0.000373938
0.000329359
0.000221458
0.000135557
0.000121665
0.000170458
0.000224903
0.000254747
0.000282728
0.000316536
0.000326201
0.000298463
0.00026232
0.000252919
0.00025281
0.000187951
5.90962e-05
1.21249e-05
-5.75365e-07
4.7894e-05
0.000103822
0.000141143
0.000160963
0.000169216
0.000161563
0.000142546
0.000138471
0.000164502
0.000206485
0.000231648
0.000216549
0.000179139
0.000158185
0.000148329
0.000117667
8.13232e-05
7.24057e-05
0.000111521
0.000196194
0.000305661
0.000382856
0.000367792
0.000271849
0.000177383
0.000139929
0.000159643
0.000201905
0.000240275
0.000280121
0.000320029
0.000333167
0.000313208
0.000281342
0.00026344
0.000259368
0.000215623
0.000107676
6.84279e-05
4.04678e-05
6.41358e-05
0.000105335
0.000140159
0.000157935
0.000162556
0.00015667
0.000142002
0.000137879
0.000161695
0.000202904
0.000231371
0.000222794
0.000185595
0.000158914
0.000146347
0.000118319
8.44961e-05
8.17684e-05
0.000118747
0.000186237
0.000278539
0.000363461
0.000380046
0.000307385
0.000210714
0.000153474
0.000149525
0.000181791
0.00022611
0.000272131
0.000313915
0.000332339
0.000319934
0.000293538
0.000268366
0.000255369
0.000228993
0.000152725
0.000124205
9.01864e-05
9.08111e-05
0.000114646
0.000144285
0.000157929
0.000155205
0.000146164
0.00013761
0.000138123
0.000160185
0.000197758
0.000227457
0.000229197
0.000202789
0.00017402
0.000152987
0.000121002
8.35268e-05
8.51302e-05
0.000129924
0.000185437
0.000252271
0.000330666
0.000369347
0.000327392
0.000240768
0.000170071
0.000144386
0.00016474
0.000208069
0.000252196
0.000294628
0.000322691
0.000323526
0.000300524
0.000268237
0.000248917
0.000233244
0.000187101
0.000164555
0.000131856
0.000119983
0.000130581
0.000152688
0.000160509
0.000148723
0.00013279
0.000125622
0.000132843
0.000156375
0.000193072
0.000224305
0.000230792
0.000211276
0.000184631
0.000160777
0.000128539
9.24998e-05
9.77108e-05
0.000150673
0.00019934
0.000240975
0.000297197
0.000338231
0.000322432
0.00025829
0.000190809
0.000152369
0.000156996
0.00019328
0.000238685
0.000278977
0.000304623
0.000313434
0.000301875
0.000267052
0.000242595
0.000232741
0.000207968
0.000185192
0.00016389
0.000150118
0.000150774
0.000162645
0.000162263
0.000141559
0.000117929
0.000109561
0.000121092
0.000147105
0.000186197
0.000225304
0.000239314
0.000220807
0.000190253
0.000164802
0.000136096
0.000105898
0.000112751
0.000163076
0.000208135
0.000237742
0.000274726
0.000309377
0.000304616
0.000258236
0.000197348
0.00015815
0.000159785
0.000193292
0.000237658
0.000277736
0.000304289
0.000311042
0.000293156
0.000253646
0.000223788
0.000216309
0.000206817
0.000183962
0.000172967
0.000168206
0.000172766
0.000177648
0.000166334
0.000137087
0.000106516
9.03277e-05
9.65366e-05
0.000122586
0.000162201
0.000209382
0.000239836
0.000234662
0.000207583
0.00018447
0.000161647
0.000135452
0.000132041
0.00016467
0.000202573
0.000229428
0.000263943
0.000299301
0.000296065
0.000251405
0.000194335
0.000160561
0.000163104
0.000190572
0.000228796
0.000270837
0.000301518
0.000306429
0.000283414
0.000240644
0.000203157
0.000190445
0.000190824
0.000166724
0.00016588
0.000165493
0.000169974
0.000175797
0.000167228
0.000142094
0.000113428
9.29251e-05
8.65574e-05
9.61113e-05
0.000121696
0.000162602
0.000202193
0.000215536
0.000203243
0.000193191
0.000189428
0.000171967
0.000149517
0.000154815
0.000181506
0.000211516
0.000251238
0.000291137
0.000287898
0.000237898
0.000178982
0.000147262
0.000148744
0.000174499
0.000210398
0.00025318
0.000285898
0.000290566
0.000267294
0.00022891
0.00019176
0.000169912
0.000163654
0.000141524
0.000151054
0.000164346
0.000174408
0.000175587
0.000162368
0.000138972
0.000117376
0.000101447
8.99235e-05
8.71253e-05
9.71511e-05
0.000121884
0.000155382
0.000182099
0.000189124
0.00018711
0.000188457
0.00018232
0.000160285
0.000146663
0.000163745
0.000202418
0.000250243
0.000290808
0.000283306
0.000221726
0.000146769
0.000104638
0.000111305
0.000147929
0.000194896
0.000239939
0.000271905
0.000279681
0.000264178
0.000234302
0.000199442
0.00016598
0.000144545
0.000153297
0.000147413
0.000156552
0.000166973
0.000169942
0.000160005
0.00014164
0.000123525
0.000109656
0.000100538
9.75169e-05
0.000101933
0.000112174
0.000128577
0.000149702
0.000169009
0.000181811
0.000188763
0.000185954
0.000170536
0.000159071
0.000169719
0.000200076
0.000243921
0.000287004
0.000288666
0.000227955
0.000143105
8.57452e-05
8.19148e-05
0.000122009
0.000179487
0.000233825
0.000268626
0.000273429
0.000258064
0.000240377
0.000229784
0.000208626
0.000177452
0.000171827
0.000153821
0.0001442
0.000146284
0.000150281
0.000150074
0.000145015
0.000135198
0.000122403
0.000113756
0.000113634
0.000120736
0.000129274
0.000137958
0.000149089
0.000164709
0.000181089
0.000190537
0.000190601
0.00018262
0.000175653
0.000180882
0.000201571
0.00023312
0.000263744
0.000267994
0.00022806
0.000162476
0.000111785
0.000100704
0.00012742
0.000174331
0.000221547
0.000251784
0.000257932
0.000248573
0.000238711
0.000231215
0.000218803
0.000196109
0.000151096
0.000123102
0.00011609
0.000124453
0.000137791
0.000149576
0.000156019
0.000154339
0.000145215
0.000135605
0.000131084
0.00013008
0.000132702
0.000142175
0.000158418
0.000174635
0.000188358
0.000200151
0.000203082
0.000196516
0.000186098
0.000181333
0.000187317
0.000205693
0.000230653
0.000243607
0.000223852
0.000176564
0.000132088
0.000115962
0.000130067
0.000162297
0.000199676
0.000228181
0.000238273
0.000235984
0.000234189
0.000232865
0.000221402
0.000190357
0.000141365
0.000103623
8.91555e-05
9.91585e-05
0.000120039
0.000141022
0.000154488
0.000157806
0.000151525
0.000142268
0.000139443
0.000145045
0.000151704
0.000155161
0.000161983
0.000179678
0.000204493
0.000225314
0.000232381
0.000220044
0.00019497
0.000173781
0.000165294
0.000169951
0.000187122
0.000207784
0.000213773
0.000189509
0.000155852
0.000136199
0.0001391
0.00016016
0.000187344
0.000211182
0.000225946
0.000233066
0.000236963
0.000235897
0.000220379
0.000186118
-2.35501e-05
-4.1147e-08
5.53844e-05
0.000116279
0.000166664
0.000193472
0.000186679
0.000155021
0.000132743
0.000150595
0.000198542
0.000237813
0.000243119
0.000220242
0.00019168
0.000170802
0.000151808
0.000124276
8.94628e-05
6.72439e-05
8.17295e-05
0.000138971
0.000216135
0.000277396
0.000305685
0.000310669
0.000308828
0.000312032
0.000325761
0.000343692
0.000357646
0.000368836
0.000371941
0.000356154
0.000329334
0.000310015
0.000282891
0.00021157
0.000102349
9.30288e-06
-2.37723e-05
-1.71714e-06
5.26551e-05
0.000113396
0.000164325
0.000191691
0.00018522
0.000153472
0.000130967
0.000148895
0.000197422
0.000237201
0.000242757
0.000219954
0.000191462
0.000170747
0.000151991
0.000124583
8.96118e-05
6.67602e-05
8.01793e-05
0.000136245
0.000212539
0.000273423
0.000301838
0.000307445
0.000306543
0.000310489
0.000324352
0.000342083
0.000356145
0.000368037
0.000372178
0.000357278
0.000330958
0.000312008
0.000285715
0.000215023
0.000105342
1.0839e-05
-2.68779e-05
-5.49588e-06
4.88126e-05
0.000110192
0.000162212
0.000190585
0.000184369
0.000151945
0.000128396
0.000146103
0.000195483
0.000236233
0.000242153
0.000219316
0.000190872
0.000170495
0.000152184
0.000124992
8.97198e-05
6.60104e-05
7.84058e-05
0.000133671
0.000209598
0.000270361
0.000298708
0.000304669
0.00030467
0.000309294
0.000322828
0.000339664
0.000353419
0.000366443
0.000372618
0.000358964
0.000332769
0.000314289
0.000289207
0.000218787
0.000107236
9.84691e-06
-3.38047e-05
-1.1728e-05
4.38316e-05
0.000106481
0.00015998
0.000189748
0.000184001
0.000150611
0.00012528
0.000142155
0.000192463
0.000234657
0.000241157
0.000218161
0.000189712
0.000169884
0.000152232
0.000125361
8.97512e-05
6.5234e-05
7.71871e-05
0.000132565
0.0002089
0.000269767
0.000297522
0.000303014
0.000303408
0.000308544
0.000321532
0.000336929
0.000349613
0.000363484
0.0003724
0.000360739
0.00033455
0.000316716
0.00029315
0.000222331
0.000106883
4.93794e-06
-4.47283e-05
-2.07488e-05
3.71997e-05
0.000101505
0.000156716
0.000188394
0.000183982
0.000150446
0.000123438
0.000138361
0.00018853
0.000232046
0.000239506
0.00021641
0.000187817
0.000168685
0.000151987
0.000125392
8.93469e-05
6.43075e-05
7.63818e-05
0.000132689
0.00020999
0.000271104
0.000298014
0.000302532
0.000302768
0.000308154
0.000320815
0.000334932
0.000345794
0.000359061
0.000370036
0.000361031
0.000335643
0.000319087
0.000297883
0.000226223
0.000104744
-3.78706e-06
-5.91949e-05
-3.25607e-05
2.81662e-05
9.37958e-05
0.00015054
0.000184802
0.000183046
0.000151317
0.000124407
0.000137596
0.000185738
0.00022875
0.000237083
0.000214368
0.000185593
0.000167077
0.000151553
0.000125303
8.84405e-05
6.2413e-05
7.44336e-05
0.000131518
0.000209482
0.000270199
0.000295969
0.00030046
0.000301733
0.000307806
0.000320762
0.000334732
0.000344055
0.000354817
0.000365244
0.000357788
0.000334263
0.000321066
0.00030432
0.000231903
0.000102823
-1.49447e-05
-7.5021e-05
-4.65456e-05
1.77886e-05
8.36787e-05
0.00014024
0.000176921
0.0001788
0.000150406
0.000125923
0.000139995
0.000186605
0.000226973
0.000234505
0.000212363
0.000183786
0.000165776
0.000151348
0.000125304
8.68289e-05
5.78335e-05
6.73973e-05
0.000124234
0.000203044
0.000262725
0.00028591
0.000289571
0.000294132
0.000304386
0.000319967
0.000336094
0.000345727
0.000353289
0.000359858
0.000350512
0.000327569
0.000321074
0.000314056
0.000243643
0.000105935
-2.38888e-05
-8.59907e-05
-6.07974e-05
6.52498e-06
7.33843e-05
0.000128737
0.000166366
0.000172116
0.000147561
0.000124835
0.000138181
0.000184934
0.000225985
0.000233004
0.000210909
0.0001826
0.000165096
0.000151555
0.000125305
8.4252e-05
4.95451e-05
5.26892e-05
0.000107292
0.00018847
0.000249221
0.000269034
0.000269636
0.000275664
0.000291744
0.000313682
0.000334811
0.000347724
0.00035485
0.000356735
0.000342083
0.000315789
0.000315766
0.00032535
0.000264607
0.000120457
-2.31599e-05
-8.79672e-05
-7.14501e-05
-4.95362e-06
6.29816e-05
0.000117584
0.000155812
0.00016524
0.000144893
0.000123509
0.000133447
0.000176227
0.000218331
0.000229206
0.000209707
0.000182071
0.000164852
0.000151736
0.000124656
8.08032e-05
3.98096e-05
3.44728e-05
8.42031e-05
0.000168041
0.000232848
0.00025094
0.000246047
0.000249992
0.000269719
0.000300441
0.000330136
0.000345699
0.000351445
0.000352495
0.000336109
0.000304336
0.000306138
0.000334382
0.000292972
0.000148333
-1.00103e-05
-8.19767e-05
-7.85398e-05
-1.69181e-05
5.20363e-05
0.000107045
0.000146195
0.000158996
0.000142339
0.000122073
0.000128965
0.00016635
0.000205634
0.000218978
0.000204913
0.0001809
0.00016477
0.000151692
0.000122906
7.70363e-05
3.41036e-05
2.4129e-05
6.85699e-05
0.000152077
0.000219589
0.000236295
0.000224659
0.000221425
0.000240986
0.000280864
0.00032238
0.000343358
0.00034755
0.000346945
0.000331649
0.000299211
0.000298596
0.000340276
0.000323585
0.000186373
1.42755e-05
-6.91582e-05
-8.37121e-05
-3.03864e-05
3.94069e-05
9.77162e-05
0.000139338
0.000154894
0.000140519
0.00012085
0.000124958
0.000157254
0.000192213
0.000203861
0.000192132
0.000173319
0.000161942
0.000150844
0.000120159
7.26315e-05
3.30592e-05
2.66495e-05
7.05645e-05
0.000152008
0.000218663
0.000230975
0.000210519
0.000197005
0.000211294
0.000255563
0.000309665
0.000339656
0.000346411
0.000346821
0.000336491
0.000307126
0.000301735
0.000347632
0.000352696
0.000230888
4.95449e-05
-4.34679e-05
-8.09593e-05
-4.23594e-05
2.33793e-05
8.73466e-05
0.000134546
0.000153545
0.000140006
0.000118535
0.000119483
0.000149174
0.000181346
0.000189283
0.000175003
0.000157692
0.000151522
0.000145937
0.000117302
6.96259e-05
3.50199e-05
3.86585e-05
8.78306e-05
0.000167409
0.000231618
0.000239754
0.000210163
0.000185583
0.000187437
0.000227018
0.000288213
0.000328847
0.000343115
0.00034746
0.000344197
0.000322567
0.00031593
0.000359014
0.000378707
0.000276648
9.54008e-05
-3.70122e-06
-6.40047e-05
-4.56934e-05
1.14892e-05
7.61341e-05
0.000128465
0.000151238
0.00013905
0.000115551
0.000114049
0.000144142
0.000177209
0.000182225
0.000161792
0.000141081
0.000137359
0.000137833
0.000115166
7.06513e-05
3.97418e-05
5.21421e-05
0.000105716
0.000181475
0.000245643
0.000257256
0.000223891
0.000190637
0.000179042
0.000203802
0.000258546
0.000306188
0.000331734
0.000345893
0.000350435
0.000336678
0.000329203
0.000365978
0.000394049
0.000314886
0.000145688
4.57629e-05
-2.95753e-05
-3.22468e-05
9.75445e-06
6.8457e-05
0.000121112
0.000147446
0.000138032
0.000115192
0.000112497
0.000144425
0.000180639
0.000185636
0.000161308
0.000135843
0.000130881
0.000134561
0.000116259
7.85615e-05
5.48277e-05
6.96516e-05
0.000115546
0.000181156
0.000246122
0.00027129
0.000245217
0.000206833
0.000184409
0.000192325
0.000230314
0.000274841
0.000307462
0.000332671
0.00034858
0.000343773
0.00033344
0.000357439
0.000387994
0.000334974
0.000190831
0.000100504
2.01538e-05
-1.06584e-06
2.18782e-05
6.82982e-05
0.000114817
0.000141465
0.000136887
0.000117702
0.000116122
0.000148036
0.000186695
0.000196487
0.000178199
0.000155108
0.000142524
0.000133261
0.000109973
7.93796e-05
6.63116e-05
8.58735e-05
0.000123296
0.000175775
0.000241575
0.000281114
0.000267712
0.000225818
0.000193218
0.000187478
0.000208505
0.000246445
0.000282605
0.000312598
0.00033556
0.000340124
0.000330209
0.00033793
0.000360185
0.00033284
0.000226301
0.000155524
8.28441e-05
4.80924e-05
4.94355e-05
7.60204e-05
0.000109727
0.000130146
0.000129198
0.000118623
0.000122071
0.000153308
0.000192204
0.000207549
0.000195541
0.000173915
0.000155064
0.000133784
9.82304e-05
6.645e-05
6.84052e-05
0.000101773
0.000138934
0.000178306
0.000236969
0.000286519
0.000288494
0.000245612
0.000199345
0.000180633
0.000194942
0.000227423
0.000263558
0.000296499
0.000326237
0.000340207
0.000329617
0.00032032
0.000327173
0.000313985
0.00024874
0.000196487
0.000140291
0.000109096
0.00010006
0.000103633
0.000109397
0.0001142
0.000112256
0.000110732
0.000121332
0.000154303
0.000196119
0.000216971
0.000209746
0.000188588
0.000166701
0.00014189
0.000107339
7.28534e-05
7.60676e-05
0.000119194
0.000162213
0.000191711
0.000234111
0.000281604
0.000292449
0.000254797
0.000205809
0.000180173
0.000185345
0.000214886
0.000254077
0.00028834
0.000318162
0.000337354
0.00032872
0.000306085
0.000300581
0.000298096
0.000261167
0.000224297
0.000185442
0.000160425
0.00014939
0.000139955
0.000124321
0.000108397
9.70531e-05
9.45562e-05
0.000110135
0.000149974
0.000196797
0.00022472
0.00022368
0.000202127
0.00017493
0.00014865
0.000121247
9.20829e-05
8.86749e-05
0.000128401
0.000177421
0.00020894
0.00024072
0.000277275
0.000287727
0.00025609
0.000207745
0.000179377
0.000181599
0.000207498
0.000245958
0.000284111
0.000314908
0.000329502
0.000315605
0.000284227
0.000268492
0.000270452
0.000258867
0.000225616
0.000203499
0.000192999
0.000193304
0.00018055
0.000147317
0.000110128
8.68374e-05
7.88896e-05
8.7487e-05
0.000119089
0.000166863
0.00021387
0.0002358
0.000223526
0.000189813
0.000160459
0.000141147
0.0001191
0.000107474
0.000130133
0.000174309
0.000213698
0.00024939
0.000280522
0.000281472
0.000248051
0.000204837
0.000179866
0.000180632
0.000200613
0.000233377
0.00027114
0.000302832
0.000314803
0.000298527
0.000261139
0.000231597
0.000229381
0.000236597
0.000209715
0.000204589
0.000197627
0.00019236
0.000184308
0.000162981
0.000129168
9.69249e-05
7.71436e-05
7.18378e-05
8.63334e-05
0.000120204
0.000162752
0.000198159
0.000212075
0.000200141
0.000180812
0.00016728
0.000150234
0.000126425
0.000122909
0.000149569
0.000193919
0.000240805
0.000276217
0.000273943
0.000236113
0.000194786
0.000176122
0.000180578
0.000198489
0.000224803
0.000255161
0.000281552
0.000290233
0.000275871
0.000244546
0.000212091
0.000199076
0.000205424
0.000186085
0.000191701
0.000195557
0.000198864
0.000192564
0.00016737
0.000132288
0.000103751
8.40792e-05
6.87209e-05
6.55659e-05
8.05966e-05
0.000109492
0.000143504
0.000171192
0.000184095
0.000184489
0.000179245
0.000165481
0.000143137
0.000131238
0.000148387
0.000189738
0.000235364
0.000266651
0.000260797
0.000218556
0.000173323
0.000153143
0.000160559
0.000189017
0.000223133
0.000251349
0.000268688
0.000272953
0.000265842
0.000246835
0.000215704
0.000188006
0.000179716
0.000185209
0.000185659
0.000192294
0.000196798
0.000190517
0.000168084
0.000138556
0.000115834
0.000102278
9.24131e-05
8.34289e-05
8.06444e-05
8.60966e-05
0.000100044
0.000121626
0.000145949
0.000165
0.000174207
0.000171318
0.000160388
0.000154889
0.000166536
0.000194698
0.00023047
0.000258142
0.00025667
0.000218728
0.000167347
0.000133583
0.000133981
0.000166858
0.000211545
0.000248311
0.00026619
0.000263949
0.000252278
0.000245319
0.000238318
0.000218419
0.000195861
0.000187084
0.000178792
0.000176564
0.000175092
0.000169798
0.00015773
0.000143437
0.000131016
0.000121671
0.000118308
0.000121101
0.000125769
0.000126387
0.000124866
0.000126265
0.000136588
0.000152834
0.000165992
0.000167212
0.000160732
0.000158828
0.000170353
0.000193087
0.000220358
0.000242078
0.000243585
0.000215955
0.000170044
0.000132627
0.000125602
0.000151329
0.000193156
0.000231777
0.000252994
0.000253507
0.000244428
0.00024035
0.000237318
0.000225478
0.000204428
0.000169896
0.000149665
0.000142284
0.000142144
0.000144424
0.000147285
0.000150045
0.000150188
0.00014401
0.000134529
0.000129104
0.000129483
0.000136349
0.000144846
0.000154235
0.000163579
0.000172596
0.000179621
0.000180894
0.000176156
0.000170515
0.000171139
0.000181592
0.000199696
0.000218467
0.00022655
0.000212265
0.000176488
0.000141016
0.000129646
0.000145995
0.000176414
0.000208604
0.00023145
0.000237886
0.000234691
0.000234524
0.000236295
0.000226452
0.000200106
0.000149299
0.000113374
9.6645e-05
0.000100279
0.000116775
0.000135712
0.000151006
0.000157936
0.00015429
0.000144849
0.000140132
0.00014483
0.000151943
0.000157371
0.000164847
0.000180147
0.000200208
0.000214625
0.000216432
0.000204369
0.00018287
0.000165778
0.000163108
0.000172733
0.000189775
0.000205896
0.000208079
0.000188571
0.000163313
0.000152406
0.000159657
0.000176306
0.000194401
0.00021122
0.000223463
0.000231581
0.000238333
0.000239888
0.000225318
0.000191885
5.83418e-05
3.29995e-05
3.95105e-05
6.79941e-05
0.000110062
0.000151413
0.000169257
0.000154978
0.000130917
0.00012997
0.000154882
0.000178354
0.000180356
0.00016758
0.000157472
0.00015303
0.00014424
0.000125484
0.000104915
9.69392e-05
0.000114193
0.000162738
0.00022992
0.000285858
0.000312324
0.000316564
0.000312271
0.000314732
0.000333415
0.000362697
0.000395649
0.000425792
0.000432992
0.000408292
0.000370843
0.000339552
0.000306658
0.000254864
0.000186338
0.000115111
5.94656e-05
3.34801e-05
3.95642e-05
6.77346e-05
0.000109571
0.00015096
0.000169129
0.000155188
0.000131226
0.000130223
0.000155153
0.000178679
0.000180589
0.000167552
0.000157244
0.000152828
0.00014403
0.000125077
0.000104138
9.58136e-05
0.000112745
0.000160948
0.000227903
0.000283597
0.000309773
0.000313762
0.00030909
0.000310848
0.000328826
0.000357826
0.000391176
0.000422817
0.000432036
0.000408633
0.000371817
0.000341229
0.000309161
0.000257685
0.000188938
0.000117102
5.90169e-05
3.23596e-05
3.8182e-05
6.63265e-05
0.000108189
0.000150019
0.000168922
0.00015536
0.000131073
0.000129597
0.000154546
0.00017828
0.000180102
0.000166825
0.000156601
0.000152614
0.000144082
0.000124894
0.00010341
9.46264e-05
0.000111142
0.000159004
0.000226028
0.000281912
0.000307976
0.00031188
0.000306842
0.000307437
0.000323764
0.000351356
0.000384674
0.00041902
0.000432027
0.000410715
0.000374399
0.000344302
0.00031264
0.000260825
0.000191067
0.000117896
5.62185e-05
2.87597e-05
3.45231e-05
6.28612e-05
0.000105037
0.00014783
0.000167938
0.00015477
0.000129692
0.000127254
0.000152202
0.0001764
0.000178261
0.000164843
0.000155143
0.000152301
0.000144534
0.000125084
0.000102879
9.36595e-05
0.000110044
0.000157964
0.000225561
0.000282004
0.000307848
0.000311551
0.000306207
0.000305604
0.000319842
0.000344858
0.00037684
0.000414194
0.000432789
0.000414754
0.000379138
0.000349356
0.000317532
0.000264301
0.000192271
0.000116877
5.13978e-05
2.28046e-05
2.85608e-05
5.70379e-05
9.95348e-05
0.000143646
0.000165449
0.000152877
0.000126723
0.000122736
0.000147305
0.000172007
0.00017412
0.000160763
0.000152078
0.000151258
0.000145018
0.000125508
0.000102207
9.24619e-05
0.000109197
0.000157919
0.000226923
0.000284361
0.00030982
0.000312715
0.000306871
0.000305644
0.000318675
0.000340825
0.000369234
0.000407928
0.000433045
0.000420017
0.000386175
0.000356941
0.000324466
0.000268577
0.000192826
0.000114248
4.51155e-05
1.49454e-05
2.04538e-05
4.87579e-05
9.13208e-05
0.000136955
0.000160951
0.000149543
0.000122589
0.000116572
0.000139733
0.000164197
0.000166552
0.000153598
0.000146531
0.000148739
0.000145081
0.000125888
0.00010119
9.02813e-05
0.000106667
0.000155779
0.000226929
0.000287085
0.000313359
0.000315259
0.000307937
0.000306329
0.000320511
0.000341795
0.000365022
0.000401277
0.00043158
0.000425059
0.000395193
0.000367799
0.000334448
0.000274589
0.000193414
0.000110565
3.8029e-05
6.02193e-06
1.07094e-05
3.80311e-05
7.95495e-05
0.000126539
0.000153571
0.000144661
0.00011832
0.000110775
0.000131415
0.000153679
0.000155219
0.000142685
0.00013806
0.000144461
0.000144696
0.000126526
0.000100217
8.69409e-05
0.000100641
0.000147275
0.000219072
0.000282824
0.000312938
0.000316654
0.000308039
0.00030454
0.000321557
0.000347161
0.000366707
0.00039667
0.000428043
0.000427756
0.000404644
0.000382732
0.000349794
0.000284327
0.000195422
0.00010683
3.15635e-05
-2.58841e-06
5.80339e-07
2.63866e-05
6.51243e-05
0.00011135
0.000141558
0.000136447
0.000112894
0.000106327
0.000124611
0.000143613
0.000142525
0.000129721
0.000127283
0.000139166
0.000144429
0.000127894
9.9752e-05
8.25954e-05
9.02831e-05
0.000130561
0.000201184
0.000268626
0.000303105
0.000310994
0.000304185
0.000298519
0.000315272
0.000346214
0.000369364
0.000394844
0.000423277
0.000426466
0.000411022
0.000400783
0.000372716
0.000301102
0.000201454
0.000104795
2.75105e-05
-9.24258e-06
-7.19625e-06
1.66213e-05
5.16952e-05
9.52291e-05
0.00012618
0.000123929
0.000103229
9.75585e-05
0.000113832
0.000129438
0.000127775
0.000117421
0.000117748
0.000134131
0.00014466
0.000129825
9.95542e-05
7.73565e-05
7.57894e-05
0.00010558
0.000173376
0.000246296
0.000286054
0.000297133
0.000293589
0.000288537
0.000303616
0.000333575
0.000357565
0.000385198
0.000415472
0.00042083
0.000411684
0.000417432
0.000403094
0.000328193
0.000215355
0.00010694
2.82749e-05
-1.2663e-05
-1.08733e-05
1.13838e-05
4.30943e-05
8.26481e-05
0.000111981
0.00011037
8.98722e-05
8.36924e-05
9.74103e-05
0.00010825
0.000104431
9.78255e-05
0.000104816
0.000128579
0.000144449
0.00013123
9.91407e-05
7.29985e-05
6.19333e-05
7.77359e-05
0.000138885
0.000217725
0.000265736
0.000279444
0.000276898
0.000273192
0.00028781
0.000317275
0.000335934
0.000359276
0.000396187
0.000409491
0.000406152
0.000426292
0.000434883
0.000366553
0.000241173
0.000117653
3.87385e-05
-1.19119e-05
-1.3246e-05
1.02079e-05
4.30533e-05
8.02443e-05
0.000105632
0.000100213
7.69678e-05
6.8799e-05
7.96363e-05
8.71695e-05
8.23721e-05
7.67521e-05
8.72696e-05
0.000117813
0.000141758
0.00013135
9.83451e-05
7.19233e-05
5.72284e-05
6.09496e-05
0.000109749
0.000189585
0.000247368
0.000265941
0.000261364
0.000255126
0.000269412
0.000300607
0.000317371
0.000328764
0.000362268
0.000389994
0.000396078
0.000426227
0.000457667
0.000408957
0.000279745