/*--------------------------------*- C++ -*----------------------------------*\
| =========                 |                                                 |
| \\      /  F ield         | OpenFOAM: The Open Source CFD Toolbox           |
|  \\    /   O peration     | Version:  2306                                  |
|   \\  /    A nd           | Website:  www.openfoam.com                      |
|    \\/     M anipulation  |                                                 |
\*---------------------------------------------------------------------------*/
FoamFile
{
    version     2.0;
    format      ascii;
    arch        "LSB;label=32;scalar=64";
    class       volVectorField;
    location    "2";
    object      U;
}
// * * * * * * * * * * * * * * * * * * * * * * * * * * * * * * * * * * * * * //

dimensions      [0 1 -1 0 0 0 0];

internalField   nonuniform List<vector> 
60000
(
(0.0103544 3.44255e-05 0.00269284)
(0.0102527 4.75078e-06 0.00259388)
(0.0100836 -1.50938e-05 0.00223759)
(0.00992982 -1.66508e-05 0.00190845)
(0.0097959 -9.75552e-06 0.00170295)
(0.00961711 -6.62909e-06 0.00151155)
(0.00931987 -9.00462e-06 0.0012698)
(0.00879888 -1.13111e-05 0.00104821)
(0.00796336 -1.09358e-05 0.000964031)
(0.00693761 -1.1621e-05 0.00101177)
(0.00608863 -1.40575e-05 0.00110536)
(0.00570112 -1.85685e-05 0.00118286)
(0.00571264 -2.38683e-05 0.00117413)
(0.00587959 -2.64966e-05 0.000968597)
(0.00601535 -2.05844e-05 0.000638947)
(0.00609451 -7.76499e-06 0.000326175)
(0.00623424 4.11438e-06 8.69556e-05)
(0.00650293 1.47201e-05 -0.000103715)
(0.00683608 2.10522e-05 -0.000296139)
(0.0071754 2.35179e-05 -0.000565376)
(0.00753501 1.90538e-05 -0.000946887)
(0.00797652 8.82001e-06 -0.00142486)
(0.00852851 -9.41041e-07 -0.00193153)
(0.00907354 -2.80129e-06 -0.00233791)
(0.00940138 -5.7648e-06 -0.00251582)
(0.00933203 -6.51857e-06 -0.00249511)
(0.00880085 -6.48656e-07 -0.00240479)
(0.00795011 9.8651e-06 -0.00225439)
(0.00710315 1.56011e-06 -0.00207767)
(0.00651332 -9.68603e-06 -0.00202983)
(0.00621342 -5.26091e-06 -0.00207075)
(0.00616891 3.56822e-06 -0.00198122)
(0.00637582 9.13486e-06 -0.00156005)
(0.00680264 2.2169e-05 -0.000823402)
(0.00735701 3.85946e-05 -6.17117e-05)
(0.00797381 4.96062e-05 0.000444697)
(0.0086436 5.05474e-05 0.000749353)
(0.00934846 5.24333e-05 0.00113942)
(0.00993779 6.24876e-05 0.00173619)
(0.0102718 5.91785e-05 0.00236303)
(0.0318029 0.000112967 0.00699225)
(0.0317126 -4.97749e-05 0.00654764)
(0.031135 -0.000143491 0.0055429)
(0.0304968 -0.000144481 0.00477695)
(0.0300068 -9.65827e-05 0.0044427)
(0.0294598 -5.41482e-05 0.00413444)
(0.0285304 -2.71898e-05 0.00357664)
(0.0269379 -7.93367e-06 0.00294613)
(0.0245657 -1.3156e-05 0.00263112)
(0.0217611 -7.2474e-05 0.00274577)
(0.019334 -0.000170306 0.00307021)
(0.0179873 -0.000249064 0.00326162)
(0.0176402 -0.000273311 0.00306394)
(0.0177237 -0.000237943 0.00240936)
(0.0178597 -0.000153709 0.00158799)
(0.0180352 -5.7947e-05 0.000872209)
(0.0184767 1.09484e-05 0.000315078)
(0.0192866 5.37106e-05 -0.000174625)
(0.0203244 7.32373e-05 -0.000729398)
(0.0214848 5.99286e-05 -0.0015043)
(0.0228229 4.97601e-06 -0.00257403)
(0.0244217 -6.91663e-05 -0.00389651)
(0.0262043 -0.000110721 -0.00527236)
(0.0278356 -9.09896e-05 -0.0063447)
(0.0288016 -5.73489e-05 -0.0067704)
(0.0286179 -1.91837e-05 -0.00659503)
(0.0271569 2.42098e-05 -0.0061413)
(0.0248783 2.91087e-05 -0.00560169)
(0.0225209 -5.44231e-05 -0.00523548)
(0.0205452 -0.000132285 -0.00531918)
(0.0191708 -0.000123473 -0.00556493)
(0.0186403 -6.69918e-05 -0.00528154)
(0.0190759 4.64925e-06 -0.00401746)
(0.0202843 0.000108217 -0.00203162)
(0.0219247 0.000230795 -0.000101464)
(0.0238011 0.000308263 0.00124465)
(0.0258312 0.000313568 0.00221011)
(0.0279257 0.000306685 0.00336262)
(0.0297918 0.000315719 0.00489798)
(0.0311396 0.000259946 0.00635538)
(0.0543585 0.000105319 0.0103949)
(0.0544827 -0.00023496 0.00982619)
(0.0534075 -0.00040561 0.00822113)
(0.052084 -0.00038633 0.00692152)
(0.0511403 -0.00027246 0.00648921)
(0.0502815 -0.000169964 0.00631599)
(0.0488823 -9.41161e-05 0.00572291)
(0.0465191 -4.24676e-05 0.00474733)
(0.0430708 -5.77438e-05 0.00401607)
(0.0388312 -0.000198767 0.00399977)
(0.0346297 -0.000435454 0.00456896)
(0.0316676 -0.000626876 0.00501283)
(0.0303299 -0.000680154 0.00471842)
(0.0299159 -0.000583338 0.00371181)
(0.0298135 -0.000375868 0.00254506)
(0.0299538 -0.00014866 0.0015879)
(0.0306115 9.96936e-06 0.000854912)
(0.0319055 8.81875e-05 0.000196121)
(0.0336423 0.00010928 -0.000575441)
(0.0356766 4.28896e-05 -0.00166755)
(0.0381097 -0.000123049 -0.00321971)
(0.0410254 -0.000315164 -0.0052401)
(0.0442087 -0.000406625 -0.00748315)
(0.0471263 -0.000348008 -0.00937707)
(0.0490267 -0.000244558 -0.0102757)
(0.0491552 -0.000131957 -0.0100671)
(0.0472553 -2.43555e-05 -0.00918498)
(0.0439337 -2.79407e-05 -0.00810267)
(0.0401891 -0.000197574 -0.00740624)
(0.0366179 -0.000344697 -0.00760335)
(0.0336038 -0.000322211 -0.00831842)
(0.0317862 -0.000199912 -0.00834643)
(0.0317635 -3.16591e-05 -0.00674215)
(0.0334041 0.000206336 -0.0038484)
(0.0360447 0.000491873 -0.000898547)
(0.0392382 0.000678441 0.00128806)
(0.0427528 0.000693947 0.00294865)
(0.046421 0.000671496 0.00479545)
(0.0498737 0.000637609 0.00711277)
(0.0526831 0.000454281 0.00931874)
(0.0771966 -4.30743e-05 0.0126583)
(0.0778786 -0.000550997 0.012605)
(0.0762827 -0.000775566 0.0106791)
(0.0740511 -0.000717894 0.00856711)
(0.0725278 -0.000524425 0.00771765)
(0.071472 -0.000346268 0.00778549)
(0.0699221 -0.000198026 0.0075851)
(0.0672983 -8.78565e-05 0.00655091)
(0.0634944 -9.32561e-05 0.00526289)
(0.0585083 -0.000299583 0.00473631)
(0.0526274 -0.000691865 0.00539017)
(0.0472759 -0.00106351 0.00634886)
(0.0439282 -0.00120452 0.00627742)
(0.0423462 -0.00106382 0.0050458)
(0.0416408 -0.000716312 0.00359744)
(0.0415021 -0.000328552 0.00252409)
(0.0421652 -5.67121e-05 0.00180616)
(0.0437473 6.1426e-05 0.00121884)
(0.0460153 5.66535e-05 0.000525883)
(0.0487772 -9.93824e-05 -0.000517955)
(0.0522045 -0.000454414 -0.0021487)
(0.0564464 -0.000847705 -0.00454941)
(0.0612023 -0.00102216 -0.00762684)
(0.0657421 -0.000896737 -0.010686)
(0.0691004 -0.000665527 -0.0126452)
(0.0702788 -0.000400054 -0.0129439)
(0.0687798 -0.000167537 -0.0118975)
(0.0650915 -0.000150915 -0.0102017)
(0.060321 -0.000401641 -0.00883323)
(0.055245 -0.000614306 -0.00877254)
(0.0503184 -0.000581832 -0.00995683)
(0.0463061 -0.000422863 -0.0109374)
(0.0444953 -0.000200204 -0.00998112)
(0.0455614 0.000160981 -0.00691512)
(0.0487758 0.000631567 -0.00324998)
(0.0532319 0.000963909 -0.000286787)
(0.0583643 0.00100846 0.00206133)
(0.0638367 0.000971648 0.00455339)
(0.0692262 0.000891344 0.00760003)
(0.0739756 0.000540634 0.0106782)
(0.0986208 -0.000380426 0.0128189)
(0.100532 -0.000996225 0.0143458)
(0.098586 -0.0012101 0.0130868)
(0.0952067 -0.00108465 0.0102188)
(0.092925 -0.000806753 0.00831992)
(0.0918213 -0.000556221 0.00828002)
(0.0905533 -0.000330057 0.00883351)
(0.0882435 -0.000146408 0.00837156)
(0.084868 -0.000113822 0.00669768)
(0.0801616 -0.000311957 0.00521894)
(0.0734687 -0.000782962 0.00544666)
(0.0656001 -0.00136784 0.00702655)
(0.0590701 -0.0017203 0.00772617)
(0.0551829 -0.00163258 0.00650706)
(0.0532342 -0.00118345 0.00470788)
(0.0524261 -0.000637687 0.00350879)
(0.0527305 -0.000242711 0.00297198)
(0.054195 -7.86165e-05 0.00275631)
(0.0565207 -0.000124009 0.00254978)
(0.0594408 -0.000424618 0.00208767)
(0.0632164 -0.00109023 0.00106665)
(0.0682964 -0.00187172 -0.000972216)
(0.0746072 -0.00225608 -0.00442534)
(0.0812887 -0.00199816 -0.00887049)
(0.0869698 -0.00146432 -0.012793)
(0.0902962 -0.000910037 -0.0147097)
(0.0904163 -0.00043883 -0.0143481)
(0.0873848 -0.000332794 -0.0123829)
(0.0822519 -0.000642428 -0.0101447)
(0.0761405 -0.000899224 -0.00924733)
(0.0697018 -0.000833013 -0.0103393)
(0.0634305 -0.000652836 -0.0122919)
(0.0586094 -0.000479602 -0.0129103)
(0.0571273 -0.000137035 -0.0109778)
(0.0593873 0.000421845 -0.00754565)
(0.0643638 0.000849654 -0.00431433)
(0.0709517 0.000904903 -0.00151333)
(0.0784125 0.000864327 0.00155099)
(0.0860169 0.000858937 0.00530442)
(0.0931584 0.000399062 0.0093812)
(0.115376 -0.00113126 0.00894712)
(0.120027 -0.00162732 0.0132794)
(0.118538 -0.00167456 0.014617)
(0.113791 -0.00143843 0.0122924)
(0.11043 -0.00107517 0.00902056)
(0.109455 -0.000755456 0.00791312)
(0.109039 -0.000477185 0.00898684)
(0.107586 -0.000224613 0.00987279)
(0.105185 -0.00013276 0.00858869)
(0.101815 -0.000254145 0.00599983)
(0.0959671 -0.000630882 0.00497881)
(0.0869543 -0.00131906 0.0067304)
(0.0769653 -0.00198519 0.00871274)
(0.0692556 -0.00214939 0.00810561)
(0.0648486 -0.00172365 0.00592145)
(0.0627531 -0.00105682 0.00434473)
(0.0622699 -0.000540945 0.00390085)
(0.0631102 -0.000322149 0.0041594)
(0.0647963 -0.000403386 0.00467553)
(0.0668462 -0.000929206 0.00519307)
(0.0694592 -0.00208527 0.0054626)
(0.0736093 -0.0035328 0.00488357)
(0.0801087 -0.00445907 0.00252157)
(0.0887811 -0.00435134 -0.00219047)
(0.0982966 -0.00334348 -0.00842537)
(0.105924 -0.00201436 -0.0136137)
(0.10957 -0.000935768 -0.0156286)
(0.108703 -0.000587174 -0.0145403)
(0.10415 -0.000921786 -0.0118814)
(0.0976856 -0.00119419 -0.00984769)
(0.0906433 -0.00103483 -0.0100152)
(0.0833057 -0.000770447 -0.0120712)
(0.0760455 -0.000665392 -0.0140888)
(0.0707307 -0.000494251 -0.0143183)
(0.0694022 -0.000111416 -0.0127364)
(0.0724819 0.000145083 -0.0105815)
(0.0789294 3.16174e-05 -0.00821678)
(0.0874881 -0.000117088 -0.00510315)
(0.0969192 -7.79403e-05 -0.00103014)
(0.106592 -0.000401287 0.00376564)
(0.121479 -0.0030385 -0.000238395)
(0.131672 -0.00295922 0.00704871)
(0.13344 -0.00224103 0.0128622)
(0.127609 -0.00167212 0.0139178)
(0.122321 -0.00135765 0.0106291)
(0.121616 -0.000993696 0.00755954)
(0.123016 -0.0006088 0.0078665)
(0.123125 -0.000324032 0.0102121)
(0.121761 -0.000229493 0.0106712)
(0.120187 -0.000208668 0.00764623)
(0.116944 -0.000331465 0.00466064)
(0.109649 -0.000857546 0.00549454)
(0.0983108 -0.00171177 0.00863338)
(0.0862744 -0.0023003 0.00949772)
(0.0775536 -0.00215622 0.00739909)
(0.0729589 -0.00149567 0.00521474)
(0.0712359 -0.000869672 0.00446589)
(0.0712499 -0.000560067 0.00484112)
(0.0721018 -0.000642811 0.00568701)
(0.0730103 -0.00143445 0.0067223)
(0.0737627 -0.00328918 0.00806192)
(0.0753703 -0.0056764 0.00945332)
(0.0795206 -0.0073122 0.00961287)
(0.0869819 -0.00757333 0.00709869)
(0.0979274 -0.00655423 0.00123544)
(0.111106 -0.0044984 -0.00685725)
(0.121659 -0.00220593 -0.0132287)
(0.12557 -0.00110821 -0.0151707)
(0.122932 -0.00135393 -0.0136406)
(0.116792 -0.00161755 -0.0111029)
(0.110083 -0.00116675 -0.00990722)
(0.103373 -0.000672777 -0.0109175)
(0.0960748 -0.000573318 -0.0130412)
(0.0886099 -0.000512459 -0.0148939)
(0.0829778 -0.000469713 -0.0161362)
(0.081417 -0.000783593 -0.0168814)
(0.0847325 -0.00146989 -0.0164415)
(0.0919021 -0.00198097 -0.0141396)
(0.100585 -0.00203246 -0.0104742)
(0.109975 -0.00231987 -0.00607363)
(0.118841 -0.00595038 -0.010188)
(0.132073 -0.00570537 -0.00229528)
(0.14039 -0.00345953 0.00677471)
(0.136397 -0.00160544 0.0125836)
(0.127681 -0.00132547 0.0122693)
(0.125233 -0.00146561 0.00826629)
(0.129545 -0.000996479 0.00628241)
(0.133235 -0.000380758 0.00850705)
(0.132318 -0.000353384 0.0114043)
(0.13082 -0.000565513 0.00988787)
(0.131059 -0.000343541 0.00523926)
(0.128973 -0.000243289 0.00393879)
(0.120953 -0.000884149 0.00725378)
(0.107431 -0.00173246 0.00994391)
(0.093574 -0.00209441 0.00892631)
(0.0843641 -0.00175886 0.00652617)
(0.0803247 -0.0011649 0.00526518)
(0.0795133 -0.000742909 0.00525697)
(0.080176 -0.000726789 0.0057592)
(0.0812546 -0.00162537 0.00644321)
(0.0819467 -0.00398899 0.00778412)
(0.0818481 -0.00732144 0.0103922)
(0.0823417 -0.00990757 0.0132986)
(0.0859268 -0.010637 0.0140619)
(0.0939572 -0.00979116 0.0109357)
(0.107184 -0.00762514 0.00352026)
(0.123219 -0.0044572 -0.00567587)
(0.134152 -0.0022171 -0.0118776)
(0.134553 -0.00196508 -0.0134921)
(0.127591 -0.00227244 -0.0121648)
(0.120899 -0.00178941 -0.010061)
(0.117235 -0.000856889 -0.00921172)
(0.113738 -0.000238115 -0.010186)
(0.108135 9.41845e-05 -0.0122329)
(0.101299 2.7357e-05 -0.0153555)
(0.0955282 -0.00107045 -0.019692)
(0.0934174 -0.00285769 -0.0230556)
(0.0966052 -0.00414193 -0.0228712)
(0.103078 -0.00430722 -0.0196867)
(0.109779 -0.00472346 -0.0155172)
(0.118509 -0.00856387 -0.016389)
(0.12863 -0.00923424 -0.00906543)
(0.14046 -0.00604043 0.000216697)
(0.142491 -0.00189501 0.00846471)
(0.133805 -0.000568518 0.0114209)
(0.125879 -0.00162959 0.00877038)
(0.128176 -0.00197992 0.00516037)
(0.136678 -0.000786607 0.00545316)
(0.13977 -3.26225e-05 0.00903177)
(0.135007 -0.000798969 0.0102885)
(0.132158 -0.00155109 0.00631361)
(0.136016 -0.00107378 0.00282481)
(0.137964 -0.000440573 0.00503507)
(0.129928 -0.000649869 0.00903333)
(0.114335 -0.00116684 0.00974889)
(0.0994968 -0.00138561 0.00805042)
(0.0909207 -0.00123775 0.00678458)
(0.088255 -0.000959023 0.0064487)
(0.0889898 -0.000877106 0.00635723)
(0.0911892 -0.00169164 0.00627809)
(0.093348 -0.00406823 0.00686716)
(0.0938138 -0.00770716 0.00923506)
(0.0923393 -0.0110797 0.0133014)
(0.0914278 -0.0126642 0.0169144)
(0.0945869 -0.01231 0.0170778)
(0.104084 -0.0104581 0.0119036)
(0.119982 -0.00720824 0.00250808)
(0.135069 -0.00385139 -0.00651565)
(0.137364 -0.00216005 -0.0112153)
(0.126519 -0.00179375 -0.0111458)
(0.114806 -0.00172651 -0.00834423)
(0.111631 -0.00149053 -0.00553413)
(0.116064 -0.000804674 -0.00471365)
(0.119999 0.000464648 -0.00631758)
(0.118525 0.00125261 -0.0102302)
(0.113351 1.64001e-05 -0.016831)
(0.107592 -0.00302452 -0.0241933)
(0.105108 -0.0056224 -0.0279759)
(0.107859 -0.00631041 -0.026493)
(0.112862 -0.0067189 -0.0220669)
(0.12159 -0.0100303 -0.0199608)
(0.127817 -0.0120821 -0.0126018)
(0.13807 -0.00964398 -0.00452668)
(0.145283 -0.0037051 0.00355807)
(0.142124 2.1456e-05 0.00834025)
(0.132439 -0.000650988 0.00774984)
(0.126993 -0.0026561 0.0041543)
(0.132689 -0.00222724 0.00257651)
(0.141981 -3.06384e-06 0.00522184)
(0.142453 0.000399229 0.00830524)
(0.134636 -0.00200538 0.00689542)
(0.132087 -0.00400828 0.00298027)
(0.14055 -0.00307482 0.00322522)
(0.145335 -0.000967511 0.00728562)
(0.13607 3.18849e-05 0.00947357)
(0.119298 -4.04813e-05 0.00888338)
(0.105404 -0.000518565 0.00828087)
(0.0985856 -0.000937102 0.0084479)
(0.0977813 -0.00130232 0.00837953)
(0.100828 -0.0021771 0.0075282)
(0.105133 -0.0042854 0.00660737)
(0.107296 -0.007545 0.00753837)
(0.105596 -0.0109057 0.0112957)
(0.101999 -0.0130765 0.0162449)
(0.100432 -0.0135343 0.0191914)
(0.104817 -0.0125074 0.0167615)
(0.116886 -0.00981128 0.00823766)
(0.131207 -0.00569484 -0.00225311)
(0.134971 -0.00192035 -0.00920249)
(0.123774 7.00031e-05 -0.0100472)
(0.10919 -0.000120784 -0.00615691)
(0.102626 -0.00150596 -0.000971256)
(0.106703 -0.00197391 0.00239184)
(0.117345 -0.000251136 0.00224457)
(0.125688 0.00197009 -0.00174846)
(0.127187 0.00186415 -0.00949786)
(0.123399 -0.00151002 -0.0193188)
(0.118077 -0.00541629 -0.0270173)
(0.115802 -0.00714194 -0.0291002)
(0.117664 -0.00779998 -0.0260298)
(0.125263 -0.0100146 -0.0229162)
(0.129518 -0.0133308 -0.0151801)
(0.136749 -0.0129377 -0.00752152)
(0.144861 -0.00721913 -0.000948091)
(0.147453 -0.00114984 0.00402173)
(0.141872 0.000372414 0.00547288)
(0.132775 -0.00178674 0.00331663)
(0.129453 -0.00328321 0.000932122)
(0.136205 -0.00154022 0.00190218)
(0.144776 0.000879923 0.00533639)
(0.144408 -0.000200915 0.0065134)
(0.136569 -0.00462182 0.00395813)
(0.136356 -0.0072014 0.00278002)
(0.146756 -0.00478122 0.00589223)
(0.149866 -0.000679573 0.00876191)
(0.138955 0.00141951 0.00883172)
(0.123595 0.00137947 0.00866309)
(0.112337 0.000233599 0.00976576)
(0.107477 -0.00142956 0.010637)
(0.1091 -0.00339415 0.00962387)
(0.115416 -0.00546474 0.00693681)
(0.120912 -0.00771549 0.00541213)
(0.12056 -0.01014 0.00781648)
(0.115356 -0.0121562 0.0131813)
(0.109905 -0.0130711 0.0181167)
(0.108778 -0.0129391 0.0185526)
(0.115156 -0.0112307 0.0120704)
(0.126092 -0.00710449 0.0015093)
(0.130859 -0.00170632 -0.00693929)
(0.123544 0.00210905 -0.00943084)
(0.111321 0.0023604 -0.00607667)
(0.103332 -0.000225669 0.000313345)
(0.10322 -0.00241441 0.00600184)
(0.111179 -0.00149322 0.00839781)
(0.122986 0.00155708 0.00639284)
(0.131925 0.00318929 -0.000438354)
(0.134652 0.00088145 -0.0109428)
(0.131881 -0.0035193 -0.0212406)
(0.127355 -0.00628487 -0.027158)
(0.124492 -0.00748861 -0.0275393)
(0.130585 -0.00883381 -0.0246853)
(0.132876 -0.0129183 -0.0182125)
(0.138459 -0.0146068 -0.0102083)
(0.14441 -0.0109672 -0.00421838)
(0.14823 -0.00439208 -4.21575e-05)
(0.147007 -0.000281682 0.00263743)
(0.140306 -0.000464447 0.00257161)
(0.132526 -0.0025319 0.000611213)
(0.13166 -0.00281683 0.000250319)
(0.139599 -0.000886454 0.00289186)
(0.147316 -0.000161071 0.00536889)
(0.145563 -0.00343705 0.00448991)
(0.138927 -0.00827922 0.00270133)
(0.141643 -0.00887259 0.00450436)
(0.150582 -0.00408863 0.00773147)
(0.15048 0.00100713 0.00833702)
(0.140079 0.00317338 0.00805511)
(0.127853 0.00270199 0.00958591)
(0.119146 0.000145283 0.0111625)
(0.11658 -0.00401417 0.00974493)
(0.122023 -0.00756711 0.00548306)
(0.131547 -0.00886645 0.00193461)
(0.135583 -0.00940649 0.0029452)
(0.130868 -0.0104767 0.00831032)
(0.122336 -0.011361 0.0146391)
(0.115891 -0.0114907 0.0178289)
(0.115848 -0.0106988 0.0144518)
(0.122123 -0.0075268 0.00541965)
(0.127217 -0.00171718 -0.0039144)
(0.124522 0.00341705 -0.00869752)
(0.117104 0.00443774 -0.00778616)
(0.110956 0.00158476 -0.00287781)
(0.10847 -0.00156943 0.00333852)
(0.111196 -0.00187755 0.00807883)
(0.11912 0.000679509 0.00934597)
(0.129487 0.00315151 0.00592127)
(0.138702 0.00259243 -0.00245836)
(0.142273 -0.00087361 -0.0133537)
(0.139428 -0.0040207 -0.021955)
(0.133965 -0.00590689 -0.0259085)
(0.137986 -0.00711414 -0.0241245)
(0.13829 -0.0118582 -0.0203054)
(0.142902 -0.0146854 -0.0132334)
(0.146384 -0.0133481 -0.00723925)
(0.147252 -0.00819063 -0.00316456)
(0.146456 -0.00262526 0.000271787)
(0.143413 -2.17095e-05 0.00215963)
(0.13767 -0.000780196 0.00134254)
(0.133499 -0.00255015 0.00014409)
(0.136762 -0.0028422 0.00159648)
(0.14503 -0.00223499 0.00451541)
(0.148624 -0.00363972 0.00493381)
(0.144084 -0.00774203 0.00269523)
(0.140161 -0.0105466 0.00244128)
(0.144453 -0.00783624 0.0052465)
(0.149211 -0.00163683 0.00720777)
(0.145559 0.00318743 0.00779716)
(0.136097 0.00487174 0.00924011)
(0.127562 0.00315083 0.00979367)
(0.122872 -0.00200947 0.0063179)
(0.124136 -0.00827118 0.000333987)
(0.134096 -0.0107917 -0.00389887)
(0.14499 -0.00949373 -0.0029745)
(0.145127 -0.00848549 0.00286519)
(0.135581 -0.00893287 0.0100998)
(0.124747 -0.00898192 0.0152656)
(0.119211 -0.00826629 0.015072)
(0.120754 -0.00597248 0.00884504)
(0.124922 -0.000974093 -4.28522e-05)
(0.125535 0.00432362 -0.00704121)
(0.122587 0.00585057 -0.00951006)
(0.119523 0.00314161 -0.00752269)
(0.11768 -0.000264076 -0.00290323)
(0.117575 -0.00119557 0.0020952)
(0.120248 0.000355457 0.00565222)
(0.126589 0.00191288 0.00621582)
(0.137268 0.0018368 0.00214483)
(0.1472 0.000487952 -0.00667407)
(0.148667 -0.00118927 -0.016176)
(0.143276 -0.00330591 -0.0224054)
(0.146187 -0.00511074 -0.0224228)
(0.145384 -0.0103908 -0.0206635)
(0.14873 -0.0134336 -0.0154373)
(0.150336 -0.0133562 -0.0106431)
(0.147603 -0.0102607 -0.00664648)
(0.144218 -0.00525415 -0.00194404)
(0.142276 -0.000867797 0.00204548)
(0.139866 0.000591089 0.00258157)
(0.137208 -0.00112708 0.000909943)
(0.138161 -0.00355506 0.00118784)
(0.144132 -0.00421502 0.00423297)
(0.149421 -0.00426248 0.00584059)
(0.147986 -0.00641492 0.00331078)
(0.141803 -0.00952356 0.000644723)
(0.138263 -0.00911696 0.00216856)
(0.137877 -0.00422483 0.00603324)
(0.135308 0.00128066 0.00917013)
(0.130932 0.00458795 0.0100623)
(0.128756 0.00488334 0.00705111)
(0.128214 0.00114615 0.000469102)
(0.127157 -0.0063616 -0.00566077)
(0.13161 -0.0122578 -0.00802637)
(0.144706 -0.0115434 -0.00611384)
(0.152871 -0.00793806 -0.000414337)
(0.146673 -0.00653086 0.00654852)
(0.133163 -0.00616134 0.0122193)
(0.123286 -0.00501804 0.014257)
(0.121485 -0.00288611 0.0109755)
(0.125267 0.000824666 0.00368079)
(0.128701 0.00490417 -0.00430967)
(0.12922 0.00608584 -0.00970172)
(0.128734 0.00366422 -0.0109961)
(0.128567 0.000779534 -0.0091015)
(0.128319 0.00017687 -0.00572508)
(0.128314 0.00113293 -0.00171262)
(0.130258 0.00073204 0.00181435)
(0.137052 -0.000981052 0.00196843)
(0.1478 -0.00100543 -0.00329501)
(0.153751 0.000238507 -0.0116413)
(0.151141 -0.00068738 -0.0188654)
(0.153787 -0.0028627 -0.019573)
(0.152485 -0.00809082 -0.0194896)
(0.154641 -0.0109153 -0.0161686)
(0.155934 -0.0115072 -0.0130187)
(0.151722 -0.0104224 -0.00992263)
(0.145318 -0.00697135 -0.00465583)
(0.141494 -0.00202939 0.00114443)
(0.139902 0.00141175 0.00355878)
(0.139231 0.000787326 0.00260994)
(0.140435 -0.00279261 0.00211432)
(0.144667 -0.00528582 0.00437044)
(0.149526 -0.00513784 0.00648954)
(0.1497 -0.00503767 0.00443563)
(0.143099 -0.00649887 0.000187094)
(0.133897 -0.0070901 -0.000547445)
(0.12713 -0.0046175 0.00298541)
(0.123722 -0.000576484 0.00638126)
(0.124246 0.00268457 0.00597113)
(0.128603 0.00439721 0.00115983)
(0.132909 0.00315 -0.00516097)
(0.13359 -0.00290668 -0.00872462)
(0.134349 -0.0113516 -0.00763911)
(0.142735 -0.0144532 -0.00364458)
(0.153393 -0.0104965 0.00148007)
(0.152162 -0.00592969 0.00672156)
(0.13945 -0.00379852 0.0110376)
(0.127283 -0.00219504 0.0130434)
(0.123174 4.81316e-05 0.0111246)
(0.126017 0.00280202 0.00538056)
(0.130075 0.00511701 -0.00164452)
(0.131278 0.00513159 -0.00664567)
(0.131073 0.00265969 -0.0085851)
(0.132335 0.000172009 -0.00889405)
(0.134794 7.21402e-05 -0.00802435)
(0.136652 0.00130275 -0.00476219)
(0.137411 0.000394258 8.161e-05)
(0.139048 -0.00250936 0.00213011)
(0.144823 -0.00283342 -0.00147374)
(0.152294 0.000136338 -0.00854685)
(0.155387 0.00103566 -0.0153388)
(0.157714 -0.00139316 -0.0155246)
(0.158095 -0.00531092 -0.0168719)
(0.159566 -0.00777063 -0.0156692)
(0.161917 -0.00885318 -0.013975)
(0.158692 -0.0092387 -0.0122693)
(0.150166 -0.00732958 -0.00814135)
(0.143135 -0.00267089 -0.00162956)
(0.140352 0.00183971 0.00345242)
(0.140468 0.00252416 0.00499604)
(0.142142 -0.000901903 0.00451267)
(0.144926 -0.00452038 0.00472509)
(0.14811 -0.00519233 0.0060494)
(0.148831 -0.00433056 0.0056198)
(0.144374 -0.00418114 0.00212834)
(0.135964 -0.0039871 -0.00144211)
(0.128379 -0.00242466 -0.00202908)
(0.125159 -0.000332595 -0.000574499)
(0.126659 0.00111064 3.2903e-05)
(0.131664 0.00237288 -0.00218637)
(0.137028 0.00290484 -0.00629921)
(0.139922 -0.000162717 -0.00882391)
(0.141386 -0.0078432 -0.00728897)
(0.145533 -0.0145039 -0.00234848)
(0.152639 -0.0135219 0.00310182)
(0.153284 -0.00732465 0.00724119)
(0.143455 -0.00221225 0.0105902)
(0.131629 0.000545552 0.0127964)
(0.125723 0.00234718 0.0116701)
(0.125599 0.00414248 0.00696854)
(0.126501 0.00559057 0.00178064)
(0.125835 0.00516272 -0.00082645)
(0.125566 0.00232139 -0.00145703)
(0.128141 -0.000760824 -0.00266783)
(0.133157 -0.00110768 -0.0037054)
(0.137511 0.000568824 -0.00138922)
(0.138736 0.000642961 0.00332618)
(0.138009 -0.00145414 0.00488021)
(0.139289 -0.00241551 0.000585492)
(0.145213 -0.000498863 -0.00617135)
(0.153176 0.000833315 -0.0117992)
(0.156165 -0.000576503 -0.0110615)
(0.160478 -0.00270652 -0.0127728)
(0.163678 -0.00435889 -0.0132774)
(0.167153 -0.00581497 -0.013417)
(0.165303 -0.00705186 -0.0136013)
(0.15616 -0.00616882 -0.0113393)
(0.146372 -0.00226671 -0.00517838)
(0.14137 0.00222572 0.00165365)
(0.141028 0.00358679 0.00549375)
(0.142825 0.000824978 0.00615963)
(0.144794 -0.00294376 0.00566548)
(0.146113 -0.00448966 0.00573448)
(0.145567 -0.0039936 0.00566749)
(0.142017 -0.00312099 0.00361543)
(0.136732 -0.00206765 -9.75011e-05)
(0.132944 -0.000501649 -0.00306774)
(0.132424 0.000534233 -0.00345548)
(0.133918 0.00029295 -0.00183384)
(0.136498 0.00026357 -0.00116091)
(0.1396 0.0012523 -0.00331884)
(0.141615 0.000883304 -0.00570887)
(0.143012 -0.00377536 -0.00525955)
(0.145891 -0.0108574 -0.00198751)
(0.150845 -0.0132796 0.00254757)
(0.153014 -0.00835568 0.00660424)
(0.147493 -0.00135286 0.00958333)
(0.138064 0.00340124 0.0112924)
(0.130725 0.00558725 0.0109638)
(0.126434 0.00603752 0.00849556)
(0.123572 0.00557199 0.00550085)
(0.122141 0.00399316 0.00370984)
(0.123439 0.000740459 0.00309033)
(0.127427 -0.00288293 0.00201707)
(0.132631 -0.00408832 0.000487848)
(0.13678 -0.00196434 0.00102485)
(0.138055 0.000660223 0.00432085)
(0.137241 0.00116621 0.00640986)
(0.137086 0.000476855 0.00330505)
(0.140573 0.000591005 -0.00292373)
(0.148284 0.000758068 -0.00805402)
(0.153259 0.000186574 -0.00754423)
(0.159302 -0.0012781 -0.0097563)
(0.164503 -0.00194751 -0.0107789)
(0.169072 -0.00302965 -0.011454)
(0.168591 -0.0043333 -0.0128371)
(0.160853 -0.00374043 -0.0131614)
(0.151103 -0.000444637 -0.00931774)
(0.144761 0.00309188 -0.00227104)
(0.142338 0.00380026 0.00366529)
(0.142005 0.0014537 0.00612609)
(0.14232 -0.00139654 0.00615937)
(0.142565 -0.00246714 0.00596693)
(0.141839 -0.00213271 0.00577049)
(0.139869 -0.00160762 0.00406902)
(0.138177 -0.000898837 0.000810568)
(0.138671 -1.22343e-05 -0.00203451)
(0.140836 -0.000208784 -0.00265992)
(0.14159 -0.0018602 -0.000999801)
(0.140026 -0.0027187 0.00100699)
(0.138375 -0.000887144 0.00128729)
(0.138419 0.00110948 0.000817594)
(0.140924 -0.00126632 0.00150534)
(0.145142 -0.00785225 0.00356222)
(0.14926 -0.0120189 0.00584646)
(0.150718 -0.00849869 0.00701447)
(0.146716 -0.000437252 0.0079754)
(0.138864 0.0059474 0.00925347)
(0.131357 0.00805282 0.00954378)
(0.125932 0.0069212 0.00828495)
(0.122477 0.00522402 0.00700719)
(0.121456 0.00401328 0.00692095)
(0.123435 0.00222531 0.00710159)
(0.1276 -0.000687702 0.0060573)
(0.132343 -0.00299026 0.00430281)
(0.135828 -0.00211446 0.00400755)
(0.136978 0.00121914 0.00587546)
(0.136962 0.00358446 0.00743684)
(0.137692 0.00403448 0.00564972)
(0.140464 0.00350888 0.000878137)
(0.146107 0.00219979 -0.00403015)
(0.150333 -0.000580503 -0.00502205)
(0.156949 -0.00244829 -0.00800692)
(0.163244 -0.00194308 -0.00920461)
(0.167503 -0.000623277 -0.0097938)
(0.167392 -0.000435012 -0.0108927)
(0.163027 -0.000554104 -0.012141)
(0.157635 0.00111261 -0.0111447)
(0.153504 0.00376098 -0.00673972)
(0.150019 0.00436061 -0.00125288)
(0.146099 0.00217742 0.00243951)
(0.142154 -0.000627431 0.00391474)
(0.139565 -0.00206721 0.00462015)
(0.139088 -0.00210166 0.00531762)
(0.140692 -0.00147374 0.00517449)
(0.144437 -0.000499068 0.00348818)
(0.14948 0.000272831 0.00108373)
(0.152823 -0.000299728 -0.00033416)
(0.151117 -0.00201332 0.00100493)
(0.145293 -0.00265329 0.00496637)
(0.140239 -0.000527688 0.00795791)
(0.139224 0.00251346 0.006775)
(0.141735 0.00224248 0.00275883)
(0.145633 -0.00306008 0.000875606)
(0.148927 -0.00865336 0.00360705)
(0.149655 -0.00741673 0.00686821)
(0.145846 0.000537285 0.0073065)
(0.138496 0.00830135 0.00682211)
(0.131468 0.0113274 0.00706185)
(0.127141 0.0101824 0.00725458)
(0.125467 0.00756685 0.0065485)
(0.125601 0.00530125 0.00531554)
(0.12711 0.00347524 0.00445547)
(0.129655 0.00159245 0.00428357)
(0.132881 0.00020285 0.0042557)
(0.136399 0.000573282 0.00438358)
(0.139049 0.00276434 0.00552585)
(0.140128 0.00492096 0.00722363)
(0.140411 0.00567154 0.00737485)
(0.141499 0.00486211 0.00457388)
(0.144767 0.00256762 -0.000289131)
(0.149111 -0.00186991 -0.0019823)
(0.154912 -0.00532306 -0.00636425)
(0.160345 -0.00552598 -0.0083733)
(0.164373 -0.00263984 -0.00851431)
(0.164808 0.000484688 -0.00851483)
(0.161111 0.00207028 -0.00908075)
(0.156217 0.003043 -0.00920157)
(0.153422 0.00441537 -0.00766082)
(0.152885 0.00513678 -0.00475361)
(0.152286 0.00402968 -0.00186013)
(0.149669 0.00162445 0.000168504)
(0.145454 -0.00114664 0.00170722)
(0.141866 -0.00412954 0.00335987)
(0.14091 -0.0070298 0.00485904)
(0.143892 -0.00866618 0.00536783)
(0.150335 -0.00797002 0.00425869)
(0.156131 -0.00554826 0.0021485)
(0.156066 -0.00309527 0.00142772)
(0.150061 -0.000946978 0.00360725)
(0.143436 0.00193017 0.00594438)
(0.14017 0.00506669 0.00436404)
(0.139922 0.0058763 -0.000834929)
(0.141447 0.00247053 -0.00490421)
(0.144393 -0.00339991 -0.00341096)
(0.146777 -0.00616978 0.00182767)
(0.145798 -0.00194402 0.00547904)
(0.141835 0.00606604 0.00621045)
(0.13824 0.0120075 0.00560846)
(0.137064 0.0134919 0.00400404)
(0.137439 0.0116326 0.00138803)
(0.13756 0.00864712 -0.000854064)
(0.137053 0.00575588 -0.00127335)
(0.136741 0.00341231 0.000259265)
(0.137064 0.00213835 0.00247271)
(0.137822 0.00229386 0.00414074)
(0.13844 0.0033498 0.00533604)
(0.138548 0.00428798 0.00656273)
(0.138634 0.00461417 0.00730799)
(0.140063 0.00410865 0.00638971)
(0.143741 0.00202577 0.00302924)
(0.151073 -0.00459804 0.00313889)
(0.156306 -0.00512039 -0.00305716)
(0.157758 -0.00332891 -0.00715888)
(0.155492 0.000398187 -0.00876632)
(0.151381 0.00388084 -0.00880231)
(0.147472 0.0054312 -0.00811933)
(0.144986 0.00520189 -0.00735689)
(0.144288 0.00426461 -0.00698551)
(0.145354 0.00318855 -0.00683303)
(0.148055 0.00197488 -0.0060974)
(0.151654 0.000781816 -0.00434013)
(0.154368 -0.000322058 -0.00198023)
(0.154565 -0.00193284 0.00025697)
(0.152327 -0.00478114 0.00239075)
(0.149772 -0.00824758 0.00489679)
(0.149404 -0.0105005 0.00725633)
(0.151396 -0.0101234 0.00804317)
(0.152671 -0.00680812 0.00677928)
(0.150408 -0.00158868 0.00486939)
(0.145841 0.00316654 0.00331134)
(0.141933 0.00528437 0.00129805)
(0.140033 0.00389474 -0.0017836)
(0.140377 2.60795e-05 -0.00434674)
(0.142893 -0.00394991 -0.00360851)
(0.146066 -0.00543071 0.000787632)
(0.147245 -0.00270326 0.00561988)
(0.146276 0.00318249 0.00786193)
(0.145766 0.00871294 0.00656728)
(0.146769 0.0115625 0.00220843)
(0.147756 0.0115374 -0.0035051)
(0.147465 0.00931802 -0.00802452)
(0.146189 0.00576552 -0.00951191)
(0.144635 0.00267047 -0.00758062)
(0.143243 0.0018594 -0.00326171)
(0.142085 0.00321758 0.0016056)
(0.140795 0.00464688 0.00574605)
(0.139233 0.00427621 0.00900179)
(0.138359 0.00206151 0.0113463)
(0.139879 -0.000597506 0.0117823)
(0.144562 -0.00288759 0.00893313)
(0.154024 -0.00274714 0.011164)
(0.156621 -0.00170356 0.00712912)
(0.159913 0.00116641 0.00199081)
(0.161919 0.00530334 -0.00277419)
(0.161042 0.00859389 -0.00662909)
(0.157435 0.00931759 -0.00928117)