/*--------------------------------*- C++ -*----------------------------------*\
| =========                 |                                                 |
| \\      /  F ield         | OpenFOAM: The Open Source CFD Toolbox           |
|  \\    /   O peration     | Version:  2306                                  |
|   \\  /    A nd           | Website:  www.openfoam.com                      |
|    \\/     M anipulation  |                                                 |
\*---------------------------------------------------------------------------*/
FoamFile
{
    version     2.0;
    format      ascii;
    arch        "LSB;label=32;scalar=64";
    class       volVectorField;
    location    "2";
    object      UMean;
}
// * * * * * * * * * * * * * * * * * * * * * * * * * * * * * * * * * * * * * //

dimensions      [0 1 -1 0 0 0 0];

internalField   nonuniform List<vector> 
60000
(
(0.0105223 1.98418e-06 0.0024611)
(0.0104646 -1.64446e-05 0.00215262)
(0.010339 -1.96134e-05 0.00189588)
(0.0101978 -1.47366e-05 0.00177759)
(0.0100185 -1.20689e-05 0.00167805)
(0.00967205 -1.24065e-05 0.00147531)
(0.00903884 -1.18346e-05 0.00121888)
(0.00810101 -1.07576e-05 0.00104897)
(0.00705624 -1.30478e-05 0.00102994)
(0.00624819 -1.94434e-05 0.00112255)
(0.00586001 -2.56081e-05 0.00123982)
(0.00581025 -2.71417e-05 0.00125551)
(0.00590773 -2.54812e-05 0.00106714)
(0.00602348 -1.97267e-05 0.000726494)
(0.00613992 -8.71327e-06 0.000390678)
(0.00628439 3.02596e-06 0.000131134)
(0.00650363 1.42033e-05 -7.44229e-05)
(0.00680992 2.00607e-05 -0.000288975)
(0.00716659 2.06902e-05 -0.000576669)
(0.00756161 1.71444e-05 -0.000973975)
(0.00804102 1.1828e-05 -0.00146638)
(0.00861032 5.7158e-06 -0.00197243)
(0.00915834 1.72944e-06 -0.00236644)
(0.00948856 -1.305e-06 -0.00255321)
(0.00940089 -3.37227e-06 -0.00253212)
(0.00884616 4.85352e-08 -0.0024049)
(0.00802639 2.33849e-06 -0.00226197)
(0.00724256 -2.38479e-06 -0.00214128)
(0.00666223 -8.23147e-06 -0.00208776)
(0.0063263 -4.00078e-06 -0.002074)
(0.00626798 4.53271e-06 -0.00195601)
(0.00649218 1.23865e-05 -0.00156332)
(0.00693976 2.51666e-05 -0.000879571)
(0.00751435 3.93002e-05 -0.000132302)
(0.00814695 5.16599e-05 0.000438076)
(0.00880159 5.58137e-05 0.000858902)
(0.00942475 5.89366e-05 0.00130443)
(0.00993498 6.10502e-05 0.00184449)
(0.0102809 5.30915e-05 0.00235274)
(0.0104689 2.98175e-05 0.00258392)
(0.0325225 -9.36779e-05 0.00620596)
(0.0323168 -0.000177817 0.0053351)
(0.0318259 -0.000181206 0.00472956)
(0.0313222 -0.00014079 0.00458572)
(0.0307464 -9.29071e-05 0.00450313)
(0.0296781 -4.62875e-05 0.00407009)
(0.0278047 -1.09262e-05 0.00338897)
(0.0251537 -1.6052e-05 0.00289484)
(0.0222485 -8.68087e-05 0.00283581)
(0.0198808 -0.000194155 0.00310263)
(0.0184939 -0.000264873 0.00336666)
(0.0179664 -0.000268124 0.00326381)
(0.0178886 -0.000226372 0.00265926)
(0.0179801 -0.000156887 0.00179798)
(0.0182155 -7.09174e-05 0.00102508)
(0.0186398 6.20457e-06 0.000424197)
(0.0193385 5.5706e-05 -0.000102306)
(0.0203362 6.93483e-05 -0.00070404)
(0.0215522 5.35712e-05 -0.00152157)
(0.0229545 1.3166e-05 -0.00263382)
(0.0246083 -3.35099e-05 -0.00399884)
(0.0264319 -6.00304e-05 -0.00539055)
(0.028095 -5.33144e-05 -0.00644742)
(0.0291097 -3.02275e-05 -0.00688051)
(0.0289634 -8.16987e-06 -0.00667713)
(0.0275211 9.55645e-07 -0.00615272)
(0.0252917 -2.89106e-05 -0.00566466)
(0.0229812 -9.58421e-05 -0.00539991)
(0.0209966 -0.000147808 -0.00541318)
(0.0195786 -0.000140514 -0.00550525)
(0.0190313 -8.49658e-05 -0.00521374)
(0.0194789 3.38483e-06 -0.00410491)
(0.0207139 0.000126182 -0.00224506)
(0.0223909 0.000253631 -0.000269413)
(0.024286 0.000346047 0.00128355)
(0.02628 0.000373333 0.00250691)
(0.0282205 0.000362929 0.0037547)
(0.0299339 0.000318697 0.00512265)
(0.0312951 0.000218674 0.00628635)
(0.0321939 6.07594e-05 0.00668706)
(0.0557487 -0.000353307 0.0092528)
(0.0553546 -0.000511345 0.00781667)
(0.0543862 -0.000496305 0.00673278)
(0.0534514 -0.000392067 0.00653193)
(0.0525293 -0.0002693 0.00666774)
(0.0509527 -0.000145327 0.0063075)
(0.0482445 -5.37162e-05 0.0053572)
(0.0443778 -6.57116e-05 0.00446735)
(0.0398611 -0.000234046 0.00422724)
(0.0356433 -0.00049066 0.00462452)
(0.032593 -0.000658635 0.00509055)
(0.0309607 -0.000663877 0.00495117)
(0.0302909 -0.000558129 0.00404597)
(0.0300883 -0.000386177 0.00282898)
(0.0302612 -0.000182672 0.0017953)
(0.0308627 -4.8389e-06 0.00101322)
(0.0319998 9.21831e-05 0.000315521)
(0.0336943 9.93767e-05 -0.000507573)
(0.0358265 3.60757e-05 -0.00165836)
(0.0383429 -8.5911e-05 -0.00328219)
(0.041312 -0.000214958 -0.00537734)
(0.0445502 -0.000277602 -0.00765427)
(0.0475386 -0.000250227 -0.0095287)
(0.0495811 -0.000182077 -0.0104174)
(0.0499012 -0.000117911 -0.0101446)
(0.0481557 -9.50044e-05 -0.00915524)
(0.0449112 -0.000159125 -0.00814682)
(0.0411207 -0.000292619 -0.00760599)
(0.0374239 -0.000388728 -0.00771536)
(0.0343062 -0.000372494 -0.00818694)
(0.0324694 -0.000254597 -0.00820547)
(0.0324274 -4.87354e-05 -0.00690585)
(0.0340503 0.000242885 -0.00425897)
(0.0367347 0.000554326 -0.00122587)
(0.0399715 0.000776968 0.00130484)
(0.0434798 0.000843989 0.0033476)
(0.0470032 0.000799243 0.00534002)
(0.0502922 0.000646101 0.0074329)
(0.0530809 0.000363631 0.00923261)
(0.0550115 -1.60472e-05 0.00993908)
(0.0793294 -0.000752639 0.0118444)
(0.0787223 -0.000976874 0.0100029)
(0.0771664 -0.0009274 0.00813765)
(0.0757485 -0.000740539 0.00751668)
(0.0746082 -0.000522108 0.0079039)
(0.072903 -0.000294379 0.00802312)
(0.0700063 -0.00011483 0.00715262)
(0.0657548 -0.000100166 0.00583655)
(0.0602788 -0.000345639 0.00514212)
(0.0541742 -0.000773105 0.00553719)
(0.0486831 -0.00110427 0.00638186)
(0.04499 -0.00116772 0.00648202)
(0.043057 -0.0010157 0.00542912)
(0.0421542 -0.00073229 0.00392793)
(0.0419669 -0.000392208 0.00274651)
(0.042497 -9.74861e-05 0.00197608)
(0.0438559 5.37463e-05 0.00136709)
(0.046046 3.41701e-05 0.000646218)
(0.0489278 -0.000119307 -0.000453949)
(0.0524577 -0.000382328 -0.00218902)
(0.0567605 -0.00065816 -0.00471664)
(0.0615817 -0.000786256 -0.00785545)
(0.0662225 -0.000716652 -0.0108914)
(0.0698318 -0.000552229 -0.0128302)
(0.0714136 -0.000384876 -0.0130398)
(0.0702808 -0.000293217 -0.0118217)
(0.0667714 -0.000363211 -0.0101648)
(0.0619031 -0.000549092 -0.00901293)
(0.0565383 -0.000678815 -0.00892197)
(0.0513224 -0.000660634 -0.0098057)
(0.0472393 -0.000521829 -0.0106878)
(0.0454204 -0.000254802 -0.01011)
(0.0463728 0.000179212 -0.00749532)
(0.0495731 0.000695613 -0.00383984)
(0.0541081 0.00109715 -0.000448446)
(0.0593285 0.00124227 0.00242182)
(0.0647412 0.00117508 0.0051824)
(0.0700083 0.000903517 0.00805302)
(0.0746685 0.000406022 0.0107125)
(0.0780057 -0.00022517 0.0122119)
(0.10171 -0.00125014 0.0135802)
(0.100905 -0.00150014 0.0121538)
(0.0986061 -0.00140611 0.0095175)
(0.0966609 -0.00112981 0.00784981)
(0.0955068 -0.000808608 0.0080608)
(0.0941294 -0.000476283 0.00892156)
(0.0917321 -0.000199036 0.00873209)
(0.088076 -0.00011786 0.00722924)
(0.0828189 -0.000356184 0.00575891)
(0.0756358 -0.000890157 0.00575619)
(0.0674752 -0.00142533 0.0070632)
(0.0606506 -0.00166457 0.00785867)
(0.0563994 -0.00155528 0.00692663)
(0.0541453 -0.00119676 0.00509622)
(0.0531657 -0.000729792 0.00371437)
(0.0532175 -0.000320081 0.00308411)
(0.0543355 -0.000114702 0.00286017)
(0.0564736 -0.000179347 0.0026663)
(0.0594667 -0.00048076 0.00217199)
(0.0633628 -0.000990004 0.00101143)
(0.0685481 -0.0015547 -0.00124459)
(0.074945 -0.00185227 -0.00482513)
(0.0816946 -0.00171459 -0.00922055)
(0.0876587 -0.00131694 -0.013061)
(0.0915626 -0.000897677 -0.0148739)
(0.0922683 -0.000625759 -0.0142838)
(0.089615 -0.000635196 -0.0122745)
(0.0845029 -0.000841826 -0.0102839)
(0.0780859 -0.000967388 -0.00945263)
(0.0711502 -0.000911901 -0.0102373)
(0.0645942 -0.000775503 -0.0119768)
(0.0598022 -0.000565938 -0.0129034)
(0.0582341 -0.000161415 -0.011569)
(0.0603261 0.000422705 -0.00836616)
(0.0652911 0.000953606 -0.00474528)
(0.072037 0.00119339 -0.00132082)
(0.0795295 0.001155 0.00216397)
(0.0871232 0.000853213 0.00588797)
(0.0941275 0.000223975 0.00966104)
(0.0994227 -0.000598239 0.0126088)
(0.120424 -0.00188578 0.0127384)
(0.11981 -0.00199166 0.0135302)
(0.116454 -0.0018465 0.0113356)
(0.113834 -0.00151684 0.00839267)
(0.112989 -0.00108654 0.00746926)
(0.112511 -0.00065287 0.00869509)
(0.111158 -0.000304351 0.0097854)
(0.108828 -0.000147459 0.00883544)
(0.105184 -0.000278613 0.0065401)
(0.0987888 -0.000750543 0.0054594)
(0.0892027 -0.00140575 0.00684253)
(0.0789195 -0.00192985 0.00874596)
(0.0710417 -0.00204717 0.00851841)
(0.0663316 -0.00172539 0.00641714)
(0.0639513 -0.00117013 0.00456348)
(0.0630882 -0.000656705 0.00390948)
(0.0634331 -0.000402248 0.00412875)
(0.0647546 -0.000519214 0.00468822)
(0.0667636 -0.00103067 0.00520734)
(0.0695413 -0.00194598 0.00532253)
(0.0739354 -0.00305192 0.00442252)
(0.0806629 -0.00379387 0.00171897)
(0.0893158 -0.00377106 -0.00306363)
(0.0986848 -0.00306478 -0.0089811)
(0.106736 -0.00203862 -0.0138071)
(0.111113 -0.00122492 -0.0155577)
(0.110851 -0.000992112 -0.014384)
(0.106649 -0.00118082 -0.0119821)
(0.100181 -0.00127285 -0.010127)
(0.0926777 -0.00108929 -0.0100063)
(0.0848257 -0.000869692 -0.0117487)
(0.077463 -0.000738273 -0.0139809)
(0.0722192 -0.000547402 -0.0148108)
(0.0708124 -0.00019391 -0.0136082)
(0.0736993 0.00015505 -0.0111779)
(0.0802048 0.000312832 -0.00816563)
(0.0887799 0.000282456 -0.00453652)
(0.0982318 6.93967e-06 -0.000317571)
(0.107771 -0.000607137 0.00439416)
(0.116008 -0.00137131 0.00916474)
(0.131194 -0.00313069 0.00710826)
(0.132983 -0.00249513 0.0118371)
(0.128507 -0.00204434 0.0126605)
(0.124205 -0.0018612 0.00991657)
(0.12392 -0.00144904 0.00720594)
(0.125363 -0.000829593 0.00750681)
(0.125617 -0.000392128 0.0097083)
(0.124585 -0.000260152 0.0103816)
(0.123308 -0.000273321 0.00798107)
(0.120059 -0.00043784 0.00527849)
(0.112143 -0.000945198 0.00575061)
(0.100287 -0.00167489 0.00858141)
(0.0883489 -0.00220516 0.00979701)
(0.0796251 -0.00214781 0.00799788)
(0.0747412 -0.00161451 0.00554168)
(0.0725492 -0.00101878 0.00442421)
(0.0719558 -0.000697793 0.00466863)
(0.0722397 -0.000838634 0.00558992)
(0.0728092 -0.00157911 0.00673745)
(0.0735236 -0.00305973 0.00799806)
(0.0753683 -0.00499752 0.00902214)
(0.0800109 -0.00646221 0.0086538)
(0.0880384 -0.00677271 0.00564171)
(0.0989441 -0.00597912 -0.000193958)
(0.111499 -0.00438201 -0.00740153)
(0.122001 -0.00260294 -0.0129853)
(0.126432 -0.00166125 -0.0148032)
(0.12453 -0.00167889 -0.0135897)
(0.119053 -0.00172644 -0.0113919)
(0.112409 -0.00127864 -0.0100097)
(0.105337 -0.000740716 -0.0105956)
(0.0977773 -0.000552009 -0.0128367)
(0.0903347 -0.000552249 -0.0153175)
(0.0848163 -0.000600479 -0.016996)
(0.0831816 -0.000863761 -0.0175164)
(0.0864533 -0.00125846 -0.016453)
(0.0935726 -0.00151962 -0.0136227)
(0.102432 -0.00182279 -0.00965601)
(0.112064 -0.00247063 -0.00496478)
(0.122574 -0.00315177 0.000746541)
(0.132265 -0.00551235 -0.00123058)
(0.13867 -0.00353762 0.0065)
(0.135802 -0.0018931 0.0112929)
(0.128689 -0.00173953 0.0111993)
(0.126543 -0.00192163 0.00798809)
(0.130336 -0.00130168 0.00625405)
(0.133764 -0.000479532 0.00805123)
(0.13325 -0.000326494 0.0105454)
(0.131958 -0.000609924 0.00969312)
(0.132728 -0.000578245 0.00592219)
(0.130982 -0.000413008 0.00445225)
(0.122577 -0.000839119 0.00719976)
(0.109246 -0.00166988 0.010042)
(0.0959189 -0.0021191 0.00949108)
(0.0866891 -0.00188643 0.00699342)
(0.082144 -0.0013337 0.0052939)
(0.0806777 -0.000943049 0.00503936)
(0.0806512 -0.00102767 0.0055694)
(0.0809222 -0.0018781 0.00644146)
(0.080852 -0.00380797 0.00789356)
(0.0806145 -0.00658498 0.0102187)
(0.0818298 -0.00896017 0.0125149)
(0.0865502 -0.00979345 0.0126143)
(0.0955495 -0.00911778 0.00899969)
(0.108599 -0.00730703 0.00210051)
(0.123218 -0.00477779 -0.00576562)
(0.132987 -0.00284284 -0.0112764)
(0.133522 -0.00236353 -0.0129728)
(0.127751 -0.0024015 -0.0119811)
(0.121717 -0.00189697 -0.0100673)
(0.118193 -0.000979974 -0.00896145)
(0.115094 -0.000230946 -0.0098363)
(0.109885 6.17326e-05 -0.0124991)
(0.103111 -0.000151837 -0.0162912)
(0.0973486 -0.00115819 -0.0204612)
(0.0954921 -0.00265107 -0.0230572)
(0.0987971 -0.00364733 -0.0223037)
(0.105483 -0.00409644 -0.0188619)
(0.112952 -0.00485217 -0.0143067)
(0.121696 -0.00584595 -0.00863677)
(0.130819 -0.00845994 -0.00757262)
(0.139323 -0.00562801 0.000868812)
(0.140776 -0.00207841 0.0077402)
(0.13402 -0.000959797 0.0102049)
(0.127515 -0.00190318 0.00816684)
(0.129157 -0.00213935 0.00523604)
(0.135929 -0.000915809 0.00537228)
(0.138733 -0.000105786 0.00817674)
(0.13525 -0.000821068 0.00949035)
(0.132989 -0.00174787 0.00680422)
(0.1365 -0.00137702 0.00377115)
(0.138242 -0.000566539 0.00522493)
(0.130795 -0.000642634 0.00898056)
(0.116333 -0.00125451 0.0101579)
(0.102121 -0.00154582 0.00858327)
(0.0931975 -0.00140938 0.00694621)
(0.0898258 -0.00120325 0.00631265)
(0.089873 -0.00129131 0.00614911)
(0.0911844 -0.00209158 0.00615651)
(0.0921278 -0.00407626 0.00691868)
(0.0917266 -0.00720802 0.00927049)
(0.090578 -0.0103077 0.0129487)
(0.0912063 -0.0118817 0.0157898)
(0.0960887 -0.0116408 0.0151347)
(0.106369 -0.0100043 0.00994243)
(0.12074 -0.00723038 0.00168302)
(0.132838 -0.00427308 -0.00617006)
(0.134407 -0.00257387 -0.0104046)
(0.125565 -0.00211206 -0.0104521)
(0.115556 -0.00195572 -0.00793769)
(0.112418 -0.00155231 -0.0052693)
(0.116318 -0.000699518 -0.00443819)
(0.120572 0.000411885 -0.0063843)
(0.119579 0.000961886 -0.0111289)
(0.11435 -0.000126709 -0.017968)
(0.109086 -0.002752 -0.0244794)
(0.107467 -0.00507983 -0.0272638)
(0.110674 -0.00611225 -0.0254036)
(0.116352 -0.00694352 -0.02084)
(0.122556 -0.00833701 -0.0149866)
(0.131411 -0.0109621 -0.0114113)
(0.138807 -0.00843578 -0.00352021)
(0.143642 -0.00346098 0.00344782)
(0.140905 -0.000400258 0.00731539)
(0.133052 -0.000989601 0.00690887)
(0.128707 -0.00254416 0.00408949)
(0.133027 -0.00207191 0.00278604)
(0.140326 -0.000263732 0.00476414)
(0.141127 -0.000119829 0.00734895)
(0.135614 -0.00231767 0.0068122)
(0.133795 -0.00401588 0.00399124)
(0.140222 -0.00310116 0.00387198)
(0.144402 -0.00113586 0.00729258)
(0.136777 -0.000190856 0.00972796)
(0.121565 -0.000289904 0.00942938)
(0.107956 -0.000704798 0.0085636)
(0.100618 -0.00117372 0.00837476)
(0.0991865 -0.00174684 0.00817809)
(0.101352 -0.00265941 0.00743026)
(0.104307 -0.00440859 0.00683375)
(0.105284 -0.00728603 0.00792729)
(0.103351 -0.0105236 0.0114821)
(0.100843 -0.012678 0.0157985)
(0.101377 -0.0131028 0.017604)
(0.107286 -0.011996 0.0145695)
(0.118337 -0.00939838 0.00690705)
(0.129309 -0.00564435 -0.00215952)
(0.131553 -0.00226549 -0.00816686)
(0.122595 -0.000516999 -0.00890222)
(0.110061 -0.000535951 -0.00535219)
(0.103864 -0.00145137 -0.000568828)
(0.107753 -0.00164301 0.00244432)
(0.117812 -0.000185599 0.00192838)
(0.12584 0.0016792 -0.00272742)
(0.127074 0.00159037 -0.0109549)
(0.123561 -0.00125784 -0.0202161)
(0.11962 -0.0048676 -0.0265924)
(0.118538 -0.00701645 -0.027728)
(0.12115 -0.00826485 -0.02441)
(0.125615 -0.0100168 -0.0186319)
(0.133147 -0.0124505 -0.0140768)
(0.13896 -0.0111727 -0.00671896)
(0.144447 -0.00615609 -0.000675797)
(0.145656 -0.00128428 0.0033411)
(0.140703 -0.000122363 0.00454729)
(0.133388 -0.00182318 0.00297799)
(0.131028 -0.00282935 0.0011903)
(0.136374 -0.00148215 0.00195638)
(0.143158 9.98174e-06 0.00467649)
(0.143242 -0.00136909 0.00598663)
(0.138132 -0.00488031 0.00452106)
(0.138109 -0.0065945 0.00362303)
(0.145587 -0.00455354 0.00602071)
(0.148488 -0.00106498 0.00883361)
(0.139709 0.000958871 0.00934102)
(0.125653 0.00105205 0.00909216)
(0.114526 -6.25205e-05 0.00969101)
(0.109485 -0.00178769 0.0102785)
(0.110438 -0.00366393 0.00953025)
(0.115157 -0.00547974 0.00762813)
(0.118948 -0.00758602 0.00661978)
(0.118011 -0.0101258 0.00878712)
(0.11348 -0.0122589 0.0135277)
(0.109897 -0.0131678 0.0172189)
(0.110799 -0.0126937 0.0164813)
(0.117003 -0.0105429 0.0103743)
(0.125153 -0.00645655 0.00130029)
(0.128196 -0.00178254 -0.00600471)
(0.122381 0.00133307 -0.00814103)
(0.112087 0.00169953 -0.00505486)
(0.104623 -0.000160327 0.000816433)
(0.104783 -0.00188958 0.00598429)
(0.112797 -0.00118232 0.00773908)
(0.12392 0.00145961 0.00494971)
(0.131858 0.0029065 -0.00241264)
(0.134054 0.00095001 -0.0124771)
(0.132333 -0.00309797 -0.0214312)
(0.129422 -0.00624729 -0.0260234)
(0.127881 -0.0081983 -0.02556)
(0.129127 -0.0104841 -0.021048)
(0.135921 -0.0125994 -0.016589)
(0.140637 -0.0129079 -0.00941855)
(0.145091 -0.00918434 -0.00387392)
(0.147044 -0.00378714 -0.000300149)
(0.145023 -0.00061295 0.00186109)
(0.139269 -0.000841868 0.00201553)
(0.133458 -0.00232361 0.000712142)
(0.133233 -0.00252037 0.000567244)
(0.139574 -0.00144466 0.00265447)
(0.145651 -0.00161527 0.00477128)
(0.144748 -0.00452015 0.00458073)
(0.140761 -0.00784618 0.00354467)
(0.142676 -0.00781414 0.0048613)
(0.148922 -0.00395189 0.00757946)
(0.149052 0.00043442 0.00858041)
(0.140343 0.00256918 0.00851241)
(0.129052 0.00210581 0.00939277)
(0.120893 -0.000400955 0.0103864)
(0.118644 -0.00401044 0.0094897)
(0.123147 -0.00707433 0.00662712)
(0.130363 -0.00862275 0.00400638)
(0.13289 -0.00970573 0.00469677)
(0.128373 -0.0110596 0.00932278)
(0.121414 -0.0119705 0.0144784)
(0.117128 -0.0117589 0.0161203)
(0.117792 -0.0100913 0.0124639)
(0.122246 -0.00645063 0.00469924)
(0.125632 -0.00142292 -0.00334603)
(0.123607 0.00262657 -0.00766166)
(0.117363 0.00358057 -0.00672783)
(0.111552 0.00154477 -0.00191559)
(0.10964 -0.00106005 0.00382242)
(0.113102 -0.00144813 0.00764378)
(0.121263 0.000798047 0.00783097)
(0.130955 0.00306279 0.0035532)
(0.13861 0.00250082 -0.00471033)
(0.142031 -0.000845638 -0.0142297)
(0.140745 -0.00427101 -0.0213944)
(0.136859 -0.00676483 -0.0242201)
(0.134305 -0.00965389 -0.0223995)
(0.14083 -0.0119249 -0.0183237)
(0.144162 -0.0135581 -0.0120324)
(0.146938 -0.0114445 -0.00662024)
(0.146883 -0.00677004 -0.00306116)
(0.145038 -0.00236986 -0.00018894)
(0.14194 -0.000487772 0.00156317)
(0.137635 -0.0010968 0.0012346)
(0.13496 -0.0024631 0.000502259)
(0.137796 -0.00307245 0.00162857)
(0.144184 -0.00337193 0.00385278)
(0.14698 -0.00503798 0.00446809)
(0.143967 -0.00803836 0.00322033)
(0.141601 -0.00941414 0.00315365)
(0.1443 -0.00681065 0.00532542)
(0.14702 -0.00162012 0.00730829)
(0.143582 0.00268894 0.00809871)
(0.135493 0.00407735 0.00873454)
(0.128009 0.00217234 0.0084922)
(0.124409 -0.00245889 0.00575474)
(0.126838 -0.00752582 0.0015345)
(0.135482 -0.00987886 -0.00148549)
(0.143327 -0.00959565 -0.000891707)
(0.142355 -0.00936323 0.00406913)
(0.134007 -0.00982587 0.0104817)
(0.12528 -0.00962218 0.0141602)
(0.120922 -0.00796104 0.0130268)
(0.12163 -0.0048081 0.00748155)
(0.124389 -0.000346502 -0.000108692)
(0.125062 0.00370534 -0.00641028)
(0.122662 0.00498177 -0.00872875)
(0.119566 0.00303065 -0.00659052)
(0.11806 0.000143244 -0.00200066)
(0.118913 -0.00090843 0.0023492)
(0.12252 0.000413143 0.00481744)
(0.129324 0.00209264 0.00424939)
(0.138622 0.00203452 -0.000347773)
(0.146799 0.000199799 -0.00821214)
(0.149075 -0.00203727 -0.0162425)
(0.14548 -0.00440263 -0.0213078)
(0.141188 -0.0079832 -0.022057)
(0.147705 -0.0105889 -0.0188281)
(0.149382 -0.0128853 -0.0141177)
(0.149845 -0.0118917 -0.00961565)
(0.147066 -0.00849726 -0.00601246)
(0.143475 -0.00431131 -0.00200016)
(0.1413 -0.00107787 0.00154638)
(0.139628 -0.000158234 0.00232388)
(0.138197 -0.00151959 0.00120385)
(0.139464 -0.00362002 0.00139455)
(0.144085 -0.00480581 0.00356415)
(0.147782 -0.0055519 0.00479276)
(0.146311 -0.00729105 0.00321921)
(0.141386 -0.00904425 0.00151665)
(0.137839 -0.00798512 0.00285959)
(0.13622 -0.00368588 0.00621516)
(0.13363 0.00114996 0.00873517)
(0.130265 0.0039268 0.00876112)
(0.128503 0.0036602 0.00550059)
(0.128283 -9.42773e-05 -0.000116137)
(0.129346 -0.00621193 -0.0049013)
(0.135222 -0.0107577 -0.00641967)
(0.14549 -0.0106759 -0.0045905)
(0.150463 -0.00843826 0.000418064)
(0.144469 -0.00734055 0.00699566)
(0.133132 -0.00674333 0.0117864)
(0.124752 -0.00491444 0.0126049)
(0.122869 -0.00197797 0.00924549)
(0.125641 0.00143148 0.00285077)
(0.12877 0.00440443 -0.00431195)
(0.129511 0.00532352 -0.00937294)
(0.128828 0.00357832 -0.0104738)
(0.128598 0.00105961 -0.0083785)
(0.12905 0.000173559 -0.00507518)
(0.130063 0.000804473 -0.00168683)
(0.132966 0.000888137 0.000696973)
(0.139476 -0.000269861 -0.000126123)
(0.148092 -0.00109956 -0.00516284)
(0.153258 -0.00110645 -0.0123576)
(0.152149 -0.00224799 -0.0183339)
(0.148671 -0.00601618 -0.0207405)
(0.154768 -0.00830666 -0.0178566)
(0.155358 -0.0106355 -0.015021)
(0.154513 -0.0104477 -0.0119416)
(0.150089 -0.00865487 -0.00879665)
(0.144389 -0.00553188 -0.00412596)
(0.140882 -0.00179666 0.00097903)
(0.139836 0.000507697 0.00333107)
(0.140002 -0.000196951 0.00271006)
(0.141619 -0.00307719 0.00226491)
(0.14506 -0.00537925 0.00383241)
(0.148123 -0.00576793 0.00521475)
(0.147114 -0.00581375 0.00357729)
(0.140919 -0.00653155 0.000465402)
(0.132688 -0.00634513 -5.48969e-05)
(0.126409 -0.0038902 0.00263558)
(0.123583 -0.000288147 0.00512276)
(0.124431 0.00249415 0.00434942)
(0.128175 0.0034018 6.85356e-05)
(0.131998 0.00143895 -0.00518463)
(0.133889 -0.00405369 -0.00781683)
(0.136885 -0.0105614 -0.00641944)
(0.144643 -0.0128991 -0.00266232)
(0.151823 -0.0100775 0.001959)
(0.149574 -0.00644791 0.00704224)
(0.138794 -0.0042678 0.0110186)
(0.128379 -0.00219552 0.0120235)
(0.12448 0.000496289 0.00962006)
(0.126356 0.00300805 0.00452094)
(0.129712 0.00455022 -0.00161074)
(0.131244 0.00445745 -0.00639267)
(0.131512 0.00259775 -0.00835576)
(0.132798 0.000443781 -0.00821908)
(0.135228 -8.81429e-05 -0.00683524)
(0.137379 0.000632373 -0.00390716)
(0.138894 0.000208371 -0.000390946)
(0.141332 -0.00171848 0.000476729)
(0.146279 -0.00246322 -0.00318257)
(0.152137 -0.00111176 -0.00948853)
(0.155288 -0.000807539 -0.0152273)
(0.155211 -0.00393482 -0.0182665)
(0.159826 -0.00569424 -0.0155109)
(0.160489 -0.00764136 -0.014672)
(0.16009 -0.00801261 -0.0131502)
(0.155859 -0.0075682 -0.0110385)
(0.148467 -0.00568581 -0.00693903)
(0.142446 -0.00206247 -0.0011114)
(0.140329 0.0011141 0.00348803)
(0.141027 0.0012328 0.00488192)
(0.142954 -0.00159581 0.0043754)
(0.14542 -0.00454007 0.00440016)
(0.147384 -0.00528514 0.00516055)
(0.146796 -0.00457594 0.0044364)
(0.142085 -0.00406715 0.0014126)
(0.134588 -0.00348683 -0.00155974)
(0.128092 -0.00194721 -0.00224738)
(0.125577 -4.14757e-06 -0.00139359)
(0.127254 0.00135992 -0.00127222)
(0.131599 0.00204776 -0.00315116)
(0.13655 0.00148235 -0.00620794)
(0.140115 -0.00217196 -0.00765683)
(0.142776 -0.00870326 -0.00554904)
(0.147117 -0.0134752 -0.00098053)
(0.151746 -0.0122411 0.0037011)
(0.150769 -0.00718346 0.00763092)
(0.142305 -0.00261466 0.0107469)
(0.132143 0.000368473 0.0121475)
(0.12636 0.00253922 0.0107278)
(0.125335 0.0041646 0.00676783)
(0.125894 0.00496333 0.00233669)
(0.125931 0.00432973 -0.000464933)
(0.126414 0.00205355 -0.0014752)
(0.12917 -0.000463003 -0.00212288)
(0.133716 -0.00116426 -0.00236474)
(0.137637 -0.000105178 -0.000369491)
(0.139224 0.000186172 0.00293746)
(0.139426 -0.00119136 0.00340756)
(0.141202 -0.00213614 -0.000770545)
(0.146386 -0.00133594 -0.00688274)
(0.153257 -0.000733842 -0.011806)
(0.1581 -0.00254922 -0.0146573)
(0.161481 -0.00322713 -0.0120186)
(0.164195 -0.00448057 -0.0127779)
(0.165164 -0.00516202 -0.0130372)
(0.16175 -0.00551409 -0.0125655)
(0.153577 -0.00452785 -0.00979805)
(0.145287 -0.00151693 -0.00412358)
(0.141204 0.00171198 0.00199576)
(0.141355 0.00233164 0.00550302)
(0.143281 -0.00012336 0.00595578)
(0.144983 -0.00323156 0.00533055)
(0.145567 -0.00452493 0.00518078)
(0.144345 -0.00391315 0.00475207)
(0.140792 -0.00274324 0.00266481)
(0.136082 -0.00157431 -0.000599552)
(0.132876 -0.0003058 -0.00306761)
(0.132601 0.00062712 -0.0035235)
(0.13427 0.000715638 -0.00258046)
(0.136659 0.000571763 -0.0021741)
(0.139712 0.000662352 -0.00363155)
(0.142642 -0.00073662 -0.00533379)
(0.144829 -0.00529705 -0.00447886)
(0.147586 -0.0106454 -0.000996527)
(0.150848 -0.011742 0.00319066)
(0.15121 -0.00740617 0.00693569)
(0.145999 -0.00131045 0.0097651)
(0.137634 0.0031707 0.0110603)
(0.130576 0.00532121 0.0105415)
(0.126247 0.00565976 0.00857273)
(0.123827 0.00481466 0.00606106)
(0.123065 0.00302955 0.00403955)
(0.124661 0.000222299 0.00291617)
(0.128601 -0.00268256 0.00207973)
(0.133336 -0.00366177 0.00130039)
(0.136938 -0.00197247 0.0019617)
(0.138383 0.000325093 0.00424577)
(0.1383 0.000981876 0.00511497)
(0.13888 0.00034842 0.00195984)
(0.142514 -8.94473e-05 -0.00355097)
(0.149436 -0.000390921 -0.00801424)
(0.156702 -0.00150954 -0.0105514)
(0.16037 -0.00174999 -0.00928776)
(0.164763 -0.00228646 -0.0105472)
(0.16723 -0.00261967 -0.0115682)
(0.165303 -0.00292977 -0.0124793)
(0.158207 -0.0021396 -0.011854)
(0.149741 0.000258187 -0.00788148)
(0.144106 0.00263774 -0.00150922)
(0.142064 0.00278715 0.0039343)
(0.142033 0.000649906 0.00618915)
(0.142419 -0.0017076 0.00605694)
(0.142363 -0.0026019 0.00557204)
(0.141469 -0.00219173 0.0050097)
(0.139805 -0.00140571 0.00323742)
(0.138491 -0.000650111 0.000349565)
(0.138791 -0.000144747 -0.00196106)
(0.140195 -0.000388542 -0.00239545)
(0.140674 -0.00138725 -0.00111268)
(0.139549 -0.00190614 0.000569268)
(0.138768 -0.000916847 0.00117702)
(0.139907 -0.000247586 0.000963586)
(0.142661 -0.00296835 0.00169954)
(0.146175 -0.00812501 0.0037946)
(0.14902 -0.0104393 0.00588292)
(0.149048 -0.00671699 0.00714203)
(0.144837 0.000242585 0.00817706)
(0.137705 0.00570259 0.00919244)
(0.130804 0.00751732 0.00939446)
(0.125962 0.00650213 0.00853219)
(0.123296 0.00469069 0.007451)
(0.122771 0.00325642 0.00688409)
(0.124677 0.00158446 0.00653793)
(0.128645 -0.000803322 0.00570972)
(0.133092 -0.00248484 0.00466309)
(0.136333 -0.0016493 0.00463643)
(0.137802 0.00113982 0.005936)
(0.138376 0.00326343 0.00656402)
(0.139579 0.00349303 0.00434824)
(0.142604 0.00254289 -0.00015708)
(0.147949 0.00110431 -0.00453124)
(0.15454 -0.000505857 -0.00745421)
(0.158606 -0.00210932 -0.00796611)
(0.163629 -0.00164829 -0.00917607)
(0.166178 -0.0004764 -0.00988349)
(0.165337 0.000170809 -0.0107621)
(0.161446 0.00059066 -0.0113142)
(0.156557 0.00189616 -0.00986842)
(0.152274 0.00354137 -0.00573561)
(0.148516 0.00351463 -0.000671371)
(0.144861 0.00131467 0.00287567)
(0.141681 -0.00118722 0.0043042)
(0.139865 -0.00224252 0.00480124)
(0.140075 -0.00195413 0.00509411)
(0.142257 -0.00114784 0.00461231)
(0.145842 -0.000286496 0.00292709)
(0.149508 0.000129305 0.000966788)
(0.151022 -0.000459039 0.00034979)
(0.148874 -0.00154842 0.00192247)
(0.144158 -0.00164546 0.00488597)
(0.14049 -3.2689e-05 0.00672864)
(0.140445 0.00164819 0.00546619)
(0.14314 0.000445006 0.00274754)
(0.146369 -0.00398126 0.00215019)
(0.14848 -0.00740949 0.00448521)
(0.148086 -0.00522204 0.00696713)
(0.144299 0.00165797 0.00752595)
(0.138069 0.00813716 0.0070389)
(0.132184 0.0107267 0.00683941)
(0.12857 0.00968019 0.00677414)
(0.127143 0.00709393 0.00613617)
(0.127194 0.00473373 0.0049968)
(0.128416 0.00296519 0.00413343)
(0.13081 0.00145034 0.00401006)
(0.133937 0.000524354 0.00431016)
(0.13712 0.000972725 0.00481236)
(0.139681 0.00272493 0.00584708)
(0.141097 0.0044094 0.0069386)
(0.141871 0.00474287 0.0063326)
(0.143316 0.00350769 0.00312126)
(0.146774 0.00127939 -0.00145733)
(0.152378 -0.00096052 -0.00546729)
(0.156751 -0.00488736 -0.00642348)
(0.161014 -0.00425081 -0.00799455)
(0.163014 -0.00145046 -0.00821662)
(0.162165 0.00123335 -0.00834067)
(0.158852 0.002626 -0.00870571)
(0.155127 0.00345842 -0.00849953)
(0.152941 0.00437883 -0.00692776)
(0.152127 0.00459958 -0.00418182)
(0.150904 0.00313146 -0.00131128)
(0.148087 0.000375546 0.00083939)
(0.144359 -0.00252723 0.00240246)
(0.141779 -0.00514653 0.00380668)
(0.142185 -0.00726484 0.00480465)
(0.145926 -0.00801093 0.00475072)
(0.151363 -0.00676648 0.00355028)
(0.154993 -0.00428203 0.00212559)
(0.153872 -0.00188904 0.00200666)
(0.148559 0.000291927 0.00347804)
(0.142907 0.00271 0.00445926)
(0.140285 0.00458016 0.00255783)
(0.140704 0.00419644 -0.00141076)
(0.142674 0.000934456 -0.00366158)
(0.145018 -0.00317752 -0.00178471)
(0.146254 -0.00423917 0.00249549)
(0.145154 -0.000253849 0.00559724)
(0.142348 0.00634076 0.00610793)
(0.139924 0.0112921 0.0048884)
(0.13901 0.012509 0.00286801)
(0.138824 0.0106934 0.000653765)
(0.138416 0.00772648 -0.000831308)
(0.137743 0.00504598 -0.000766723)
(0.137426 0.00313567 0.000762722)
(0.137745 0.00218951 0.00279226)
(0.138319 0.00231431 0.00444126)
(0.138842 0.00308427 0.00569015)
(0.139268 0.00371107 0.00671633)
(0.140014 0.00370922 0.00680861)
(0.14193 0.00272285 0.00500054)
(0.145765 0.000401555 0.001349)
(0.15118 -0.00275266 -0.00299462)
(0.155939 -0.00398846 -0.00392242)
(0.156246 -0.00166802 -0.00704732)
(0.153604 0.00175062 -0.00823577)
(0.149847 0.00441653 -0.00824693)
(0.146581 0.00526477 -0.00781009)
(0.14476 0.00473881 -0.00735698)
(0.144727 0.00377465 -0.00705988)
(0.146385 0.00278645 -0.00661693)
(0.149217 0.00164526 -0.00545878)
(0.152166 0.000253521 -0.00342604)
(0.153745 -0.0013559 -0.000996451)
(0.153117 -0.00345554 0.00133343)
(0.151073 -0.00624117 0.00344846)
(0.149471 -0.00890553 0.00545348)
(0.149706 -0.00992289 0.0069892)
(0.151164 -0.00851042 0.00723557)
(0.151521 -0.00507597 0.00596989)
(0.149137 -0.000623335 0.00409477)
(0.145024 0.00317902 0.00233532)
(0.14168 0.00445077 0.000308759)
(0.1404 0.00262964 -0.00212676)
(0.14128 -0.000880521 -0.00351974)
(0.143818 -0.00370712 -0.00218353)
(0.146455 -0.00396086 0.00161478)
(0.147549 -0.0010496 0.00546127)
(0.147239 0.00387946 0.00682718)
(0.147037 0.00843121 0.00484369)
(0.147586 0.010755 0.000401714)
(0.14799 0.0104293 -0.0045299)
(0.147468 0.00803216 -0.00784374)
(0.146181 0.00485303 -0.00830777)
(0.14465 0.00252217 -0.00594135)
(0.143252 0.00209074 -0.00179082)
(0.142053 0.00309643 0.00270375)
(0.140948 0.00388099 0.00658357)
(0.14008 0.00313813 0.0095387)
(0.14016 0.00102563 0.0110222)
(0.14228 -0.00139979 0.0100819)
(0.146788 -0.0033483 0.00637254)
(0.152202 -0.00440163 0.00102709)
(0.15785 3.59508e-05 0.00502748)
(0.160321 0.00302422 0.00047203)
(0.161224 0.00632827 -0.00382852)
(0.159655 0.00834527 -0.00742482)
(0.156038 0.00819795 -0.00988468)
(0.152024 0.00633227 -0.0108887)
(0.149305 0.00373748 -0.0106355)