/*--------------------------------*- C++ -*----------------------------------*\
| =========                 |                                                 |
| \\      /  F ield         | OpenFOAM: The Open Source CFD Toolbox           |
|  \\    /   O peration     | Version:  2306                                  |
|   \\  /    A nd           | Website:  www.openfoam.com                      |
|    \\/     M anipulation  |                                                 |
\*---------------------------------------------------------------------------*/
FoamFile
{
    version     2.0;
    format      ascii;
    arch        "LSB;label=32;scalar=64";
    class       volScalarField;
    location    "4";
    object      nut;
}
// * * * * * * * * * * * * * * * * * * * * * * * * * * * * * * * * * * * * * //

dimensions      [0 2 -1 0 0 0 0];

internalField   nonuniform List<scalar> 
60000
(
8.92436e-05
9.3464e-05
9.47695e-05
9.28822e-05
8.95703e-05
8.671e-05
8.45515e-05
8.254e-05
8.00695e-05
7.61545e-05
6.99633e-05
6.24698e-05
5.63106e-05
5.31706e-05
5.26785e-05
5.33298e-05
5.39204e-05
5.46057e-05
5.62675e-05
5.89776e-05
6.20901e-05
6.52745e-05
6.89705e-05
7.37366e-05
7.94411e-05
8.45798e-05
8.71571e-05
8.58597e-05
8.08165e-05
7.35486e-05
6.6747e-05
6.2076e-05
5.9201e-05
5.79224e-05
5.84448e-05
6.08025e-05
6.46291e-05
6.97574e-05
7.62064e-05
8.31313e-05
8.85444e-05
9.39675e-05
9.69993e-05
9.62437e-05
9.27539e-05
8.91869e-05
8.6806e-05
8.50627e-05
8.29344e-05
7.95725e-05
7.44552e-05
6.79534e-05
6.16471e-05
5.71083e-05
5.47422e-05
5.37272e-05
5.32909e-05
5.36633e-05
5.52155e-05
5.76872e-05
6.06905e-05
6.42969e-05
6.89562e-05
7.4671e-05
8.08666e-05
8.62146e-05
8.91482e-05
8.84182e-05
8.40783e-05
7.79494e-05
7.21332e-05
6.69878e-05
6.22846e-05
5.88422e-05
5.78372e-05
5.96137e-05
6.34233e-05
6.87366e-05
7.53143e-05
8.2127e-05
8.38923e-05
9.10534e-05
9.66498e-05
9.79613e-05
9.46204e-05
8.99939e-05
8.70098e-05
8.55959e-05
8.44113e-05
8.26355e-05
7.97715e-05
7.51031e-05
6.86262e-05
6.17475e-05
5.64136e-05
5.32241e-05
5.15636e-05
5.11827e-05
5.21104e-05
5.40202e-05
5.66093e-05
5.99507e-05
6.45077e-05
7.02454e-05
7.67487e-05
8.30906e-05
8.79033e-05
8.95993e-05
8.76994e-05
8.34949e-05
7.86562e-05
7.336e-05
6.71846e-05
6.09338e-05
5.66968e-05
5.609e-05
5.87013e-05
6.34497e-05
6.98047e-05
7.67434e-05
7.42462e-05
8.28321e-05
9.13979e-05
9.61236e-05
9.41868e-05
8.86487e-05
8.46602e-05
8.34639e-05
8.35055e-05
8.3679e-05
8.3538e-05
8.18243e-05
7.68639e-05
6.85734e-05
5.96374e-05
5.30445e-05
4.92485e-05
4.74766e-05
4.72753e-05
4.81766e-05
4.97198e-05
5.18404e-05
5.50116e-05
5.96035e-05
6.56918e-05
7.29702e-05
8.05463e-05
8.63948e-05
8.8754e-05
8.76784e-05
8.45424e-05
8.02228e-05
7.42526e-05
6.61831e-05
5.77914e-05
5.25799e-05
5.18818e-05
5.46953e-05
5.99961e-05
6.68166e-05
5.84041e-05
6.64422e-05
7.72867e-05
8.68567e-05
8.88344e-05
8.35443e-05
7.82787e-05
7.70809e-05
7.84414e-05
8.04722e-05
8.27515e-05
8.44831e-05
8.34627e-05
7.71539e-05
6.62277e-05
5.52887e-05
4.77791e-05
4.3571e-05
4.15721e-05
4.09085e-05
4.07132e-05
4.06361e-05
4.12434e-05
4.33967e-05
4.72945e-05
5.33229e-05
6.28467e-05
7.40813e-05
8.27955e-05
8.6823e-05
8.65199e-05
8.40002e-05
8.0269e-05
7.38531e-05
6.36781e-05
5.31384e-05
4.67128e-05
4.52554e-05
4.76389e-05
5.25116e-05
4.32056e-05
4.54105e-05
5.25092e-05
6.5513e-05
7.4597e-05
7.24824e-05
6.61394e-05
6.45968e-05
6.76052e-05
7.14053e-05
7.50865e-05
7.92373e-05
8.34145e-05
8.36315e-05
7.60003e-05
6.25715e-05
4.99809e-05
4.18097e-05
3.72695e-05
3.47475e-05
3.2887e-05
3.11346e-05
3.02791e-05
3.16432e-05
3.52323e-05
3.90031e-05
4.09755e-05
4.92849e-05
6.46573e-05
7.64941e-05
8.09307e-05
8.03366e-05
7.916e-05
7.76885e-05
7.19274e-05
6.07208e-05
4.87827e-05
4.15088e-05
4.01901e-05
4.16487e-05
3.77614e-05
3.85863e-05
4.04801e-05
4.06341e-05
4.99578e-05
5.34917e-05
4.65023e-05
4.34081e-05
4.91055e-05
5.58533e-05
6.01085e-05
6.40035e-05
7.12182e-05
8.03319e-05
8.32331e-05
7.44253e-05
5.86155e-05
4.50731e-05
3.70132e-05
3.27596e-05
3.04396e-05
2.9238e-05
2.87242e-05
2.82449e-05
2.85454e-05
3.39207e-05
4.01996e-05
3.67269e-05
3.73008e-05
5.35888e-05
6.45785e-05
6.57438e-05
6.54706e-05
6.89288e-05
7.17881e-05
6.87093e-05
5.91699e-05
4.70646e-05
3.94966e-05
3.82373e-05
3.32833e-05
3.0743e-05
3.59273e-05
3.84648e-05
3.12435e-05
3.53399e-05
2.99239e-05
1.92286e-05
2.30725e-05
3.52903e-05
4.13733e-05
4.02556e-05
4.26261e-05
5.78855e-05
7.63693e-05
8.29005e-05
7.24079e-05
5.49831e-05
4.18243e-05
3.49546e-05
3.23761e-05
3.28955e-05
3.51631e-05
3.63222e-05
3.33727e-05
2.6115e-05
2.8867e-05
3.81583e-05
3.23801e-05
2.87828e-05
3.73306e-05
3.40716e-05
2.79019e-05
3.3074e-05
4.74808e-05
6.01993e-05
6.4248e-05
5.89415e-05
4.67954e-05
3.74687e-05
3.2814e-05
2.57262e-05
2.26146e-05
3.15506e-05
3.10384e-05
2.59682e-05
2.98883e-05
1.62661e-05
9.15353e-06
1.52463e-05
2.45271e-05
2.50031e-05
1.61962e-05
2.03426e-05
4.50775e-05
7.32551e-05
8.14339e-05
6.91597e-05
5.17859e-05
3.98751e-05
3.48195e-05
3.53133e-05
3.95903e-05
4.4057e-05
4.51044e-05
3.89829e-05
2.47531e-05
2.4602e-05
3.17534e-05
2.12183e-05
1.56621e-05
2.36473e-05
2.82636e-05
3.18636e-05
2.97904e-05
3.41891e-05
4.83781e-05
5.75775e-05
5.59345e-05
4.40438e-05
3.97799e-05
2.73589e-05
2.16108e-05
2.14379e-05
2.88064e-05
2.55411e-05
2.9182e-05
3.06119e-05
1.08921e-05
1.53627e-05
1.31448e-05
1.88716e-05
1.83109e-05
1.09972e-05
1.97426e-05
4.04075e-05
7.04013e-05
7.67884e-05
6.41074e-05
4.77234e-05
3.73464e-05
3.55405e-05
4.04972e-05
4.86082e-05
5.36947e-05
5.20265e-05
3.95914e-05
2.07825e-05
2.2331e-05
2.25682e-05
1.84826e-05
3.03009e-05
3.00326e-05
2.85632e-05
3.45844e-05
3.3625e-05
3.15957e-05
3.87164e-05
4.87015e-05
5.04784e-05
4.65153e-05
3.42116e-05
2.43104e-05
2.36878e-05
2.34049e-05
2.76252e-05
2.55026e-05
2.97961e-05
2.63131e-05
3.92897e-06
1.98005e-05
1.10425e-05
2.00394e-05
1.77109e-05
1.63649e-05
2.46607e-05
3.81983e-05
6.3886e-05
6.83562e-05
5.63089e-05
4.08443e-05
3.26321e-05
3.52895e-05
4.6112e-05
5.78119e-05
6.1622e-05
5.29691e-05
3.21408e-05
1.68454e-05
2.0923e-05
2.0629e-05
2.83594e-05
3.05366e-05
2.2565e-05
1.51385e-05
2.04618e-05
2.64584e-05
2.81625e-05
3.09198e-05
4.32059e-05
4.2834e-05
4.14711e-05
2.99093e-05
2.80914e-05
2.7934e-05
2.45517e-05
2.71385e-05
2.21429e-05
2.24124e-05
1.70215e-05
5.43313e-06
1.94112e-05
1.13305e-05
1.84936e-05
1.23212e-05
2.18351e-05
2.55738e-05
3.20141e-05
5.03414e-05
5.21189e-05
4.07259e-05
2.56554e-05
2.31212e-05
3.32314e-05
4.79503e-05
6.16512e-05
6.10981e-05
4.46105e-05
2.41179e-05
2.00803e-05
1.96888e-05
2.23283e-05
2.89848e-05
3.32961e-05
3.1489e-05
2.23579e-05
1.62329e-05
2.28755e-05
2.39262e-05
2.73177e-05
2.88489e-05
4.04555e-05
3.53769e-05
3.09203e-05
3.28531e-05
2.70861e-05
2.30695e-05
2.27434e-05
1.42477e-05
1.58759e-05
1.01942e-05
1.03978e-05
1.76373e-05
1.2882e-05
1.63558e-05
1.24709e-05
2.41204e-05
2.40325e-05
1.79775e-05
2.28882e-05
2.58752e-05
2.61889e-05
2.29448e-05
2.69719e-05
2.91107e-05
4.46988e-05
5.77108e-05
5.10102e-05
3.37248e-05
2.4924e-05
2.10332e-05
1.80545e-05
2.22234e-05
3.10174e-05
3.98126e-05
4.01633e-05
3.20625e-05
2.44519e-05
2.53709e-05
1.78326e-05
1.242e-05
2.82322e-05
3.50429e-05
3.38923e-05
3.63202e-05
3.3224e-05
2.49923e-05
2.14705e-05
1.54744e-05
1.07011e-05
1.29233e-05
8.58437e-06
1.41983e-05
1.55009e-05
1.496e-05
1.69186e-05
1.63499e-05
2.81455e-05
3.34274e-05
2.3363e-05
1.22722e-05
2.60674e-05
2.94795e-05
2.25296e-05
2.22195e-05
2.21955e-05
4.17752e-05
4.79848e-05
3.72969e-05
2.87765e-05
2.4215e-05
1.76454e-05
1.51115e-05
1.76332e-05
2.72258e-05
3.7246e-05
3.90937e-05
3.21697e-05
2.61665e-05
2.26967e-05
1.90211e-05
1.19468e-05
2.62901e-05
3.3457e-05
3.76865e-05
3.65392e-05
3.14662e-05
2.7184e-05
1.97272e-05
1.06804e-05
1.24743e-05
1.37375e-05
1.24398e-05
1.43819e-05
1.35687e-05
1.80409e-05
2.09477e-05
2.11889e-05
2.19714e-05
1.90585e-05
1.76702e-05
2.2727e-05
2.98157e-05
2.78768e-05
1.93282e-05
1.60293e-05
2.6261e-05
4.04637e-05
3.64098e-05
2.81332e-05
2.37679e-05
1.60199e-05
1.21728e-05
1.4439e-05
1.2452e-05
1.51991e-05
2.24362e-05
2.30103e-05
1.93695e-05
2.31815e-05
2.78876e-05
2.23945e-05
1.79571e-05
2.85317e-05
3.53267e-05
3.48563e-05
3.18931e-05
3.2345e-05
2.57631e-05
1.37269e-05
9.16737e-06
1.5139e-05
1.54576e-05
1.26863e-05
1.14405e-05
1.44185e-05
1.96005e-05
2.15397e-05
1.89488e-05
1.7475e-05
2.11382e-05
2.16743e-05
2.39848e-05
3.05688e-05
2.48254e-05
1.28361e-05
1.88799e-05
3.53696e-05
3.63014e-05
2.80901e-05
2.00922e-05
1.65686e-05
2.16461e-05
2.26678e-05
1.94487e-05
1.68941e-05
1.62415e-05
1.65825e-05
1.8301e-05
2.27442e-05
2.86842e-05
3.11018e-05
2.85675e-05
2.62875e-05
2.86116e-05
2.82918e-05
2.55783e-05
3.11397e-05
3.03907e-05
1.93495e-05
7.58759e-06
8.19318e-06
1.24799e-05
1.24538e-05
1.25812e-05
1.37694e-05
1.27033e-05
1.57965e-05
2.10608e-05
2.24022e-05
2.20558e-05
1.87563e-05
1.84528e-05
2.82954e-05
3.02715e-05
1.665e-05
6.26358e-06
2.43309e-05
3.31818e-05
3.10426e-05
2.25321e-05
1.88574e-05
1.95209e-05
1.79813e-05
1.67335e-05
1.47591e-05
1.1982e-05
1.49338e-05
2.25619e-05
2.62972e-05
2.83851e-05
2.68605e-05
2.83674e-05
3.11277e-05
3.10676e-05
2.4104e-05
1.73521e-05
2.34909e-05
3.07094e-05
2.8466e-05
1.95826e-05
9.51206e-06
7.21753e-06
9.66356e-06
1.14633e-05
1.36892e-05
1.68424e-05
2.29547e-05
2.60024e-05
2.38632e-05
2.11636e-05
1.7465e-05
1.51566e-05
2.43403e-05
3.11636e-05
2.27359e-05
5.5722e-06
1.49073e-05
2.46475e-05
2.78714e-05
2.60812e-05
2.12008e-05
1.42523e-05
1.35294e-05
2.08774e-05
2.05185e-05
1.15967e-05
1.4917e-05
2.58717e-05
3.00268e-05
2.18079e-05
2.07615e-05
2.17119e-05
2.39947e-05
2.68526e-05
2.32475e-05
1.60281e-05
1.57113e-05
1.88819e-05
2.20279e-05
2.36935e-05
2.31621e-05
2.01507e-05
1.30448e-05
5.07204e-06
1.38634e-05
2.53116e-05
3.15172e-05
2.74603e-05
2.02033e-05
2.2292e-05
2.1272e-05
1.33252e-05
2.05162e-05
3.67663e-05
3.65723e-05
1.63521e-05
1.62932e-05
2.96366e-05
3.26792e-05
3.28564e-05
3.32917e-05
3.30582e-05
2.89722e-05
2.34446e-05
2.25703e-05
2.0374e-05
1.56619e-05
1.95729e-05
2.34372e-05
2.3794e-05
2.21183e-05
1.87563e-05
1.70422e-05
1.76535e-05
1.75339e-05
1.82298e-05
2.16154e-05
2.01632e-05
1.4128e-05
1.43259e-05
1.68188e-05
1.99533e-05
2.3235e-05
2.15262e-05
1.68483e-05
1.95492e-05
2.7597e-05
2.93491e-05
2.33231e-05
2.26547e-05
2.55879e-05
2.1897e-05
1.28536e-05
1.57205e-05
2.51813e-05
1.78958e-05
9.75011e-06
3.06963e-05
3.98269e-05
4.5204e-05
5.05035e-05
4.97394e-05
4.18932e-05
3.09976e-05
2.12724e-05
1.57066e-05
1.28548e-05
1.55657e-05
2.14452e-05
2.41935e-05
2.34856e-05
2.01885e-05
1.81192e-05
1.54106e-05
1.4025e-05
1.768e-05
1.96417e-05
1.64045e-05
1.07404e-05
1.23348e-05
1.80292e-05
1.94006e-05
1.74014e-05
1.72215e-05
1.94943e-05
1.8681e-05
1.19344e-05
6.76125e-06
9.49355e-06
1.48779e-05
2.34178e-05
2.66141e-05
2.3147e-05
1.51287e-05
9.30028e-06
1.1855e-05
7.11987e-06
2.38917e-05
3.83948e-05
4.50392e-05
4.54741e-05
4.02295e-05
3.35602e-05
2.93436e-05
2.74903e-05
2.5643e-05
2.29606e-05
2.14117e-05
2.21317e-05
2.44714e-05
2.08225e-05
1.50526e-05
1.49434e-05
2.03215e-05
2.15614e-05
2.21105e-05
2.3224e-05
2.16971e-05
1.71306e-05
1.17858e-05
7.53382e-06
7.28881e-06
1.16573e-05
1.36773e-05
1.13429e-05
1.11142e-05
1.62786e-05
1.94816e-05
1.65374e-05
1.62645e-05
2.49143e-05
3.21757e-05
3.25621e-05
2.60347e-05
1.76167e-05
1.29462e-05
1.24214e-05
2.11087e-05
3.20195e-05
3.48304e-05
3.02765e-05
2.33328e-05
1.9526e-05
1.99596e-05
2.46792e-05
2.96475e-05
3.03732e-05
2.84981e-05
2.67317e-05
1.33685e-05
1.14976e-05
1.18714e-05
1.2885e-05
1.29409e-05
1.09831e-05
9.49918e-06
1.29583e-05
1.50536e-05
1.42295e-05
1.65143e-05
1.98501e-05
1.93051e-05
1.49519e-05
1.13627e-05
1.35368e-05
1.45445e-05
1.21606e-05
1.37951e-05
1.89277e-05
1.86515e-05
1.97638e-05
2.84154e-05
3.38021e-05
3.11062e-05
2.303e-05
1.58183e-05
1.40013e-05
1.69038e-05
2.15306e-05
2.25184e-05
2.12333e-05
2.04016e-05
1.80791e-05
1.36443e-05
1.18454e-05
1.87982e-05
2.40426e-05
2.26145e-05
1.76267e-05
1.29151e-05
1.2614e-05
1.2157e-05
1.06412e-05
9.00316e-06
8.98016e-06
1.13082e-05
1.50811e-05
1.70192e-05
1.81349e-05
2.20648e-05
2.4368e-05
2.05637e-05
1.42847e-05
1.19739e-05
1.2306e-05
1.17736e-05
8.25152e-06
7.45193e-06
1.28121e-05
1.63322e-05
1.83058e-05
1.89499e-05
1.62802e-05
1.06196e-05
7.87794e-06
9.88579e-06
1.14959e-05
1.28317e-05
1.45079e-05
1.60474e-05
1.77084e-05
1.76256e-05
1.43278e-05
9.82949e-06
8.01275e-06
8.8463e-06
1.0081e-05
1.11189e-05
1.21932e-05
1.35142e-05
1.45018e-05
1.49689e-05
1.34577e-05
1.00337e-05
8.90509e-06
1.08213e-05
1.32239e-05
1.34363e-05
1.06411e-05
7.90119e-06
9.12889e-06
9.99151e-06
9.55857e-06
1.07123e-05
1.49846e-05
2.06642e-05
2.40927e-05
2.2513e-05
1.86641e-05
1.83239e-05
2.06523e-05
2.39034e-05
2.67624e-05
2.51971e-05
1.77942e-05
7.50404e-06
3.36622e-06
9.03193e-06
1.26292e-05
1.70307e-05
2.10873e-05
2.28492e-05
2.10649e-05
1.58227e-05
1.22216e-05
1.27508e-05
1.02899e-05
5.6212e-06
9.75636e-06
7.19307e-05
7.64782e-05
8.02669e-05
8.38093e-05
8.64884e-05
8.74167e-05
8.6571e-05
8.49102e-05
8.31988e-05
8.09214e-05
7.72151e-05
7.2562e-05
6.86041e-05
6.61921e-05
6.48948e-05
6.38445e-05
6.28673e-05
6.26875e-05
6.40414e-05
6.67243e-05
6.98734e-05
7.2881e-05
7.60891e-05
8.0244e-05
8.53289e-05
8.97175e-05
9.10967e-05
8.86969e-05
8.36595e-05
7.77303e-05
7.22821e-05
6.74857e-05
6.24349e-05
5.75155e-05
5.43994e-05
5.33422e-05
5.36425e-05
5.55393e-05
5.99523e-05
6.60864e-05
6.98633e-05
7.49529e-05
8.00212e-05
8.48221e-05
8.8509e-05
9.02829e-05
9.00393e-05
8.84542e-05
8.63683e-05
8.40223e-05
8.10776e-05
7.74364e-05
7.36531e-05
7.05119e-05
6.80328e-05
6.57396e-05
6.38824e-05
6.32784e-05
6.42447e-05
6.63114e-05
6.88987e-05
7.18971e-05
7.58294e-05
8.12086e-05
8.74958e-05
9.26064e-05
9.44081e-05
9.26687e-05
8.81898e-05
8.22661e-05
7.70065e-05
7.29342e-05
6.81517e-05
6.17544e-05
5.59044e-05
5.27683e-05
5.24471e-05
5.46481e-05
5.89985e-05
6.44721e-05
6.51984e-05
7.104e-05
7.70351e-05
8.27032e-05
8.72931e-05
9.01512e-05
9.09169e-05
8.99004e-05
8.80295e-05
8.6332e-05
8.49098e-05
8.27798e-05
7.92723e-05
7.52152e-05
7.15343e-05
6.80556e-05
6.48784e-05
6.28321e-05
6.23897e-05
6.3255e-05
6.49659e-05
6.73927e-05
7.10265e-05
7.64937e-05
8.34497e-05
8.99502e-05
9.38426e-05
9.46822e-05
9.25271e-05
8.76196e-05
8.25659e-05
7.94484e-05
7.6112e-05
6.91691e-05
5.97841e-05
5.27246e-05
5.00619e-05
5.10621e-05
5.45832e-05
5.95984e-05
5.80627e-05
6.44497e-05
7.09914e-05
7.71294e-05
8.21944e-05
8.59541e-05
8.8013e-05
8.81603e-05
8.70445e-05
8.62114e-05
8.65131e-05
8.66253e-05
8.45193e-05
8.02412e-05
7.55692e-05
7.103e-05
6.63592e-05
6.21915e-05
5.94283e-05
5.82108e-05
5.81821e-05
5.90212e-05
6.10137e-05
6.50788e-05
7.15952e-05
7.93053e-05
8.60361e-05
9.09442e-05
9.32603e-05
9.13275e-05
8.69774e-05
8.46256e-05
8.37986e-05
7.89636e-05
6.77514e-05
5.56014e-05
4.82905e-05
4.63176e-05
4.81218e-05
5.23622e-05
4.84682e-05
5.45409e-05
6.09634e-05
6.70913e-05
7.20117e-05
7.58591e-05
7.89842e-05
8.08424e-05
8.12008e-05
8.1277e-05
8.27434e-05
8.51997e-05
8.60356e-05
8.34997e-05
7.89208e-05
7.39071e-05
6.82606e-05
6.21022e-05
5.65987e-05
5.24983e-05
4.96201e-05
4.75015e-05
4.62812e-05
4.72605e-05
5.14452e-05
5.85346e-05
6.71689e-05
7.64183e-05
8.51337e-05
8.93483e-05
8.75277e-05
8.54572e-05
8.69783e-05
8.69814e-05
7.87971e-05
6.41169e-05
5.08117e-05
4.32971e-05
4.14251e-05
4.36456e-05
3.80002e-05
4.17262e-05
4.67193e-05
5.23075e-05
5.67748e-05
5.93654e-05
6.20626e-05
6.54971e-05
6.82294e-05
6.96221e-05
7.12424e-05
7.45462e-05
7.86976e-05
8.06534e-05
7.89402e-05
7.49899e-05
6.95523e-05
6.26005e-05
5.51545e-05
4.83767e-05
4.24198e-05
3.71321e-05
3.345e-05
3.26791e-05
3.48184e-05
3.78986e-05
4.1492e-05
4.92249e-05
6.30688e-05
7.63789e-05
8.08608e-05
7.9401e-05
8.15815e-05
8.70103e-05
8.66786e-05
7.64619e-05
6.11717e-05
4.73034e-05
3.86571e-05
3.63318e-05
3.14179e-05
3.08243e-05
3.1954e-05
3.55341e-05
3.98698e-05
4.09989e-05
3.95338e-05
4.12358e-05
4.64075e-05
5.01669e-05
5.10914e-05
5.22086e-05
5.71115e-05
6.49504e-05
7.04806e-05
7.13594e-05
6.83366e-05
6.23651e-05
5.47684e-05
4.69271e-05
3.95318e-05
3.31642e-05
2.89465e-05
2.68445e-05
2.72124e-05
2.98649e-05
2.98089e-05
2.74801e-05
3.27141e-05
4.98698e-05
6.35932e-05
6.49871e-05
6.53705e-05
7.36448e-05
8.24776e-05
8.31587e-05
7.51442e-05
6.17887e-05
4.60299e-05
3.51149e-05
3.16645e-05
2.74247e-05
2.59394e-05
2.58041e-05
2.67186e-05
2.93621e-05
2.65962e-05
2.01132e-05
2.05359e-05
2.64834e-05
2.92825e-05
2.64816e-05
2.48737e-05
3.22688e-05
4.66937e-05
5.82794e-05
6.25489e-05
6.0174e-05
5.38459e-05
4.63418e-05
3.96409e-05
3.53551e-05
3.4976e-05
3.68692e-05
3.54581e-05
3.07254e-05
2.78991e-05
2.28152e-05
1.9766e-05
2.50143e-05
3.96265e-05
4.34345e-05
3.58557e-05
3.9832e-05
5.71719e-05
7.25051e-05
7.89418e-05
7.71122e-05
6.41321e-05
4.41597e-05
3.88843e-05
2.83484e-05
2.65656e-05
2.73079e-05
2.4517e-05
2.17619e-05
2.46204e-05
1.89382e-05
1.02658e-05
1.20673e-05
1.56465e-05
1.70803e-05
9.22186e-06
9.50229e-06
1.59962e-05
3.35751e-05
4.98155e-05
5.58788e-05
5.269e-05
4.5107e-05
3.86241e-05
3.59187e-05
3.76703e-05
4.30895e-05
4.68668e-05
4.17593e-05
3.30137e-05
2.57535e-05
1.737e-05
1.83438e-05
2.1344e-05
2.44831e-05
1.39402e-05
1.75285e-05
1.864e-05
3.47992e-05
5.92667e-05
7.62825e-05
7.9186e-05
6.176e-05
5.35455e-05
3.24559e-05
2.53985e-05
2.75069e-05
3.06719e-05
2.41791e-05
1.9205e-05
2.24672e-05
1.38735e-05
1.31024e-05
1.95862e-05
1.79087e-05
1.61437e-05
1.08957e-05
1.89318e-05
1.57746e-05
2.67538e-05
4.51289e-05
5.05358e-05
4.44071e-05
3.58408e-05
3.12614e-05
3.09195e-05
3.57679e-05
4.39957e-05
4.6951e-05
3.79053e-05
2.89762e-05
2.07211e-05
1.48555e-05
1.53845e-05
1.60941e-05
2.0026e-05
1.93102e-05
3.02403e-05
2.47381e-05
2.10399e-05
5.04338e-05
7.58659e-05
7.6251e-05
6.66299e-05
4.24613e-05
2.5163e-05
2.23652e-05
2.904e-05
3.19779e-05
2.29173e-05
1.75124e-05
1.88638e-05
1.23996e-05
2.10264e-05
2.48424e-05
1.72486e-05
1.46599e-05
1.76445e-05
2.76201e-05
2.00326e-05
2.13602e-05
3.77773e-05
4.02997e-05
3.19917e-05
2.36434e-05
1.9637e-05
2.32188e-05
3.33442e-05
4.23964e-05
3.98132e-05
2.93818e-05
2.21334e-05
1.32584e-05
1.07585e-05
1.66141e-05
2.57439e-05
2.9946e-05
1.99587e-05
2.57916e-05
2.90292e-05
1.93287e-05
5.00678e-05
7.52803e-05
6.95157e-05
5.26245e-05
3.17473e-05
2.04984e-05
2.20601e-05
2.91725e-05
2.94045e-05
2.01371e-05
1.81733e-05
1.75502e-05
1.37217e-05
2.01688e-05
2.21451e-05
1.89608e-05
1.64406e-05
2.17165e-05
2.9828e-05
2.04417e-05
1.28883e-05
2.36748e-05
2.47775e-05
1.96395e-05
1.47032e-05
1.73026e-05
2.40413e-05
3.0779e-05
3.48157e-05
2.68596e-05
2.09803e-05
1.48116e-05
7.17496e-06
1.34278e-05
2.16824e-05
3.12882e-05
3.74862e-05
2.52279e-05
2.35092e-05
3.09236e-05
1.89421e-05
5.61743e-05
6.04874e-05
5.93716e-05
4.08743e-05
2.61236e-05
2.17747e-05
2.34328e-05
2.64245e-05
2.31778e-05
1.81765e-05
1.86831e-05
1.50461e-05
1.30004e-05
1.97192e-05
2.31324e-05
2.00771e-05
1.46119e-05
2.02048e-05
2.69883e-05
2.32057e-05
1.29218e-05
1.08055e-05
1.96008e-05
1.97044e-05
1.43525e-05
1.87424e-05
1.94036e-05
2.31261e-05
2.31713e-05
1.75039e-05
1.70843e-05
1.27036e-05
1.07089e-05
1.65765e-05
2.13527e-05
2.59619e-05
3.33983e-05
2.46092e-05
2.88038e-05
2.4491e-05
2.6092e-05
3.94654e-05
5.92374e-05
5.15556e-05
3.70947e-05
2.94841e-05
2.58913e-05
2.30289e-05
2.07487e-05
1.72237e-05
1.81311e-05
1.80682e-05
1.54781e-05
1.88815e-05
2.4389e-05
2.32879e-05
1.59959e-05
9.45593e-06
1.98822e-05
2.80213e-05
2.25598e-05
1.79455e-05
2.2413e-05
2.14519e-05
1.72301e-05
1.01079e-05
1.25688e-05
1.31999e-05
2.04752e-05
1.52131e-05
1.69136e-05
1.78185e-05
1.52706e-05
1.11472e-05
1.38668e-05
1.5697e-05
1.79766e-05
2.45118e-05
2.22822e-05
2.78089e-05
6.97052e-06
1.46526e-05
4.92046e-05
6.04725e-05
5.20874e-05
4.1395e-05
3.53559e-05
2.9785e-05
2.45334e-05
1.92358e-05
1.87142e-05
2.09737e-05
2.13769e-05
2.16326e-05
2.37501e-05
2.28655e-05
1.85249e-05
1.44033e-05
1.52395e-05
1.77393e-05
1.96407e-05
2.54374e-05
2.45329e-05
1.51805e-05
1.46417e-05
1.38157e-05
1.10098e-05
1.18731e-05
2.06887e-05
1.88624e-05
1.56748e-05
1.8305e-05
1.64772e-05
1.18588e-05
9.16809e-06
9.47179e-06
1.30855e-05
1.86323e-05
1.89673e-05
2.00059e-05
1.81569e-05
1.37799e-05
2.44704e-05
5.57599e-05
6.73322e-05
6.09575e-05
5.02228e-05
4.01696e-05
3.1371e-05
2.36926e-05
1.91647e-05
2.16079e-05
2.57695e-05
2.63177e-05
2.30529e-05
2.01457e-05
1.81273e-05
1.54527e-05
1.36686e-05
1.7352e-05
2.29489e-05
2.60226e-05
2.0355e-05
9.06999e-06
1.05017e-05
1.39461e-05
1.24764e-05
1.27031e-05
1.94206e-05
2.31813e-05
1.77847e-05
1.51571e-05
1.35404e-05
1.24905e-05
1.38706e-05
1.70745e-05
1.42414e-05
1.48708e-05
2.27436e-05
2.26442e-05
2.25859e-05
2.29488e-05
1.86327e-05
2.63356e-05
5.2372e-05
6.76315e-05
6.51924e-05
5.12076e-05
3.3842e-05
2.15518e-05
1.552e-05
1.56386e-05
2.00242e-05
2.52968e-05
2.51915e-05
2.19855e-05
2.09066e-05
1.75637e-05
1.16449e-05
1.17179e-05
1.5941e-05
1.71286e-05
1.3009e-05
1.0277e-05
1.60598e-05
2.02776e-05
1.86963e-05
1.50238e-05
1.45883e-05
2.01111e-05
2.13779e-05
1.76607e-05
1.47769e-05
1.40523e-05
1.62054e-05
1.76352e-05
1.84436e-05
1.84567e-05
2.34682e-05
2.61506e-05
2.32623e-05
2.09532e-05
1.98263e-05
2.3894e-05
2.45556e-05
3.62087e-05
5.23384e-05
5.50525e-05
4.17718e-05
2.34185e-05
1.16178e-05
1.32073e-05
1.53646e-05
1.36819e-05
1.60948e-05
2.33022e-05
2.6406e-05
2.33809e-05
1.91487e-05
1.86873e-05
1.5928e-05
9.66011e-06
7.99374e-06
1.12039e-05
1.81209e-05
2.75123e-05
3.07463e-05
2.39643e-05
1.57741e-05
1.64277e-05
2.04878e-05
2.3473e-05
2.35686e-05
1.89498e-05
1.49784e-05
1.62813e-05
1.76264e-05
2.1087e-05
2.77728e-05
3.05777e-05
2.71923e-05
1.80555e-05
1.30711e-05
1.59308e-05
2.3862e-05
2.38595e-05
2.04356e-05
3.73124e-05
4.64824e-05
3.92347e-05
2.54154e-05
1.23127e-05
4.61205e-06
9.38529e-06
1.34347e-05
1.52548e-05
2.00459e-05
2.85932e-05
3.51786e-05
3.40465e-05
2.43552e-05
1.52955e-05
1.50141e-05
1.60471e-05
1.4634e-05
1.77009e-05
2.67832e-05
2.87151e-05
2.12215e-05
2.09623e-05
2.63028e-05
3.1397e-05
3.39647e-05
3.06974e-05
2.21207e-05
1.469e-05
1.8313e-05
2.51725e-05
2.8478e-05
2.71038e-05
2.31409e-05
2.26862e-05
2.01384e-05
1.53835e-05
1.50585e-05
2.06162e-05
2.29458e-05
1.6628e-05
1.62212e-05
2.21426e-05
2.03137e-05
1.7756e-05
1.81214e-05
1.58381e-05
1.3112e-05
1.70251e-05
2.30329e-05
3.05483e-05
3.84832e-05
3.73524e-05
2.39835e-05
1.08594e-05
1.45336e-05
1.80386e-05
1.94725e-05
1.90956e-05
1.36892e-05
1.50352e-05
1.94499e-05
2.41553e-05
2.97115e-05
3.09658e-05
3.00682e-05
2.99139e-05
2.8597e-05
2.28371e-05
1.55703e-05
1.55511e-05
1.70831e-05
1.73277e-05
2.04168e-05
1.96464e-05
1.92328e-05
1.63609e-05
1.50587e-05
1.43234e-05
1.24451e-05
1.29999e-05
1.60099e-05
1.54366e-05
9.90216e-06
7.91443e-06
1.29214e-05
1.52727e-05
1.71329e-05
2.22347e-05
2.74558e-05
2.78609e-05
2.48746e-05
2.42473e-05
2.07441e-05
1.13357e-05
1.29657e-05
2.14306e-05
2.62524e-05
2.74287e-05
2.4039e-05
1.9e-05
1.86839e-05
2.20121e-05
2.5246e-05
2.24625e-05
1.87598e-05
2.43014e-05
3.15623e-05
3.29963e-05
2.80517e-05
2.06178e-05
1.39152e-05
1.25125e-05
1.6573e-05
1.4628e-05
1.2749e-05
1.42401e-05
1.54774e-05
1.22764e-05
1.37777e-05
2.12416e-05
2.60658e-05
2.58364e-05
2.12771e-05
1.45509e-05
7.69297e-06
7.93184e-06
1.28958e-05
1.51883e-05
1.68093e-05
1.9403e-05
1.87166e-05
1.35096e-05
9.94748e-06
6.955e-06
3.93152e-06
1.50847e-05
2.46665e-05
2.85812e-05
2.71201e-05
2.21783e-05
1.93846e-05
2.03016e-05
2.09512e-05
1.77141e-05
1.44797e-05
1.75434e-05
2.25383e-05
2.64545e-05
2.90253e-05
2.93926e-05
2.64832e-05
2.16027e-05
1.75379e-05
1.13635e-05
1.06969e-05
9.54019e-06
1.06364e-05
1.31884e-05
1.36444e-05
1.45591e-05
1.85584e-05
2.2705e-05
2.38161e-05
2.12944e-05
1.95054e-05
2.12004e-05
2.3483e-05
2.48687e-05
2.45014e-05
2.10194e-05
1.71161e-05
1.40995e-05
1.01884e-05
6.47888e-06
5.88568e-06
7.42384e-06
1.115e-05
1.80873e-05
2.26853e-05
2.12132e-05
1.84451e-05
1.84523e-05
1.60551e-05
1.25885e-05
1.28528e-05
1.12295e-05
6.29001e-06
6.62402e-06
1.00478e-05
1.44992e-05
1.78213e-05
1.634e-05
1.26263e-05
1.08108e-05
9.37898e-06
9.82942e-06
1.26204e-05
1.37107e-05
1.1312e-05
8.34872e-06
1.13449e-05
1.49758e-05
1.47157e-05
1.39293e-05
1.47551e-05
1.34383e-05
1.03562e-05
9.3411e-06
1.17709e-05
1.55596e-05
1.63241e-05
1.36243e-05
1.18018e-05
1.14617e-05
1.2994e-05
1.89268e-05
2.41047e-05
2.44815e-05
2.1528e-05
1.75051e-05
1.30412e-05
1.10145e-05
1.32186e-05
1.68402e-05
1.88383e-05
1.70318e-05
1.19431e-05
8.71965e-06
1.00856e-05
1.10798e-05
1.0482e-05
9.86684e-06
1.07737e-05
1.82995e-05
1.84489e-05
1.71406e-05
1.78769e-05
2.12336e-05
2.34719e-05
2.38727e-05
2.41797e-05
2.33335e-05
1.91458e-05
1.26858e-05
1.07367e-05
1.3692e-05
1.35672e-05
1.04816e-05
1.0901e-05
1.58387e-05
1.86142e-05
1.81498e-05
1.71398e-05
1.61122e-05
1.54343e-05
2.14214e-05
2.81447e-05
2.72664e-05
2.15666e-05
1.80826e-05
1.6331e-05
1.6257e-05
2.02996e-05
2.59358e-05
2.72972e-05
2.3173e-05
1.89611e-05
1.44929e-05
8.73995e-06
7.88934e-06
7.38327e-06
7.58876e-06
1.41512e-05
5.24582e-05
5.72918e-05
6.18146e-05
6.57695e-05
6.90186e-05
7.0858e-05
7.10757e-05
7.02918e-05
6.93068e-05
6.80255e-05
6.61385e-05
6.42669e-05
6.34367e-05
6.37958e-05
6.47255e-05
6.56135e-05
6.64813e-05
6.79185e-05
7.0209e-05
7.26614e-05
7.43138e-05
7.51687e-05
7.58645e-05
7.73305e-05
8.02307e-05
8.37642e-05
8.61479e-05
8.64277e-05
8.47138e-05
8.15283e-05
7.67907e-05
6.97825e-05
6.04994e-05
5.1968e-05
4.69359e-05
4.458e-05
4.35442e-05
4.35988e-05
4.50915e-05
4.81672e-05
5.03565e-05
5.52694e-05
6.07478e-05
6.63067e-05
7.11522e-05
7.42941e-05
7.54281e-05
7.4999e-05
7.36305e-05
7.17607e-05
6.98589e-05
6.83953e-05
6.75981e-05
6.73084e-05
6.72384e-05
6.71846e-05
6.74616e-05
6.86525e-05
7.07162e-05
7.28585e-05
7.43486e-05
7.52962e-05
7.64116e-05
7.8643e-05
8.23475e-05
8.63862e-05
8.918e-05
8.99489e-05
8.84799e-05
8.56379e-05
8.21693e-05
7.71537e-05
6.89276e-05
5.85663e-05
5.00005e-05
4.51448e-05
4.29827e-05
4.26848e-05
4.38296e-05
4.64095e-05
4.64534e-05
5.16876e-05
5.80354e-05
6.47988e-05
7.11011e-05
7.58427e-05
7.84599e-05
7.90384e-05
7.80301e-05
7.62832e-05
7.47372e-05
7.3618e-05
7.26136e-05
7.15305e-05
7.03781e-05
6.90749e-05
6.78764e-05
6.75799e-05
6.84884e-05
6.99846e-05
7.12843e-05
7.22211e-05
7.33806e-05
7.57414e-05
7.97796e-05
8.45507e-05
8.85977e-05
9.09914e-05
9.08014e-05
8.89733e-05
8.7383e-05
8.55801e-05
8.0188e-05
6.88246e-05
5.54267e-05
4.61891e-05
4.18708e-05
4.04351e-05
4.0718e-05
4.27054e-05
4.15746e-05
4.67645e-05
5.33797e-05
6.07186e-05
6.80439e-05
7.43413e-05
7.88495e-05
8.12067e-05
8.1433e-05
8.04198e-05
7.95838e-05
7.92314e-05
7.85575e-05
7.71243e-05
7.51688e-05
7.25879e-05
6.92529e-05
6.61367e-05
6.44282e-05
6.41837e-05
6.45535e-05
6.49434e-05
6.56731e-05
6.76442e-05
7.16076e-05
7.70223e-05
8.2642e-05
8.75482e-05
8.97435e-05
8.92072e-05
8.91026e-05
9.07501e-05
9.03608e-05
8.16146e-05
6.48591e-05
4.95617e-05
4.13213e-05
3.78516e-05
3.69133e-05
3.81928e-05
3.60942e-05
4.06975e-05
4.66626e-05
5.34584e-05
6.05579e-05
6.7545e-05
7.37377e-05
7.84697e-05
8.10144e-05
8.15462e-05
8.1724e-05
8.26106e-05
8.33011e-05
8.26691e-05
8.0887e-05
7.79413e-05
7.29473e-05
6.64086e-05
6.04727e-05
5.6566e-05
5.42977e-05
5.27807e-05
5.20602e-05
5.29268e-05
5.63461e-05
6.19094e-05
6.85968e-05
7.63547e-05
8.25206e-05
8.39327e-05
8.41569e-05
8.81921e-05
9.41623e-05
9.29824e-05
7.83502e-05
5.77887e-05
4.33999e-05
3.64643e-05
3.34932e-05
3.34875e-05
3.09121e-05
3.47493e-05
3.93839e-05
4.41998e-05
4.89923e-05
5.42863e-05
6.04041e-05
6.7157e-05
7.29355e-05
7.61353e-05
7.76667e-05
7.9681e-05
8.24354e-05
8.42274e-05
8.43988e-05
8.29201e-05
7.82888e-05
6.96988e-05
5.94149e-05
5.04767e-05
4.3651e-05
3.83909e-05
3.52157e-05
3.51842e-05
3.85271e-05
4.34861e-05
4.78603e-05
5.49556e-05
6.6142e-05
7.17526e-05
7.0898e-05
7.42415e-05
8.58417e-05
9.61695e-05
9.15728e-05
7.14817e-05
5.04208e-05
3.81033e-05
3.19233e-05
2.95875e-05
2.69553e-05
3.01497e-05
3.39777e-05
3.67138e-05
3.83667e-05
3.92675e-05
4.08155e-05
4.54234e-05
5.28922e-05
5.97265e-05
6.35007e-05
6.59967e-05
6.99908e-05
7.49262e-05
7.90238e-05
8.15663e-05
8.04935e-05
7.32305e-05
6.11514e-05
4.84957e-05
3.77215e-05
2.9272e-05
2.45625e-05
2.46593e-05
2.86575e-05
3.44703e-05
3.7482e-05
3.49368e-05
4.05963e-05
5.27257e-05
5.11252e-05
4.76091e-05
6.02548e-05
8.30525e-05
9.56169e-05
8.62899e-05
6.35932e-05
4.44832e-05
3.39004e-05
2.8112e-05
2.5558e-05
2.63339e-05
3.01332e-05
3.23538e-05
3.27791e-05
3.14456e-05
2.87837e-05
2.81318e-05
3.06686e-05
3.47808e-05
3.88106e-05
4.04088e-05
4.18005e-05
4.65104e-05
5.47175e-05
6.45911e-05
7.12388e-05
6.99582e-05
6.03851e-05
4.75844e-05
3.69956e-05
3.01145e-05
2.58455e-05
2.36401e-05
2.46072e-05
2.97051e-05
3.38731e-05
3.2846e-05
2.71757e-05
3.17145e-05
3.55064e-05
2.03218e-05
2.03573e-05
4.60247e-05
7.97091e-05
9.19524e-05
7.97084e-05
5.73028e-05
4.07023e-05
3.11231e-05
2.99973e-05
2.42659e-05
2.57655e-05
2.93251e-05
3.12112e-05
3.05374e-05
2.80204e-05
2.40279e-05
2.38151e-05
2.46572e-05
2.28679e-05
2.06676e-05
1.87151e-05
2.21314e-05
2.55284e-05
2.74598e-05
4.04292e-05
5.21136e-05
5.15177e-05
4.25477e-05
3.46695e-05
3.29697e-05
3.53954e-05
3.71259e-05
3.50572e-05
3.25001e-05
3.62049e-05
3.41232e-05
2.71268e-05
2.33238e-05
2.71265e-05
2.09191e-05
1.31835e-05
2.07815e-05
3.81725e-05
7.61485e-05
8.80476e-05
7.50321e-05
5.35008e-05
3.92917e-05
3.95211e-05
2.97448e-05
2.30811e-05
2.53035e-05
3.08224e-05
3.35139e-05
3.18709e-05
2.75313e-05
2.17827e-05
2.08027e-05
2.15192e-05
2.01469e-05
2.03368e-05
2.56603e-05
3.49632e-05
3.66019e-05
2.217e-05
1.92465e-05
3.31272e-05
3.43461e-05
2.97838e-05
2.97372e-05
3.59066e-05
4.28182e-05
4.42352e-05
3.57826e-05
2.99169e-05
3.7299e-05
2.86747e-05
2.3149e-05
1.81271e-05
2.76982e-05
1.66426e-05
2.33543e-05
2.71439e-05
3.4583e-05
7.41626e-05
8.64115e-05
7.13488e-05
5.09823e-05
4.85617e-05
3.91286e-05
2.77567e-05
2.1307e-05
2.69502e-05
3.4598e-05
3.72494e-05
3.41081e-05
2.62411e-05
1.72989e-05
1.7077e-05
1.98236e-05
1.88094e-05
1.60729e-05
1.82219e-05
2.88759e-05
3.35637e-05
2.00444e-05
1.36483e-05
2.60485e-05
2.77728e-05
2.71377e-05
2.97409e-05
3.38622e-05
3.85346e-05
3.54664e-05
2.264e-05
1.9611e-05
2.96584e-05
1.55502e-05
2.25918e-05
1.25434e-05
2.7522e-05
1.57903e-05
2.9151e-05
2.9436e-05
3.39453e-05
7.44454e-05
8.34311e-05
6.48719e-05
5.5586e-05
4.36281e-05
3.314e-05
2.1839e-05
2.08973e-05
2.92765e-05