/*--------------------------------*- C++ -*----------------------------------*\
| =========                 |                                                 |
| \\      /  F ield         | OpenFOAM: The Open Source CFD Toolbox           |
|  \\    /   O peration     | Version:  2306                                  |
|   \\  /    A nd           | Website:  www.openfoam.com                      |
|    \\/     M anipulation  |                                                 |
\*---------------------------------------------------------------------------*/
FoamFile
{
    version     2.0;
    format      ascii;
    arch        "LSB;label=32;scalar=64";
    class       surfaceScalarField;
    location    "4";
    object      phi;
}
// * * * * * * * * * * * * * * * * * * * * * * * * * * * * * * * * * * * * * //

dimensions      [0 3 -1 0 0 0 0];

oriented        oriented;

internalField   nonuniform List<scalar> 
175300
(
6.30943e-06
9.59412e-07
5.9218e-07
6.36966e-06
1.05641e-06
1.15773e-06
6.24135e-06
7.79143e-07
1.78517e-06
6.05504e-06
2.68818e-07
2.22125e-06
5.90633e-06
-1.03713e-07
2.31301e-06
5.79507e-06
-1.96326e-07
2.12317e-06
5.68009e-06
-1.01617e-07
1.76697e-06
5.54474e-06
-1.20697e-08
1.38129e-06
5.34746e-06
-6.83985e-09
1.12756e-06
4.99776e-06
-2.69125e-08
1.08939e-06
4.4794e-06
-7.30484e-08
1.20782e-06
3.95271e-06
-2.05968e-07
1.33906e-06
3.61689e-06
-4.10012e-07
1.39143e-06
3.52547e-06
-6.2194e-07
1.38041e-06
3.61356e-06
-7.77151e-07
1.2953e-06
3.75133e-06
-7.78633e-07
1.08739e-06
3.83194e-06
-5.41513e-07
7.47867e-07
3.90154e-06
-2.32541e-07
3.54757e-07
4.05573e-06
-7.42658e-09
1.88144e-09
4.28365e-06
1.63005e-07
-2.79944e-07
4.49661e-06
3.08931e-07
-4.86838e-07
4.6785e-06
3.25909e-07
-6.23173e-07
4.87088e-06
7.59005e-08
-7.09018e-07
5.14229e-06
-3.1403e-07
-8.53092e-07
5.46758e-06
-5.54583e-07
-1.16575e-06
5.71944e-06
-5.24856e-07
-1.54058e-06
5.77455e-06
-3.59244e-07
-1.76682e-06
5.57269e-06
-8.31825e-08
-1.89542e-06
5.1307e-06
2.40776e-07
-2.04146e-06
4.57227e-06
3.56398e-07
-2.05701e-06
4.15123e-06
4.64623e-08
-1.88525e-06
3.95006e-06
-2.92895e-07
-1.78e-06
3.89068e-06
-3.15485e-07
-1.84019e-06
3.95453e-06
-1.7381e-07
-1.84599e-06
4.14279e-06
2.14671e-08
-1.60178e-06
4.4097e-06
3.33202e-07
-1.15613e-06
4.71407e-06
6.94972e-07
-7.12505e-07
5.08962e-06
8.40929e-07
-3.79714e-07
5.55004e-06
7.38817e-07
-8.18179e-08
7.39336e-07
2.00496e-07
2.09306e-05
2.79395e-06
2.30978e-06
2.14007e-05
2.85262e-06
4.00724e-06
2.12442e-05
1.855e-06
5.62032e-06
2.069e-05
3.84294e-07
6.52303e-06
2.00881e-05
-5.82807e-07
6.57338e-06
1.96118e-05
-7.47513e-07
6.0396e-06
1.92089e-05
-4.46261e-07
5.18091e-06
1.87573e-05
-1.77559e-07
4.23485e-06
1.80718e-05
-1.05399e-07
3.53227e-06
1.69253e-05
-1.11787e-07
3.32085e-06
1.533e-05
-2.61853e-07
3.56044e-06
1.37219e-05
-7.70452e-07
3.96157e-06
1.26195e-05
-1.58228e-06
4.23073e-06
1.21782e-05
-2.39224e-06
4.22732e-06
1.22045e-05
-2.83961e-06
3.87037e-06
1.23729e-05
-2.63088e-06
3.12863e-06
1.25163e-05
-1.73924e-06
2.11076e-06
1.2775e-05
-7.34551e-07
1.03771e-06
1.32943e-05
-3.78737e-08
9.41926e-08
1.39993e-05
4.56281e-07
-6.6241e-07
1.47413e-05
7.76467e-07
-1.24564e-06
1.5522e-05
5.88001e-07
-1.65813e-06
1.64286e-05
-4.60728e-07
-1.97087e-06
1.75243e-05
-1.79523e-06
-2.47698e-06
1.86473e-05
-2.50873e-06
-3.38692e-06
1.9436e-05
-2.2851e-06
-4.39244e-06
1.95534e-05
-1.5522e-06
-5.00837e-06
1.88494e-05
-4.75146e-07
-5.32268e-06
1.74771e-05
5.75443e-07
-5.51426e-06
1.58753e-05
7.81805e-07
-5.37746e-06
1.455e-05
-1.99153e-07
-5.05979e-06
1.36337e-05
-1.10194e-06
-5.1013e-06
1.31143e-05
-1.07738e-06
-5.45057e-06
1.31127e-05
-6.50444e-07
-5.39239e-06
1.3635e-05
-3.72861e-08
-4.52964e-06
1.44942e-05
1.00952e-06
-3.17339e-06
1.55604e-05
2.18085e-06
-1.89525e-06
1.68767e-05
2.58925e-06
-9.11666e-07
1.83968e-05
2.20746e-06
3.2282e-08
2.24615e-06
9.66761e-07
3.88243e-05
4.44151e-06
3.88512e-06
4.01891e-05
4.38028e-06
6.80486e-06
4.03254e-05
2.49637e-06
9.46397e-06
3.9394e-05
-3.21814e-09
1.08659e-05
3.80899e-05
-1.49619e-06
1.08607e-05
3.7014e-05
-1.61846e-06
1.00213e-05
3.62237e-05
-1.04701e-06
8.82245e-06
3.54447e-05
-5.64908e-07
7.49416e-06
3.43072e-05
-3.61093e-07
6.34795e-06
3.24459e-05
-2.84764e-07
5.73922e-06
2.98116e-05
-4.80484e-07
5.80435e-06
2.69478e-05
-1.38712e-06
6.36772e-06
2.46574e-05
-3.03728e-06
7.01704e-06
2.33686e-05
-4.81745e-06
7.24675e-06
2.29313e-05
-5.81144e-06
6.75177e-06
2.28799e-05
-5.36674e-06
5.56802e-06
2.29721e-05
-3.59566e-06
3.96298e-06
2.33954e-05
-1.65695e-06
2.27402e-06
2.43015e-05
-3.33895e-07
7.65176e-07
2.55512e-05
5.69825e-07
-4.75176e-07
2.69598e-05
9.72316e-07
-1.44181e-06
2.85584e-05
2.61558e-07
-2.08911e-06
3.04641e-05
-2.23381e-06
-2.53442e-06
3.26973e-05
-5.16458e-06
-3.30711e-06
3.49332e-05
-6.65139e-06
-4.81569e-06
3.65556e-05
-6.04025e-06
-6.61645e-06
3.69812e-05
-4.2057e-06
-7.86231e-06
3.59401e-05
-1.66939e-06
-8.48338e-06
3.37189e-05
6.01028e-07
-8.66357e-06
3.10468e-05
1.01841e-06
-8.2559e-06
2.86117e-05
-7.76145e-07
-7.71844e-06
2.65611e-05
-2.34572e-06
-7.9481e-06
2.50096e-05
-2.24764e-06
-8.81297e-06
2.44084e-05
-1.5282e-06
-9.07441e-06
2.49701e-05
-5.36605e-07
-7.91042e-06
2.6394e-05
1.368e-06
-5.75026e-06
2.83643e-05
3.56443e-06
-3.60664e-06
3.08516e-05
4.3807e-06
-1.91116e-06
3.37163e-05
3.51332e-06
-2.152e-07
3.54183e-06
1.49384e-06
5.97463e-05
4.50317e-06
4.26359e-06
6.27246e-05
4.5599e-06
8.58319e-06
6.37586e-05
1.98045e-06
1.27066e-05
6.26322e-05
-1.23732e-06
1.50592e-05
6.03687e-05
-2.89795e-06
1.5198e-05
5.83496e-05
-2.74733e-06
1.40166e-05
5.70252e-05
-1.83422e-06
1.25264e-05
5.59708e-05
-1.1515e-06
1.10576e-05
5.4565e-05
-7.98714e-07
9.66276e-06
5.22852e-05
-5.7622e-07
8.51189e-06
4.89002e-05
-6.56773e-07
7.93417e-06
4.47818e-05
-1.68211e-06
8.23879e-06
4.08088e-05
-4.00916e-06
9.29229e-06
3.78404e-05
-6.97924e-06
1.01914e-05
3.61733e-05
-9.01495e-06
1.00008e-05
3.54138e-05
-8.75135e-06
8.65456e-06
3.51885e-05
-6.23041e-06
6.65608e-06
3.56332e-05
-3.28676e-06
4.48733e-06
3.68609e-05
-1.19576e-06
2.45659e-06
3.86447e-05
1.72654e-07
8.24553e-07
4.07553e-05
5.85946e-07
-3.80976e-07
4.32506e-05
-1.11636e-06
-1.12635e-06
4.63102e-05
-5.83351e-06
-1.38973e-06
4.99641e-05
-1.13481e-05
-2.07771e-06
5.37597e-05
-1.42291e-05
-4.10992e-06
5.67874e-05
-1.31131e-05
-7.09227e-06
5.81385e-05
-9.46039e-06
-9.62072e-06
5.7313e-05
-4.49026e-06
-1.11149e-05
5.46222e-05
-1.65231e-07
-1.15869e-05
5.10256e-05
8.94721e-07
-1.08622e-05
4.74156e-05
-1.64477e-06
-9.74654e-06
4.39339e-05
-3.89666e-06
-9.82219e-06
4.06835e-05
-3.68465e-06
-1.12775e-05
3.84938e-05
-2.73399e-06
-1.24884e-05
3.82197e-05
-1.72834e-06
-1.18923e-05
3.97827e-05
6.25128e-07
-9.50683e-06
4.2612e-05
3.74506e-06
-6.67153e-06
4.64391e-05
4.87907e-06
-4.28839e-06
5.0978e-05
3.44437e-06
-1.98962e-06
3.06335e-06
8.24199e-07
8.23246e-05
5.74504e-07
2.00207e-06
8.79038e-05
1.66464e-06
7.81557e-06
9.09266e-05
-9.01242e-07
1.40984e-05
9.02759e-05
-4.01146e-06
1.84045e-05
8.69861e-05
-4.99998e-06
1.94512e-05
8.35945e-05
-4.09709e-06
1.8006e-05
8.14975e-05
-2.69092e-06
1.60149e-05
8.026e-05
-1.82946e-06
1.45221e-05
7.8881e-05
-1.38752e-06
1.33568e-05
7.66349e-05
-1.03397e-06
1.19662e-05
7.30768e-05
-8.55343e-07
1.03909e-05
6.81632e-05
-1.5157e-06
9.62632e-06
6.24091e-05
-3.85906e-06
1.05882e-05
5.68829e-05
-7.75473e-06
1.24933e-05
5.27501e-05
-1.12706e-05
1.33375e-05
5.02989e-05
-1.20596e-05
1.23194e-05
4.91625e-05
-9.4592e-06
1.01912e-05
4.92672e-05
-5.74003e-06
7.77933e-06
5.05653e-05
-2.84158e-06
5.46417e-06
5.26623e-05
-8.27885e-07
3.55885e-06
5.52088e-05
-3.41525e-07
2.31837e-06
5.82554e-05
-3.45558e-06
2.02496e-06
6.21252e-05
-1.14896e-05
2.69254e-06
6.71141e-05
-2.11617e-05
2.97146e-06
7.29408e-05
-2.69267e-05
1.00181e-06
7.8394e-05
-2.56078e-05
-3.62476e-06
8.19418e-05
-1.92843e-05
-8.66778e-06
8.25471e-05
-1.03899e-05
-1.23812e-05
8.0311e-05
-2.56157e-06
-1.41548e-05
7.62929e-05
8.67684e-08
-1.34967e-05
7.16868e-05
-2.82807e-06
-1.14393e-05
6.68138e-05
-5.63465e-06
-1.06631e-05
6.16327e-05
-5.1597e-06
-1.22981e-05
5.692e-05
-3.85355e-06
-1.47095e-05
5.42522e-05
-3.13256e-06
-1.56739e-05
5.45399e-05
-1.19259e-06
-1.43348e-05
5.7438e-05
1.98192e-06
-1.17186e-05
6.23612e-05
2.79464e-06
-9.14389e-06
6.87357e-05
1.66991e-08
-6.49656e-06
-1.68685e-06
-2.7481e-06
0.000102798
-1.01741e-05
-5.26761e-06
0.000112172
-7.5873e-06
2.07645e-06
0.000119192
-8.65922e-06
1.103e-05
0.000120812
-1.00533e-05
1.89203e-05
0.000117119
-8.59853e-06
2.27918e-05
0.000112017
-5.8531e-06
2.20565e-05
0.00010881
-3.63788e-06
1.92878e-05
0.00010752
-2.5733e-06
1.7339e-05
0.000106556
-2.08843e-06
1.67887e-05
0.000104829
-1.70442e-06
1.61551e-05
0.000101819
-1.30981e-06
1.39837e-05
9.71128e-05
-1.22239e-06
1.13051e-05
9.0444e-05
-2.61901e-06
1.09075e-05
8.22815e-05
-6.47277e-06
1.34483e-05
7.43813e-05
-1.11903e-05
1.60661e-05
6.85449e-05
-1.37837e-05
1.61841e-05
6.5249e-05
-1.23139e-05
1.42482e-05
6.42653e-05
-8.56804e-06
1.17622e-05
6.51231e-05
-5.02726e-06
9.40175e-06
6.70404e-05
-2.15599e-06
7.51593e-06
6.93492e-05
-1.30719e-06
6.56492e-06
7.19519e-05
-6.03591e-06
7.29174e-06
7.52926e-05
-1.84542e-05
9.85143e-06
8.01486e-05
-3.39426e-05
1.236e-05
8.72462e-05
-4.44806e-05
1.18139e-05
9.6157e-05
-4.53595e-05
6.59635e-06
0.000104504
-3.67464e-05
-1.91569e-06
0.000109279
-2.20503e-05
-1.01623e-05
0.000109535
-8.23189e-06
-1.53668e-05
0.00010629
-2.18407e-06
-1.61373e-05
0.000101205
-4.58526e-06
-1.33847e-05
9.5297e-05
-7.58654e-06
-1.10374e-05
8.86945e-05
-6.57377e-06
-1.19346e-05
8.1638e-05
-4.54076e-06
-1.49977e-05
7.5558e-05
-3.74094e-06
-1.77021e-05
7.2388e-05
-2.47666e-06
-1.85666e-05
7.30344e-05
-4.38791e-07
-1.78887e-05
7.738e-05
-1.63903e-06
-1.66592e-05
8.46117e-05
-7.50071e-06
-1.47334e-05
-1.18272e-05
-1.1089e-05
0.00011661
-2.52703e-05
-1.79561e-05
0.000128169
-2.30071e-05
-1.02438e-05
0.000141245
-2.4978e-05
3.55674e-07
0.000149347
-2.33162e-05
1.28427e-05
0.000147992
-1.6191e-05
2.25586e-05
0.000141559
-8.84265e-06
2.55057e-05
0.0001369
-5.02556e-06
2.28305e-05
0.00013581
-3.81111e-06
1.94563e-05
0.000135912
-3.14646e-06
1.88506e-05
0.000135169
-2.62306e-06
2.0074e-05
0.000133205
-2.27814e-06
1.91225e-05
0.000129856
-1.58878e-06
1.47128e-05
0.000124201
-1.41579e-06
1.13075e-05
0.000115149
-3.8838e-06
1.29117e-05
0.000103521
-8.4123e-06
1.73187e-05
9.24809e-05
-1.2314e-05
1.9613e-05
8.48598e-05
-1.29657e-05
1.8506e-05
8.13644e-05
-1.05867e-05
1.60059e-05
8.10408e-05
-7.05386e-06
1.3541e-05
8.23889e-05
-3.22942e-06
1.16211e-05
8.42444e-05
-1.63224e-06
1.08153e-05
8.61735e-05
-7.7845e-06
1.22819e-05
8.82935e-05
-2.45968e-05
1.64874e-05
9.11557e-05
-4.61074e-05
2.15169e-05
9.6121e-05
-6.23862e-05
2.39188e-05
0.000105127
-6.73024e-05
2.07148e-05
0.000118285
-5.95822e-05
1.16056e-05
0.0001311
-4.16121e-05
-1.34122e-06
0.000138257
-1.99928e-05
-1.27122e-05
0.000138499
-7.56136e-06
-1.75305e-05
0.000133994
-7.45613e-06
-1.5669e-05
0.00012749
-9.70983e-06
-1.18266e-05
0.000120391
-7.82272e-06
-1.09526e-05
0.000112565
-4.88207e-06
-1.34773e-05
0.000104309
-3.31509e-06
-1.7058e-05
9.73051e-05
-1.58393e-06
-1.99627e-05
9.34617e-05
-3.60547e-07
-2.21861e-05
9.41474e-05
-4.93887e-06
-2.42142e-05
9.94302e-05
-1.63443e-05
-2.50531e-05
-2.54679e-05
-2.29791e-05
0.00012935
-3.96371e-05
-3.22708e-05
0.000137844
-3.78115e-05
-2.52608e-05
0.000152591
-4.34224e-05
-1.46389e-05
0.000168745
-4.49321e-05
-1.66935e-07
0.000174439
-3.14897e-05
1.58349e-05
0.000168389
-1.44958e-05
2.57946e-05
0.000161551
-6.7089e-06
2.64188e-05
0.000161011
-6.38794e-06
2.16436e-05
0.000163844
-5.97009e-06
1.88526e-05
0.000165041
-4.15571e-06
2.1255e-05
0.000163986
-3.50975e-06
2.39825e-05
0.000162381
-3.41557e-06
2.06383e-05
0.000159951
-2.61857e-06
1.38777e-05
0.000153724
-3.02469e-06
1.21445e-05
0.000141465
-5.33482e-06
1.69091e-05
0.00012536
-8.00066e-06
2.18392e-05
0.000111064
-9.73584e-06
2.25813e-05
0.000102606
-9.90516e-06
2.04443e-05
9.98253e-05
-7.93129e-06
1.77533e-05
0.000100482
-3.92753e-06
1.55264e-05
0.000102767
-1.56131e-06
1.41636e-05
0.000105612
-8.36624e-06
1.49198e-05
0.000108027
-2.7687e-05
1.89239e-05
0.000109331
-5.28525e-05
2.51643e-05
0.000110375
-7.3501e-05
3.08527e-05
0.000114496
-8.30183e-05
3.22208e-05
0.000125721
-7.92931e-05
2.61295e-05
0.000143354
-6.26855e-05
1.27457e-05
0.000160038
-3.7677e-05
-3.82879e-06
0.000167879
-1.79194e-05
-1.49878e-05
0.000165592
-1.15911e-05
-1.68675e-05
0.000158367
-1.08427e-05
-1.33188e-05
0.000151492
-8.56539e-06
-1.02191e-05
0.000145401
-5.64774e-06
-1.05867e-05
0.00013835
-2.70143e-06
-1.36696e-05
0.000130539
1.34258e-06
-1.75264e-05
0.000123509
3.96879e-06
-2.19816e-05
0.000119041
-2.68297e-06
-2.76746e-05
0.0001191
-2.04921e-05
-3.32483e-05
-3.69619e-05
-3.52053e-05
0.000148713
-4.87035e-05
-4.56509e-05
0.000152879
-4.72963e-05
-4.05442e-05
0.00016327
-5.56808e-05
-2.91747e-05
0.000181354
-6.58636e-05
-1.35354e-05
0.000195617
-5.48607e-05
5.28488e-06
0.000194419
-2.65451e-05
2.1638e-05
0.000184209
-8.0265e-06
2.78568e-05
0.000180126
-7.4965e-06
2.38638e-05
0.000186118
-1.16098e-05
1.74957e-05
0.00019252
-8.86469e-06
1.76549e-05
0.000191829
-3.40746e-06
2.3379e-05
0.000188186
-2.58583e-06
2.46089e-05
0.000188381
-6.1392e-06
1.80368e-05
0.00019012
-9.53562e-06
1.28233e-05
0.000184642
-9.23501e-06
1.60039e-05
0.000168446
-6.01203e-06
2.27461e-05
0.000147726
-3.85817e-06
2.5845e-05
0.000131573
-4.73323e-06
2.4732e-05
0.000123747
-5.67399e-06
2.21713e-05
0.000122583
-3.73483e-06
1.98816e-05
0.000125373
-1.89159e-06
1.78519e-05
0.000130051
-9.06973e-06
1.69002e-05
0.000134404
-2.86288e-05
1.86005e-05
0.000136313
-5.36993e-05
2.37523e-05
0.000135164
-7.54113e-05
3.11997e-05
0.000133567
-8.7785e-05
3.77399e-05
0.000138132
-8.89573e-05
3.76455e-05
0.000153547
-7.85889e-05
2.69716e-05
0.00017532
-5.74186e-05
8.91629e-06
0.000190171
-3.24778e-05
-8.1887e-06
0.000187929
-1.41764e-05
-1.52358e-05
0.000174226
-4.25819e-06
-1.39987e-05
0.000163607
-3.3936e-06
-9.46755e-06
0.000162188
-7.51006e-06
-6.22982e-06
0.000164607
-7.12066e-06
-6.8217e-06
0.000164441
1.25285e-06
-1.05474e-05
0.000160703
9.51131e-06
-1.63092e-05
0.000154827
5.04445e-06
-2.45545e-05
0.000149131
-1.57427e-05
-3.49047e-05
-4.00662e-05
-4.33766e-05
0.000175968
-4.79181e-05
-5.41935e-05
0.000175919
-4.97465e-05
-5.51856e-05
0.000181401
-5.86641e-05
-4.47575e-05
0.000195174
-7.68413e-05
-2.72816e-05
0.000213339
-7.72057e-05
-7.22884e-06
0.000221803
-4.84949e-05
1.38025e-05
0.00021478
-1.58229e-05
2.59009e-05
0.000203659
-5.97659e-06
2.53087e-05
0.000203256
-1.40357e-05
1.68494e-05
0.00021374
-1.77227e-05
1.1968e-05
0.000220153
-7.8154e-06
1.61319e-05
0.000214672
2.72579e-06
2.10358e-05
0.000208228
-1.39693e-06
1.81958e-05
0.000212661
-1.73009e-05
1.25964e-05
0.00022063
-2.57208e-05
1.42422e-05
0.000215608
-1.69572e-05
2.22503e-05
0.000195362
-2.86653e-06
2.77649e-05
0.000172125
3.1954e-06
2.78964e-05
0.000156223
2.22551e-06
2.59189e-05
0.000150054
2.28696e-07
2.47061e-05
0.000151813
-2.37191e-06
2.32324e-05
0.000158459
-1.27817e-05
2.03107e-05
0.00016572
-3.20802e-05
1.74337e-05
0.000169456
-5.3173e-05
1.8581e-05
0.000168053
-7.12053e-05
2.57501e-05
0.000162885
-8.2806e-05
3.62405e-05
0.000160194
-8.67475e-05
4.3121e-05
0.000168605
-8.41469e-05
3.77002e-05
0.000188458
-7.21483e-05
1.95972e-05
0.000205561
-4.72957e-05
-7.70102e-07
0.000203981
-1.6109e-05
-1.28769e-05
0.000186047
7.51439e-06
-1.43761e-05
0.000169285
1.02257e-05
-9.10416e-06
0.000165595
-2.74681e-06
-1.56279e-06
0.000173709
-1.17488e-05
2.9838e-06
0.000185163
-4.37752e-06
1.61253e-06
0.000192902
9.31248e-06
-4.13987e-06
0.000194101
1.24566e-05
-1.42261e-05
0.000188607
-4.31806e-06
-2.82717e-05
-3.17072e-05
-4.34753e-05
0.000211411
-3.49366e-05
-5.42825e-05
0.000204977
-4.32429e-05
-6.52729e-05
0.000206639
-5.43027e-05
-6.09956e-05
0.000215906
-7.64406e-05
-4.33028e-05
0.000231487
-8.99791e-05
-2.0841e-05
0.000246229
-7.32941e-05
1.84814e-06
0.000249153
-3.58313e-05
1.95022e-05
0.000239155
-1.04423e-05
2.46285e-05
0.000228057
-1.05534e-05
1.76038e-05
0.000229276
-2.00812e-05
8.23673e-06
0.000241021
-1.6961e-05
7.42429e-06
0.000246922
-8.84056e-07
1.3399e-05
0.000240013
5.52425e-06
1.56069e-05
0.000234489
-1.33238e-05
1.18305e-05
0.000243158
-3.96316e-05
1.13546e-05
0.000253246
-4.08535e-05
1.91417e-05
0.000245716
-1.67225e-05
2.7274e-05
0.000223376
5.5862e-06
2.89554e-05
0.00020055
1.38341e-05
2.73503e-05
0.000186108
1.17042e-05
2.802e-05
0.000182903
1.46735e-06
2.94408e-05
0.000189947
-1.88407e-05
2.57966e-05
0.000201488
-4.21462e-05
1.64737e-05
0.000209284
-5.72455e-05
9.50913e-06
0.000208934
-6.56916e-05
1.34075e-05
0.00020122
-7.18175e-05
2.73804e-05
0.000191782
-7.49285e-05
4.20249e-05
0.000190589
-7.73236e-05
4.42299e-05
0.000203038
-7.57229e-05
2.88111e-05
0.000218721
-5.73657e-05
6.85001e-06
0.00022032
-1.87896e-05
-9.73382e-06
0.00020522
1.72922e-05
-1.48056e-05
0.000187442
2.51924e-05
-1.1122e-05
0.00017925
7.24337e-06
-1.07171e-06
0.000183601
-1.03133e-05
8.99865e-06
0.000196592
-8.80935e-06
1.40657e-05
0.000212396
4.94842e-06
1.23044e-05
0.000225158
1.30769e-05
3.61379e-06
0.000228836
5.76852e-06
-1.33678e-05
-1.55209e-05
-3.45772e-05
0.000254199
-1.38865e-05
-4.62831e-05
0.000241534
-2.71445e-05
-6.73928e-05
0.000238447
-4.50206e-05
-7.3019e-05
0.000245478
-6.96636e-05
-6.01847e-05
0.000256962
-9.02091e-05
-3.7425e-05
0.000269875
-8.91433e-05
-1.35194e-05
0.000278848
-6.17288e-05
8.5337e-06
0.000276521
-2.66072e-05
2.0184e-05
0.000263723
-9.41443e-06
1.76156e-05
0.00025321
-1.3128e-05
6.79159e-06
0.00025714
-1.90543e-05
1.52947e-06
0.000270576
-1.20398e-05
7.21728e-06
0.000276266
-1.01469e-06
1.42444e-05
0.000269414
-9.07966e-06
1.33901e-05
0.000266157
-3.88428e-05
9.6204e-06
0.000276522
-5.85243e-05
1.38475e-05
0.000284614
-4.19083e-05
2.32215e-05
0.000275332
-6.84964e-06
2.72773e-05
0.000254055
1.92816e-05
2.6242e-05
0.000233419
2.6616e-05
2.85719e-05
0.000221666
1.48544e-05
3.30618e-05
0.00022313
-1.61926e-05
2.85756e-05
0.000236128
-5.08374e-05
1.23759e-05
0.000250911
-6.71008e-05
-2.97529e-06
0.000256112
-6.44823e-05
-5.07294e-06
0.000248199
-5.98e-05
1.10192e-05
0.00023278
-5.79322e-05
3.3973e-05
0.000221083
-6.00121e-05
4.65617e-05
0.000222905
-6.50314e-05
3.72725e-05
0.000233953
-5.62891e-05
1.4752e-05
0.00023878
-1.96278e-05
-4.92976e-06
0.000231115
2.21329e-05
-1.46054e-05
0.00021869
3.55253e-05
-1.57437e-05
0.000209869
1.81769e-05
-8.75695e-06
0.00020829
-2.42032e-06
2.84674e-06
0.000214325
-6.07898e-06
1.42909e-05
0.000227217
2.89781e-06
2.07313e-05
0.000245695
8.23732e-06
1.91359e-05
0.000261891
5.83952e-06
6.40479e-06
-1.55793e-06
-1.87152e-05
0.000300309
3.37147e-06
-3.44393e-05
0.000285935
-6.572e-06
-6.33474e-05
0.000278057
-3.22295e-05
-7.7829e-05
0.000282898
-6.11481e-05
-7.25309e-05
0.000292469
-8.28442e-05
-5.36801e-05
0.00029977
-9.15684e-05
-3.00645e-05
0.000305421
-7.97729e-05
-6.6232e-06
0.000307019
-4.8295e-05
1.15952e-05
0.000299555
-1.60195e-05
1.5062e-05
0.000287209
-4.47274e-06
6.20022e-06
0.000282992
-1.20284e-05
-1.13844e-06
0.000292865
-1.87591e-05
3.11425e-06
0.000305772
-1.45369e-05
1.34415e-05
0.000307375
-1.35515e-05
1.63573e-05
0.000299781
-3.24545e-05
1.02368e-05
0.000298658
-5.84453e-05
7.57998e-06
0.000307385
-5.85688e-05
1.44918e-05
0.000311013
-2.79445e-05
2.20834e-05
0.000300347
8.75169e-06
2.57928e-05
0.000281314
3.09429e-05
3.04482e-05
0.000264695
3.04959e-05
3.3627e-05
0.000257135
3.3324e-06
2.32304e-05
0.000263554
-4.0873e-05
7.08201e-07
0.000282803
-7.33751e-05
-1.71119e-05
0.000299809
-7.24666e-05
-2.07256e-05
0.000298586
-5.55753e-05
-5.98175e-06
0.0002805
-4.39764e-05
2.26868e-05
0.000259844
-4.01178e-05
4.49734e-05
0.000250651
-4.36617e-05
4.46322e-05
0.000254792
-4.10312e-05
2.42237e-05
0.000260502
-1.29702e-05
2.12605e-06
0.000259687
2.53049e-05
-1.27873e-05
0.00025498
3.94858e-05
-2.04129e-05
0.000250438
2.43184e-05
-1.97025e-05
0.000247057
5.13919e-06
-1.0454e-05
0.000246101
2.10238e-06
2.0604e-06
0.000250515
7.31462e-06
1.34382e-05
0.000265562
2.86123e-06
2.04541e-05
0.000288843
-5.35945e-06
1.70278e-05
-1.76632e-06
-2.97775e-06
0.000347668
7.46512e-06
-2.44565e-05
0.000337446
9.39315e-06
-5.61327e-05
0.000326357
-1.68363e-05
-7.76502e-05
0.000327124
-4.84569e-05
-7.97434e-05
0.000335349
-6.96378e-05
-6.66792e-05
0.000339272
-8.2375e-05
-4.67765e-05
0.000337736
-8.42596e-05
-2.30768e-05
0.000335583
-6.42466e-05
-5.74738e-07
0.000331227
-2.72882e-05
1.06982e-05
0.000323016
6.86212e-08
6.31009e-06
0.000317431
-2.71014e-07
-1.58343e-06
0.000322827
-1.60866e-05
3.16165e-07
0.000336366
-2.39028e-05
1.18613e-05
0.000344789
-2.11796e-05
1.9455e-05
0.000340385
-2.70187e-05
1.43587e-05
0.000330191
-4.6156e-05
4.80665e-06
0.000324454
-5.54676e-05
5.16886e-06
0.000321636
-3.88344e-05
1.61755e-05
0.000315863
-8.44708e-06
2.83354e-05
0.000307303
1.90107e-05
3.40636e-05
0.00030027
3.34453e-05
2.84429e-05
0.000295108
2.30161e-05
8.89108e-06
0.00029426
-1.73847e-05
-1.4104e-05
0.000308238
-6.60633e-05
-2.94119e-05
0.00033331
-8.37228e-05
-2.80877e-05
0.000344833
-6.6562e-05
-1.07829e-05
0.000330179
-4.1941e-05
1.69876e-05
0.000303328
-2.65937e-05
4.29569e-05
0.00028507
-2.1981e-05
5.0889e-05
0.000283214
-1.81532e-05
3.53396e-05
0.000289713
1.78995e-06
1.08577e-05
0.000294479
2.99368e-05
-8.72955e-06
0.000296672
3.81192e-05
-2.21359e-05
0.000298031
2.26193e-05
-2.84542e-05
0.000297494
6.70665e-06
-2.51879e-05
0.000294581
7.24052e-06
-1.55624e-05
0.000292616
1.25325e-05
-3.89682e-06
0.000299054
2.13988e-06
7.18972e-06
0.000318577
-1.63582e-05
1.21077e-05
-1.32996e-05
2.88e-06
0.000387815
3.37076e-06
-2.06387e-05
0.000389837
1.48771e-05
-4.86111e-05
0.000381135
-2.65475e-06
-7.27192e-05
0.000378075
-3.04002e-05
-8.19997e-05
0.000384869
-5.025e-05
-7.58601e-05
0.000389388
-6.60533e-05
-6.08778e-05
0.000383828
-7.79966e-05
-3.97029e-05
0.000374135
-6.96957e-05
-1.52014e-05
0.000366124
-3.56621e-05
2.76499e-06
0.000359582
1.14289e-06
5.42578e-06
0.000355629
1.18416e-05
-2.11714e-08
0.000359079
-5.26375e-06
5.60767e-07
0.000370952
-2.3575e-05
1.08714e-05
0.000382398
-2.60625e-05
2.22169e-05
0.000381405
-2.42204e-05
2.18359e-05
0.000365825
-3.14443e-05
9.76375e-06
0.000344875
-3.79831e-05
1.38525e-06
0.000328555
-3.06717e-05
6.75738e-06
0.000322085
-1.35646e-05
1.78229e-05
0.000325745
4.65518e-06
1.99196e-05
0.000334691
2.21957e-05
8.46014e-06
0.000340409
2.68059e-05
-1.10526e-05
0.000340826
2.77684e-06
-3.0711e-05
0.000347255
-4.59107e-05
-3.97111e-05
0.000368185
-8.3797e-05
-3.15891e-05
0.000385932
-8.10469e-05
-9.64517e-06
0.000377575
-5.03935e-05
1.81939e-05
0.000348847
-2.12102e-05
4.25304e-05
0.00032408
-6.30967e-06
5.39093e-05
0.000317622
1.44168e-06
4.33471e-05
0.000324067
1.65021e-05
1.92644e-05
0.000330806
3.54962e-05
-2.64685e-06
0.000333359
3.83554e-05
-1.74366e-05
0.000335457
2.05668e-05
-2.72287e-05
0.000339958
2.79997e-06
-3.19248e-05
0.000344404
2.83246e-06
-2.95934e-05
0.000345649
1.08524e-05
-1.94337e-05
0.000345345
4.66817e-06
-5.13391e-06
0.000352494
-1.47804e-05
4.00938e-06
-1.81396e-05
-7.75193e-07
0.000413733
3.92797e-06
-1.96242e-05
0.000431736
1.42119e-05
-4.24067e-05
0.000435081
6.36137e-06
-6.43582e-05
0.000433816
-1.08828e-05
-7.90793e-05
0.000440816
-2.72588e-05
-8.13472e-05
0.000448516
-4.5909e-05
-7.26156e-05
0.000442799
-6.48478e-05
-5.57569e-05
0.000426034
-6.52492e-05
-3.27878e-05
0.00041042
-3.70525e-05
-1.07477e-05
0.000401385
1.4597e-06
1.85103e-06
0.00039815
1.97224e-05
4.31194e-06
0.000400469
8.08839e-06
5.16435e-06
0.000408449
-1.37033e-05
1.10507e-05
0.000417756
-2.3737e-05
2.11822e-05
0.000418942
-2.34657e-05
2.68447e-05
0.000406225
-2.38564e-05
2.02421e-05
0.000384597
-2.23797e-05
4.74414e-06
0.000365307
-1.421e-05
-5.57627e-06
0.000357708
-6.16018e-06
-4.66292e-06
0.000364019
-2.39119e-06
-9.85256e-07
0.000377752
4.70412e-06
-3.74991e-06
0.000388716
1.47766e-05
-1.58518e-05
0.000392844
1.04763e-05
-3.13134e-05
0.00039715
-2.30336e-05
-3.94324e-05
0.000411192
-6.80825e-05
-3.1838e-05
0.000427023
-8.53257e-05
-9.37103e-06
0.000423104
-5.98318e-05
1.67229e-05
0.000397018
-1.96852e-05
3.95465e-05
0.000369721
7.11015e-06
5.41903e-05
0.000357549
1.89236e-05
5.00331e-05
0.000356849
2.93825e-05
2.89446e-05
0.000356639
4.109e-05
8.57664e-06
0.000354369
3.90703e-05
-1.78077e-06
0.000355535
1.75504e-05
-8.8139e-06
0.000364342
-5.69216e-06
-1.95653e-05
0.000377244
-1.10606e-05
-2.71605e-05
0.000385607
-1.18082e-06
-2.02709e-05
0.000385176
4.32832e-06
-2.80417e-06
0.000383507
-3.14638e-06
7.09472e-06
-7.1539e-06
-6.16908e-07
0.000439773
2.00213e-05
-1.13221e-05
0.000463942
2.11456e-05
-3.58619e-05
0.000481629
1.21466e-05
-5.49573e-05
0.000491645
1.5209e-06
-6.87576e-05
0.000503696
-7.78876e-06
-7.69143e-05
0.000514737
-2.41954e-05
-7.76612e-05
0.00050994
-4.56253e-05
-6.89277e-05
0.000487835
-5.10757e-05
-5.07356e-05
0.000463588
-2.85428e-05
-2.7607e-05
0.00044885
6.02504e-06
-8.76709e-06
0.000443906
2.33853e-05
2.77138e-06
0.000445174
1.52828e-05
9.02724e-06
0.000450008
-3.76709e-06
1.49947e-05
0.00045395
-1.48778e-05
2.20552e-05
0.000451404
-1.71261e-05
2.70519e-05
0.000440676
-1.78395e-05
2.39071e-05
0.000427192
-1.43898e-05
8.77454e-06
0.000417615
-4.7e-06
-9.76416e-06
0.000415224
-5.73258e-07
-1.60013e-05
0.00042028
-8.16876e-06
-8.39302e-06
0.000429057
-1.27039e-05
-1.44874e-06
0.000434885
-1.67345e-06
-4.99849e-06
0.000436131
1.02825e-05
-1.49983e-05
0.000439166
-4.26352e-06
-2.24832e-05
0.000450385
-4.5479e-05
-2.13605e-05
0.000465898
-7.77135e-05
-6.01611e-06
0.000469456
-6.59458e-05
1.68044e-05
0.000452593
-2.20124e-05
3.75171e-05
0.000427192
1.93274e-05
4.99958e-05
0.000407105
3.89559e-05
4.96895e-05
0.000393189
4.32518e-05
3.74816e-05
0.000383422
4.32886e-05
2.30805e-05
0.000379911
3.73541e-05
1.30178e-05
0.000384752
1.85432e-05
6.60623e-06
0.000397201
-7.16166e-06
-1.54512e-06
0.000412474
-2.10594e-05
-1.10887e-05
0.00042279
-1.3849e-05
-1.26471e-05
0.000423917
2.39056e-06
-4.98067e-07
0.000420054
1.16536e-05
1.32688e-05
1.47428e-05
9.74796e-06
0.000478357
3.753e-05
7.88879e-06
0.000499786
3.11637e-05
-1.59734e-05
0.000522041
1.42468e-05
-3.67506e-05
0.000542449
8.18264e-07
-5.34731e-05
0.00056325
-3.0181e-06
-6.62676e-05
0.000578966
-9.13676e-06
-7.36587e-05
0.000576314
-2.31199e-05
-7.32837e-05
0.000553778
-2.9914e-05
-6.31303e-05
0.000526021
-1.48403e-05
-4.34193e-05
0.000505754
1.24722e-05
-2.06954e-05
0.000495113
2.65773e-05
-3.50826e-06
0.000490393
1.94707e-05
7.16857e-06
0.000489517
4.73542e-06
1.50281e-05
0.00048893
-5.01057e-06
2.42616e-05
0.000485162
-8.78588e-06
2.92843e-05
0.000478782
-1.03015e-05
2.26553e-05
0.000475878
-7.92458e-06
4.34617e-06
0.000479837
-7.9423e-07
-1.46671e-05
0.000486485
-1.12422e-06
-1.82476e-05
0.000488527
-1.51285e-05
-4.07335e-06
0.000483416
-2.55335e-05
1.16842e-05
0.000475628
-1.31591e-05
1.46032e-05
0.000473417
9.729e-06
8.01907e-06
0.000481023
1.19536e-05
7.15417e-07
0.000495524
-1.91585e-05
-7.81402e-07
0.000509945
-5.85111e-05
5.84151e-06
0.000514703
-6.32949e-05
1.98885e-05
0.000501666
-2.24094e-05
3.57751e-05
0.000477832
2.8252e-05
4.70284e-05
0.000453135
5.55034e-05
4.61085e-05
0.000432006
5.7135e-05
3.49938e-05
0.000418205
4.92121e-05
2.68188e-05
0.000415896
4.05008e-05
2.69417e-05
0.000424225
2.75369e-05
2.65599e-05
0.000438467
8.49288e-06
1.74317e-05
0.000453088
-7.30291e-06
4.94578e-06
0.000462146
-6.74697e-06
5.5546e-07
0.000463959
8.40153e-06
8.48388e-06
0.000462168
2.36484e-05
2.10982e-05
3.34016e-05
2.20667e-05
0.000529726
4.24304e-05
3.34825e-05
0.000544329
3.50782e-05
1.09017e-05
0.000564574
1.29741e-05
-1.80778e-05
0.000588335
-1.13008e-05
-3.62711e-05
0.000613956
-2.00717e-05
-4.62188e-05
0.000632518
-1.42626e-05
-5.67886e-05
0.000633742
-8.53792e-06
-6.81375e-05
0.000619645
-7.29102e-06
-7.26226e-05
0.000601607
4.60132e-07
-6.3095e-05
0.00058702
1.66425e-05
-4.08356e-05
0.00057349
2.7177e-05
-1.66155e-05
0.00055795
2.4101e-05
3.10596e-07
0.000542519
1.41266e-05
1.04119e-05
0.000531868
4.09285e-06
2.0391e-05
0.000527878
-5.83619e-06
2.97055e-05
0.000531743
-1.6873e-05
3.16385e-05
0.000545204
-2.44483e-05
2.23681e-05
0.000565249
-2.50585e-05
7.38415e-06
0.000579132
-2.38155e-05
-8.52602e-07
0.000574764
-2.6926e-05
9.4432e-06
0.000555376
-2.71745e-05
3.34024e-05
0.000535773
-1.16413e-05
5.16849e-05
0.000528825
1.61798e-05
4.73427e-05
0.000535627
3.21115e-05
2.14051e-05
0.000549282
1.62307e-05
-4.69389e-06
0.000562046
-2.36423e-05
-7.85478e-06
0.00056526
-4.73399e-05
1.02652e-05
0.000550979
-2.4433e-05
3.15731e-05
0.00052395
2.71573e-05
4.32818e-05
0.000496105
6.53823e-05
4.37007e-05
0.00047585
7.61469e-05
3.55842e-05
0.000466608
7.00916e-05
2.75116e-05
0.000467952
5.81811e-05
2.4709e-05
0.000476022
4.30599e-05
2.41147e-05
0.000487699
2.58521e-05
1.98671e-05
0.000501638
1.20796e-05
1.08874e-05
0.000514879
1.02398e-05
3.84584e-06
0.000522557
1.97021e-05
8.4767e-06
0.000523125
3.04048e-05
2.4583e-05
3.82177e-05
3.7769e-05
0.000580331
2.62765e-05
4.85934e-05
0.000596147
1.58433e-05
3.51254e-05
0.000616542
-2.75166e-06
6.34352e-06
0.000638408
-2.27542e-05
-2.48453e-05
0.000662199
-3.16513e-05
-4.45231e-05
0.000683758
-2.30957e-05
-5.28871e-05
0.000692053
-5.32843e-06
-5.70767e-05
0.000682661
9.72166e-06
-6.21819e-05
0.000664914
2.05157e-05
-6.40397e-05
0.000651831
2.79266e-05
-5.54495e-05
0.000646019
2.92828e-05
-3.85137e-05
0.000640177
2.37559e-05
-2.14354e-05
0.000628808
1.55377e-05
-8.79846e-06
0.000613054
7.58518e-06
2.36057e-06
0.00059907
-2.61582e-06
1.52949e-05
0.000594174
-1.90687e-05
2.84559e-05
0.000604519
-3.86503e-05
3.53917e-05
0.00062805
-5.41119e-05
3.18688e-05
0.000648394
-5.90041e-05
2.28344e-05
0.000648119
-5.01177e-05
2.16799e-05
0.000628412
-3.0027e-05
3.62355e-05
0.000605404
-2.44646e-06
5.50369e-05
0.00059099
2.53857e-05
5.47551e-05
0.000586596
3.92641e-05
2.51761e-05
0.000589948
2.6525e-05
-1.30252e-05
0.000600623
-7.81609e-06
-3.11785e-05
0.00060985
-3.8145e-05
-1.48009e-05
0.000606248
-3.25427e-05
1.46054e-05
0.00058856
1.11292e-05
3.67258e-05
0.00056924
5.82399e-05
4.32759e-05
0.000559264
8.3937e-05
3.42789e-05
0.000558534
8.7141e-05
1.61815e-05
0.000561353
7.54198e-05
-2.23635e-07
0.000563593
5.52719e-05
-6.41694e-06
0.000565333
3.33754e-05
-1.31841e-06
0.000569029
1.96385e-05
7.02335e-06
0.000573915