/*--------------------------------*- C++ -*----------------------------------*\
| =========                 |                                                 |
| \\      /  F ield         | OpenFOAM: The Open Source CFD Toolbox           |
|  \\    /   O peration     | Version:  2306                                  |
|   \\  /    A nd           | Website:  www.openfoam.com                      |
|    \\/     M anipulation  |                                                 |
\*---------------------------------------------------------------------------*/
FoamFile
{
    version     2.0;
    format      ascii;
    arch        "LSB;label=32;scalar=64";
    class       surfaceScalarField;
    location    "4";
    object      phi_0;
}
// * * * * * * * * * * * * * * * * * * * * * * * * * * * * * * * * * * * * * //

dimensions      [0 3 -1 0 0 0 0];

oriented        oriented;

internalField   nonuniform List<scalar> 
175300
(
6.33592e-06
9.90751e-07
6.41441e-07
6.37711e-06
1.0421e-06
1.22431e-06
6.24056e-06
7.21638e-07
1.84727e-06
6.05848e-06
2.07136e-07
2.24816e-06
5.91725e-06
-1.41996e-07
2.30734e-06
5.80863e-06
-2.05343e-07
2.09641e-06
5.69195e-06
-9.79621e-08
1.7335e-06
5.5518e-06
-1.34984e-08
1.35556e-06
5.34181e-06
-1.12468e-08
1.119e-06
4.97122e-06
-2.94923e-08
1.09688e-06
4.43853e-06
-8.07582e-08
1.2222e-06
3.91801e-06
-2.26001e-07
1.34986e-06
3.60297e-06
-4.37898e-07
1.39743e-06
3.53282e-06
-6.49271e-07
1.38379e-06
3.6319e-06
-7.92633e-07
1.29117e-06
3.76641e-06
-7.68019e-07
1.06921e-06
3.84026e-06
-5.11122e-07
7.17834e-07
3.91392e-06
-2.03709e-07
3.22084e-07
4.07646e-06
1.32372e-08
-2.57856e-08
4.30619e-06
1.7963e-07
-3.01144e-07
4.51552e-06
3.13817e-07
-5.03729e-07
4.69809e-06
3.09509e-07
-6.37272e-07
4.89732e-06
4.06615e-08
-7.28472e-07
5.17813e-06
-3.41907e-07
-8.89226e-07
5.50599e-06
-5.54066e-07
-1.21555e-06
5.74372e-06
-4.99496e-07
-1.58128e-06
5.777e-06
-3.31409e-07
-1.78668e-06
5.55212e-06
-5.57716e-08
-1.91e-06
5.08908e-06
2.6173e-07
-2.04919e-06
4.53086e-06
3.35417e-07
-2.04007e-06
4.12944e-06
-1.68819e-09
-1.86384e-06
3.9445e-06
-3.18356e-07
-1.77859e-06
3.89546e-06
-3.10512e-07
-1.8501e-06
3.9705e-06
-1.59519e-07
-1.83916e-06
4.16961e-06
4.54679e-08
-1.57034e-06
4.44419e-06
3.68502e-07
-1.1129e-06
4.75617e-06
7.24261e-07
-6.74694e-07
5.14208e-06
8.47108e-07
-3.52116e-07
5.60925e-06
7.34977e-07
-5.05852e-08
7.62297e-07
2.30758e-07
2.10404e-05
2.86681e-06
2.46915e-06
2.14576e-05
2.77884e-06
4.19145e-06
2.12615e-05
1.66737e-06
5.75798e-06
2.06992e-05
2.01796e-07
6.56244e-06
2.01139e-05
-6.90957e-07
6.53916e-06
1.96525e-05
-7.74562e-07
5.97044e-06
1.925e-05
-4.41267e-07
5.10572e-06
1.87801e-05
-1.81663e-07
4.17605e-06
1.80513e-05
-1.13301e-07
3.50786e-06
1.68453e-05
-1.18688e-07
3.33489e-06
1.52126e-05
-2.93346e-07
3.60111e-06
1.36196e-05
-8.46484e-07
4.00497e-06
1.257e-05
-1.68564e-06
4.26012e-06
1.21818e-05
-2.48019e-06
4.23217e-06
1.22337e-05
-2.86892e-06
3.84073e-06
1.23996e-05
-2.57549e-06
3.06285e-06
1.25409e-05
-1.63427e-06
2.02409e-06
1.28183e-05
-6.44026e-07
9.51704e-07
1.33593e-05
2.32018e-08
2.20071e-08
1.40729e-05
4.96007e-07
-7.20411e-07
1.48185e-05
7.84314e-07
-1.29468e-06
1.56118e-05
5.08583e-07
-1.70443e-06
1.65402e-05
-5.83501e-07
-2.0375e-06
1.76527e-05
-1.87534e-06
-2.58888e-06
1.87672e-05
-2.48636e-06
-3.52865e-06
1.95084e-05
-2.18341e-06
-4.50659e-06
1.95566e-05
-1.44e-06
-5.06727e-06
1.87842e-05
-3.77717e-07
-5.35057e-06
1.73642e-05
6.23378e-07
-5.5071e-06
1.57625e-05
7.01106e-07
-5.32992e-06
1.44671e-05
-3.38522e-07
-5.03252e-06
1.35803e-05
-1.16203e-06
-5.13163e-06
1.31007e-05
-1.05875e-06
-5.48705e-06
1.31513e-05
-6.08552e-07
-5.36352e-06
1.37198e-05
4.10245e-08
-4.4297e-06
1.46115e-05
1.12533e-06
-3.04818e-06
1.57063e-05
2.2737e-06
-1.7863e-06
1.70497e-05
2.60928e-06
-8.21695e-07
1.85813e-05
2.23972e-06
9.79385e-08
2.31712e-06
1.08251e-06
3.90723e-05
4.5627e-06
4.16911e-06
4.03446e-05
4.22249e-06
7.11663e-06
4.03811e-05
2.15157e-06
9.68187e-06
3.9398e-05
-3.20548e-07
1.09152e-05
3.81121e-05
-1.68048e-06
1.07887e-05
3.70769e-05
-1.66921e-06
9.90783e-06
3.63023e-05
-1.04763e-06
8.71421e-06
3.54971e-05
-5.7324e-07
7.40805e-06
3.42901e-05
-3.68264e-07
6.2966e-06
3.23335e-05
-2.91526e-07
5.7342e-06
2.96271e-05
-5.34364e-07
5.85013e-06
2.67596e-05
-1.53077e-06
6.44746e-06
2.45325e-05
-3.24789e-06
7.09132e-06
2.33278e-05
-5.00161e-06
7.27024e-06
2.29429e-05
-5.86777e-06
6.70509e-06
2.2904e-05
-5.25278e-06
5.46223e-06
2.3009e-05
-3.38996e-06
3.82746e-06
2.34704e-05
-1.48333e-06
2.13919e-06
2.44157e-05
-2.24292e-07
6.53471e-07
2.56867e-05
6.31139e-07
-5.68114e-07
2.71131e-05
9.41344e-07
-1.51793e-06
2.87431e-05
6.47432e-08
-2.15734e-06
3.06895e-05
-2.50629e-06
-2.63665e-06
3.2948e-05
-5.32974e-06
-3.4918e-06
3.51634e-05
-6.58814e-06
-5.06519e-06
3.67027e-05
-5.80131e-06
-6.83647e-06
3.70084e-05
-3.93693e-06
-7.99008e-06
3.58497e-05
-1.44616e-06
-8.53419e-06
3.35491e-05
6.9469e-07
-8.63465e-06
3.08623e-05
8.61966e-07
-8.16735e-06
2.84437e-05
-1.02648e-06
-7.68023e-06
2.64133e-05
-2.44366e-06
-8.01829e-06
2.49213e-05
-2.21294e-06
-8.90518e-06
2.44282e-05
-1.46542e-06
-9.06102e-06
2.5099e-05
-4.08025e-07
-7.76496e-06
2.66021e-05
1.5801e-06
-5.54869e-06
2.86347e-05
3.76363e-06
-3.42316e-06
3.1173e-05
4.41562e-06
-1.75071e-06
3.40594e-05
3.55251e-06
-3.95018e-08
3.67423e-06
1.70996e-06
6.02077e-05
4.71395e-06
4.68609e-06
6.30524e-05
4.33578e-06
9.0617e-06
6.38918e-05
1.50127e-06
1.30594e-05
6.2618e-05
-1.65415e-06
1.51577e-05
6.03495e-05
-3.13417e-06
1.50863e-05
5.84123e-05
-2.81632e-06
1.38368e-05
5.71449e-05
-1.8454e-06
1.23775e-05
5.60745e-05
-1.16714e-06
1.09531e-05
5.45864e-05
-8.00814e-07
9.58213e-06
5.21848e-05
-5.72526e-07
8.45386e-06
4.86829e-05
-7.11339e-07
7.93457e-06
4.45008e-05
-1.86564e-06
8.32857e-06
4.05506e-05
-4.32404e-06
9.43482e-06
3.76792e-05
-7.29829e-06
1.02808e-05
3.61113e-05
-9.15203e-06
9.97275e-06
3.54057e-05
-8.60928e-06
8.5305e-06
3.52232e-05
-5.92384e-06
6.48699e-06
3.57327e-05
-3.0168e-06
4.31286e-06
3.70214e-05
-1.02481e-06
2.30753e-06
3.88425e-05
2.4464e-07
7.18809e-07
4.09872e-05
4.92379e-07
-4.6833e-07
4.35376e-05
-1.46753e-06
-1.18568e-06
4.66677e-05
-6.3514e-06
-1.48462e-06
5.03729e-05
-1.16723e-05
-2.31119e-06
5.41518e-05
-1.41286e-05
-4.49201e-06
5.70679e-05
-1.26642e-05
-7.48896e-06
5.82484e-05
-8.92906e-06
-9.89738e-06
5.72485e-05
-4.04298e-06
-1.1249e-05
5.44304e-05
3.42072e-08
-1.15605e-05
5.07843e-05
6.75959e-07
-1.07114e-05
4.7157e-05
-2.01153e-06
-9.65209e-06
4.36536e-05
-4.03049e-06
-9.90722e-06
4.04386e-05
-3.62885e-06
-1.14528e-05
3.83966e-05
-2.67181e-06
-1.25668e-05
3.83259e-05
-1.59963e-06
-1.17795e-05
4.00589e-05
8.94277e-07
-9.27051e-06
4.30129e-05
3.99501e-06
-6.42798e-06
4.69371e-05
4.92341e-06
-4.06192e-06
5.15255e-05
3.44424e-06
-1.70217e-06
3.28002e-06
1.13947e-06
8.30922e-05
9.94599e-07
2.55788e-06
8.85166e-05
1.45845e-06
8.51785e-06
9.12243e-05
-1.42817e-06
1.46889e-05
9.02502e-05
-4.42184e-06
1.86635e-05
8.68677e-05
-5.20821e-06
1.93469e-05
8.36017e-05
-4.15289e-06
1.77298e-05
8.16439e-05
-2.7082e-06
1.57876e-05
8.04335e-05
-1.85668e-06
1.44048e-05
7.89795e-05
-1.38466e-06
1.32757e-05
7.66038e-05
-1.01086e-06
1.18464e-05
7.28934e-05
-8.79758e-07
1.02763e-05
6.78295e-05
-1.67427e-06
9.64453e-06
6.19832e-05
-4.21732e-06
1.07822e-05
5.64969e-05
-8.21133e-06
1.27081e-05
5.25068e-05
-1.15669e-05
1.33942e-05
5.01911e-05
-1.1981e-05
1.22124e-05
4.91594e-05
-9.09512e-06
1.00093e-05
4.93691e-05
-5.37592e-06
7.58411e-06
5.07523e-05
-2.59654e-06
5.29862e-06
5.2897e-05
-7.30813e-07
3.4493e-06
5.54816e-05
-5.25734e-07
2.27726e-06
5.85968e-05
-4.0759e-06
2.05065e-06
6.2582e-05
-1.23973e-05
2.70158e-06
6.77009e-05
-2.18132e-05
2.77537e-06
7.35814e-05
-2.68708e-05
4.88125e-07
7.89305e-05
-2.48859e-05
-4.30561e-06
8.22571e-05
-1.8337e-05
-9.24803e-06
8.26125e-05
-9.5492e-06
-1.27395e-05
8.01677e-05
-2.12424e-06
-1.42211e-05
7.6032e-05
-1.35088e-07
-1.32893e-05
7.13572e-05
-3.29854e-06
-1.12263e-05
6.64076e-05
-5.79513e-06
-1.06968e-05
6.11871e-05
-5.06252e-06
-1.2535e-05
5.65798e-05
-3.78987e-06
-1.4931e-05
5.41776e-05
-3.06111e-06
-1.57106e-05
5.47687e-05
-9.6727e-07
-1.41824e-05
5.79154e-05
2.18852e-06
-1.14948e-05
6.30318e-05
2.7201e-06
-8.902e-06
6.95265e-05
-1.22939e-07
-6.16163e-06
-1.39667e-06
-2.21944e-06
0.000103952
-9.70308e-06
-4.4671e-06
0.000113251
-7.54279e-06
2.96932e-06
0.000119856
-9.06022e-06
1.1996e-05
0.000120868
-1.02429e-05
1.95552e-05
0.00011685
-8.58994e-06
2.28773e-05
0.00011187
-5.8074e-06
2.17166e-05
0.000108933
-3.64137e-06
1.89131e-05
0.000107766
-2.61208e-06
1.71716e-05
0.000106756
-2.08263e-06
1.67613e-05
0.00010491
-1.66137e-06
1.60408e-05
0.000101749
-1.28454e-06
1.37185e-05
9.68325e-05
-1.28391e-06
1.11195e-05
8.99128e-05
-2.90663e-06
1.10457e-05
8.16063e-05
-6.98228e-06
1.38029e-05
7.37959e-05
-1.16681e-05
1.62975e-05
6.81924e-05
-1.38934e-05
1.61531e-05
6.51252e-05
-1.2003e-05
1.4073e-05
6.4325e-05
-8.1468e-06
1.15589e-05
6.53005e-05
-4.69649e-06
9.23607e-06
6.72603e-05
-2.00279e-06
7.42905e-06
6.95728e-05
-1.5741e-06
6.60481e-06
7.22043e-05
-6.99333e-06
7.49222e-06
7.5664e-05
-1.99081e-05
1.00959e-05
8.076e-05
-3.51349e-05
1.23709e-05
8.81452e-05
-4.471e-05
1.13468e-05
9.71668e-05
-4.45499e-05
5.6799e-06
0.000105311
-3.52455e-05
-3.01703e-06
0.0001097
-2.05425e-05
-1.0996e-05
0.000109583
-7.30767e-06
-1.5723e-05
0.000106076
-2.26377e-06
-1.59701e-05
0.000100836
-5.11317e-06
-1.30256e-05
9.48121e-05
-7.75701e-06
-1.09303e-05
8.81038e-05
-6.40959e-06
-1.21511e-05
8.10347e-05
-4.43183e-06
-1.53244e-05
7.51448e-05
-3.70067e-06
-1.7937e-05
7.23327e-05
-2.35385e-06
-1.86451e-05
7.33784e-05
-4.30418e-07
-1.78659e-05
7.80856e-05
-2.04663e-06
-1.65558e-05
8.55771e-05
-7.98885e-06
-1.44523e-05
-1.16684e-05
-1.05649e-05
0.000117888
-2.47558e-05
-1.72397e-05
0.00012976
-2.30091e-05
-9.18679e-06
0.000142679
-2.53162e-05
1.70441e-06
0.000149855
-2.29851e-05
1.41188e-05
0.00014764
-1.55494e-05
2.32082e-05
0.00014113
-8.45729e-06
2.53469e-05
0.000136895
-4.97214e-06
2.22944e-05
0.000136116
-3.8626e-06
1.91187e-05
0.000136221
-3.12273e-06
1.8874e-05
0.000135353
-2.55618e-06
2.01218e-05
0.000133278
-2.22279e-06
1.88137e-05
0.000129757
-1.53782e-06
1.42222e-05
0.00012376
-1.53493e-06
1.1189e-05
0.000114294
-4.28261e-06
1.3301e-05
0.000102489
-8.94177e-06
1.77823e-05
9.16567e-05
-1.26412e-05
1.97536e-05
8.44363e-05
-1.28642e-05
1.83729e-05
8.12962e-05
-1.02213e-05
1.57921e-05
8.11785e-05
-6.65567e-06
1.33608e-05
8.25873e-05
-2.98314e-06
1.15321e-05
8.44121e-05
-1.94413e-06
1.08998e-05
8.62819e-05
-9.05996e-06
1.26185e-05
8.83972e-05
-2.66106e-05
1.6984e-05
9.14289e-05
-4.79395e-05
2.1873e-05
9.68212e-05
-6.31581e-05
2.37715e-05
0.000106385
-6.67304e-05
1.98675e-05
0.000119819
-5.79259e-05
1.02201e-05
0.000132326
-3.93679e-05
-2.89216e-06
0.000138818
-1.82393e-05
-1.366e-05
0.000138463
-7.21365e-06
-1.76279e-05
0.000133605
-7.90226e-06
-1.52523e-05
0.000126963
-9.84978e-06
-1.1524e-05
0.00011978
-7.5879e-06
-1.10325e-05
0.000111864
-4.69758e-06
-1.37975e-05
0.000103632
-3.19775e-06
-1.74113e-05
9.68422e-05
-1.43588e-06
-2.02855e-05
9.33837e-05
-5.63175e-07
-2.25133e-05
9.45688e-05
-5.88075e-06
-2.44902e-05
0.00010029
-1.74633e-05
-2.50515e-05
-2.56179e-05
-2.25938e-05
0.000130334
-3.91372e-05
-3.17187e-05
0.000139388
-3.79861e-05
-2.422e-05
0.000154712
-4.42429e-05
-1.31716e-05
0.000170224
-4.45481e-05
1.72181e-06
0.000174383
-2.97161e-05
1.73308e-05
0.000167589
-1.31934e-05
2.6258e-05
0.000161231
-6.47587e-06
2.59427e-05
0.000161378
-6.55619e-06
2.10098e-05
0.000164326
-5.89481e-06
1.87462e-05
0.000165263
-3.95152e-06
2.15542e-05
0.000164077
-3.45213e-06
2.39429e-05
0.000162484
-3.41294e-06
1.99877e-05
0.000159851
-2.64651e-06
1.3333e-05
0.000153044
-3.20536e-06
1.23429e-05
0.000140154
-5.64515e-06
1.75403e-05
0.000123908
-8.30506e-06
2.22313e-05
0.000110053
-9.86892e-06
2.25661e-05
0.000102217
-9.77545e-06
2.02391e-05
9.98733e-05
-7.59362e-06
1.75436e-05
0.000100728
-3.62343e-06
1.53853e-05
0.000103054
-1.88798e-06
1.41699e-05
0.000105805
-9.84614e-06
1.52034e-05
0.000108016
-3.00302e-05
1.94845e-05
0.000109176
-5.51585e-05
2.58404e-05
0.000110442
-7.48812e-05
3.12724e-05
0.000115286
-8.30088e-05
3.18893e-05
0.000127407
-7.79392e-05
2.48506e-05
0.000145414
-6.02643e-05
1.087e-05
0.000161526
-3.51846e-05
-5.53872e-06
0.000168254
-1.67819e-05
-1.56367e-05
0.000165097
-1.15601e-05
-1.6641e-05
0.000157666
-1.08722e-05
-1.28812e-05
0.000150929
-8.40634e-06
-1.00348e-05
0.000144865
-5.44235e-06
-1.07453e-05
0.000137739
-2.38577e-06
-1.40085e-05
0.00012992
1.75336e-06
-1.79663e-05
0.000122996
3.81652e-06
-2.26048e-05
0.000118862
-4.07536e-06
-2.84584e-05
0.000119483
-2.24509e-05
-3.38341e-05
-3.7688e-05
-3.52191e-05
0.000149345
-4.84636e-05
-4.55456e-05
0.000154012
-4.75004e-05
-3.95274e-05
0.000165327
-5.72706e-05
-2.75114e-05
0.000183661
-6.61897e-05
-1.1519e-05
0.00019648
-5.24416e-05
7.47555e-06
0.000193588
-2.36552e-05
2.2891e-05
0.000183269
-7.02154e-06
2.77714e-05
0.000180318
-7.94639e-06
2.30068e-05
0.000187016
-1.17814e-05
1.69761e-05
0.000192953
-8.24826e-06
1.7964e-05
0.000191575
-2.88909e-06
2.37608e-05
0.000188024
-2.80297e-06
2.42245e-05
0.000188682
-6.77691e-06
1.72714e-05
0.000190192
-9.91476e-06
1.27218e-05
0.000183672
-9.09919e-06
1.66556e-05
0.000166602
-5.74451e-06
2.33699e-05
0.000145928
-3.81867e-06
2.60016e-05
0.000130536
-4.83907e-06
2.45894e-05
0.000123509
-5.62044e-06
2.19776e-05
0.000122848
-3.57363e-06
1.97106e-05
0.000125875
-2.29667e-06
1.77221e-05
0.000130541
-1.06676e-05
1.69627e-05
0.000134604
-3.10039e-05
1.89679e-05
0.000136071
-5.60786e-05
2.45084e-05
0.000134682
-7.71477e-05
3.21315e-05
0.000133529
-8.84117e-05
3.82216e-05
0.000139275
-8.8368e-05
3.6926e-05
0.000155828
-7.67714e-05
2.50503e-05
0.000177573
-5.48597e-05
6.78906e-06
0.000190857
-3.02144e-05
-9.5228e-06
0.000186771
-1.28015e-05
-1.53982e-05
0.000172629
-3.88004e-06
-1.35664e-05
0.000162878
-3.86559e-06
-8.94454e-06
0.000162311
-7.93657e-06
-6.00568e-06
0.000164861
-6.70514e-06
-6.98397e-06
0.000164384
2.26988e-06
-1.1002e-05
0.00016029
9.87279e-06
-1.70828e-05
0.000154183
3.68881e-06
-2.57317e-05
0.000148735
-1.83516e-05
-3.62232e-05
-4.16856e-05
-4.41851e-05
0.000176068
-4.83822e-05
-5.50322e-05
0.000176661
-4.99797e-05
-5.45722e-05
0.00018296
-6.07096e-05
-4.29081e-05
0.00019756
-7.85527e-05
-2.49158e-05
0.000215264
-7.54646e-05
-4.75024e-06
0.000221862
-4.42661e-05
1.5769e-05
0.000213521
-1.31244e-05
2.64187e-05
0.000202896
-6.02978e-06
2.45134e-05
0.000203951
-1.48971e-05
1.58558e-05
0.000214864
-1.72167e-05
1.18599e-05
0.000220184
-6.28936e-06
1.66361e-05
0.00021384
3.17324e-06
2.10723e-05
0.000208082
-2.95993e-06
1.76109e-05
0.000213574
-1.9269e-05
1.23672e-05
0.000221011
-2.59023e-05
1.4909e-05
0.000214294
-1.56241e-05
2.31106e-05
0.000193089
-1.745e-06
2.81018e-05
0.000170226
3.42944e-06
2.78262e-05
0.000155321
2.01688e-06
2.58252e-05
0.000150081
-8.73961e-08
2.46544e-05
0.000152468
-3.20527e-06
2.30348e-05
0.000159327
-1.46228e-05
2.00143e-05
0.000166277
-3.42168e-05
1.73335e-05
0.000169356
-5.51098e-05
1.91707e-05
0.00016734
-7.28177e-05
2.70149e-05
0.000162114
-8.37605e-05
3.75149e-05
0.000160415
-8.70017e-05
4.32553e-05
0.000170386
-8.34748e-05
3.60746e-05
0.000190813
-7.01405e-05
1.71237e-05
0.000206458
-4.39294e-05
-2.83344e-06
0.000202562
-1.29854e-05
-1.34751e-05
0.000183793
8.78709e-06
-1.40295e-05
0.000168019
9.24587e-06
-8.23673e-06
0.000165833
-4.44527e-06
-7.17849e-07
0.000174889
-1.19236e-05
3.27822e-06
0.000186383
-3.04417e-06
1.2839e-06
0.000193507
1.04445e-05
-5.01227e-06
0.000193815
1.18967e-05
-1.56848e-05
0.000187751
-6.8357e-06
-3.02146e-05
-3.41161e-05
-4.52764e-05
0.000210754
-3.62217e-05
-5.63243e-05
0.000205236
-4.39454e-05
-6.56731e-05
0.000207807
-5.64867e-05
-5.9413e-05
0.000217849
-7.9228e-05
-4.06097e-05
0.000233767
-8.99993e-05
-1.80273e-05
0.000247497
-6.95936e-05
4.46534e-06
0.000248627
-3.15012e-05
2.07606e-05
0.000237686
-8.81855e-06
2.42745e-05
0.000227374
-1.12718e-05
1.63664e-05
0.000230149
-2.04623e-05
7.51982e-06
0.000242175
-1.54843e-05
7.70781e-06
0.000246809
6.82684e-07
1.38269e-05
0.000239129
4.46969e-06
1.54081e-05
0.000234708
-1.6791e-05
1.14979e-05
0.000244523
-4.18082e-05
1.1859e-05
0.000253532
-3.94481e-05
2.02009e-05
0.00024402
-1.38926e-05
2.78608e-05
0.000220987
7.23138e-06
2.89369e-05
0.000198779
1.40461e-05
2.73537e-05
0.000185448
1.09193e-05
2.82641e-05
0.000183365
-2.97134e-07
2.93752e-05
0.000191175
-2.15177e-05
2.50894e-05
0.000202628
-4.41339e-05
1.55624e-05
0.000209539
-5.81872e-05
9.5249e-06
0.000208152
-6.65132e-05
1.48702e-05
0.000199868
-7.26238e-05
2.94861e-05
0.000190947
-7.56603e-05
4.32113e-05
0.000191329
-7.77681e-05
4.3224e-05
0.000204936
-7.47662e-05
2.62511e-05
0.000219804
-5.38393e-05
4.59736e-06
0.000219323
-1.42987e-05
-1.0784e-05
0.000203129
1.96532e-05
-1.47601e-05
0.000185897
2.41562e-05
-1.01879e-05
0.000179023
4.90471e-06
9.48077e-08
0.000184629
-1.13299e-05
1.00213e-05
0.000198384
-7.83969e-06
1.43437e-05
0.000214237
6.3892e-06
1.17101e-05
0.000226171
1.348e-05
1.96793e-06
0.000228556
4.47731e-06
-1.58509e-05
-1.78825e-05
-3.72982e-05
0.000253082
-1.53544e-05
-4.94202e-05
0.000241148
-2.87618e-05
-6.90547e-05
0.000239339
-4.75941e-05
-7.23479e-05
0.000247103
-7.28232e-05
-5.76119e-05
0.000258852
-9.18175e-05
-3.42802e-05
0.000271556
-8.71925e-05
-1.0696e-05
0.000279335
-5.72312e-05
1.05546e-05
0.00027542
-2.29115e-05
2.05199e-05
0.000262072
-8.54843e-06
1.65413e-05
0.000252749
-1.38178e-05
5.6435e-06
0.000258312
-1.8865e-05
1.52622e-06
0.000271814
-1.0723e-05
7.97066e-06
0.000276091
-9.86708e-07
1.45219e-05
0.000268617
-1.20397e-05
1.29431e-05
0.000266672
-4.268e-05
9.60248e-06
0.000277873
-5.88925e-05
1.47947e-05
0.000284569
-3.85164e-05
2.40749e-05
0.000273524
-3.19192e-06
2.73712e-05
0.000251829
2.09733e-05
2.6312e-05
0.000231843
2.62511e-05
2.90797e-05
0.000221301
1.2426e-05
3.31138e-05
0.000224155
-2.01891e-05
2.73318e-05
0.000237952
-5.35885e-05
1.05204e-05
0.000252119
-6.74352e-05
-3.7378e-06
0.000255745
-6.36689e-05
-3.91998e-06
0.000246507
-5.98285e-05
1.38607e-05
0.000230939
-5.8524e-05
3.64104e-05
0.000220511
-6.09921e-05
4.65893e-05
0.000223921
-6.51337e-05
3.49154e-05
0.000235046
-5.34254e-05
1.21827e-05
0.000238528
-1.47249e-05
-6.46772e-06
0.00022982
2.53079e-05
-1.51243e-05
0.000217416
3.48421e-05
-1.52985e-05
0.000209233
1.56056e-05
-7.41741e-06
0.000208548
-3.90989e-06
4.38677e-06
0.000215533
-5.71407e-06
1.5441e-05
0.000229302
3.77997e-06
2.10441e-05
0.00024803
8.70896e-06
1.81678e-05
0.000263109
5.72857e-06
3.89968e-06
-2.66297e-06
-2.2177e-05
0.000299372
2.93975e-06
-3.83353e-05
0.000285054
-8.82048e-06
-6.60598e-05
0.000278587
-3.56075e-05
-7.82269e-05
0.000284468
-6.44259e-05
-7.06333e-05
0.000293946
-8.50646e-05
-5.06586e-05
0.000300869
-9.15002e-05
-2.68943e-05
0.000306052
-7.65656e-05
-4.02739e-06
0.000306596
-4.35043e-05
1.27033e-05
0.000298124
-1.29798e-05
1.44724e-05
0.000286054
-4.30567e-06
4.98337e-06
0.000283396
-1.30065e-05
-1.39706e-06
0.000294404
-1.88546e-05
4.00306e-06
0.00030665
-1.42333e-05
1.41629e-05
0.000306776
-1.50811e-05
1.59574e-05
0.00029905
-3.60501e-05
9.49817e-06
0.000299226
-6.05883e-05
7.87834e-06
0.000308249
-5.65308e-05
1.54668e-05
0.000310487
-2.36338e-05
2.27211e-05
0.000298407
1.21463e-05
2.62611e-05
0.000279193
3.20785e-05
3.09999e-05
0.000263342
2.8963e-05
3.31169e-05
0.00025714
-1.08516e-06
2.1064e-05
0.000265317
-4.58344e-05
-1.2755e-06
0.000285393
-7.50037e-05
-1.82212e-05
0.000300849
-7.07502e-05
-1.97968e-05
0.000297204
-5.38423e-05
-2.92202e-06
0.000277954
-4.36339e-05
2.60385e-05
0.000258033
-4.07095e-05
4.62165e-05
0.000250581
-4.41214e-05
4.28637e-05
0.000255602
-3.90337e-05
2.13739e-05
0.00026084
-8.4196e-06
-2.27496e-07
0.000259307
2.84895e-05
-1.39636e-05
0.000254388
3.90744e-05
-2.07445e-05
0.000249902
2.20028e-05
-1.89522e-05
0.000246764
3.70663e-06
-8.92883e-06
0.000246376
2.27187e-06
3.61224e-06
0.000251872
7.26751e-06
1.4639e-05
0.000268207
2.19052e-06
2.06743e-05
0.000291457
-5.30061e-06
1.55207e-05
-1.00866e-06
-6.59446e-06
0.000347534
8.73898e-06
-2.83188e-05
0.000336408
7.56187e-06
-5.95485e-05
0.000326385
-2.06989e-05
-7.90086e-05
0.000328556
-5.1873e-05
-7.86537e-05
0.000336739
-7.19174e-05
-6.41892e-05
0.000339662
-8.34592e-05
-4.37239e-05
0.000337583
-8.27849e-05
-2.00714e-05
0.000335137
-5.99437e-05
1.65438e-06
0.000330306
-2.26581e-05
1.0863e-05
0.000322038
1.81194e-06
5.32914e-06
0.000317434
-1.49975e-06
-2.0563e-06
0.00032415
-1.7733e-05
1.12349e-06
0.000337814
-2.42308e-05
1.29785e-05
0.000344901
-2.15537e-05
1.93944e-05
0.000339179
-2.91754e-05
1.31122e-05
0.000329014
-4.85499e-05
4.06444e-06
0.000323899
-5.50885e-05
5.93187e-06
0.000320952
-3.56455e-05
1.76406e-05
0.000314649
-4.84691e-06
2.93848e-05
0.00030615
2.14817e-05
3.39586e-05
0.000299554
3.37479e-05
2.66327e-05
0.000294655
1.99194e-05
5.90982e-06
0.000294987
-2.31566e-05
-1.64912e-05
0.000311014
-7.03605e-05
-3.00688e-05
0.000335975
-8.32979e-05
-2.67692e-05
0.000344604
-6.36088e-05
-7.99968e-06
0.000327408
-3.98469e-05
2.04397e-05
0.000300513
-2.59957e-05
4.50823e-05
0.000284048
-2.19048e-05
4.99908e-05
0.000283764
-1.66341e-05
3.24657e-05
0.000290549
5.148e-06
8.23238e-06
0.000294958
3.22869e-05
-1.05272e-05
0.000296887
3.74222e-05
-2.32412e-05
0.000298035
2.05345e-05
-2.85381e-05
0.000297249
5.70636e-06
-2.42499e-05
0.000294329
7.57774e-06
-1.41334e-05
0.000293066
1.23118e-05
-2.34767e-06
0.000300891
2.01378e-07
8.32601e-06
0.000321475
-1.72285e-05
1.18666e-05
-1.13385e-05
3.03585e-09
0.000389095
5.37197e-06
-2.38192e-05
0.000389485
1.40908e-05
-5.19837e-05
0.000380858
-6.0383e-06
-7.47581e-05
0.000379208
-3.36765e-05
-8.18393e-05
0.000386419
-5.26097e-05
-7.40468e-05
0.00038963
-6.78822e-05
-5.82228e-05
0.000382775
-7.79361e-05
-3.65817e-05
0.000372872
-6.625e-05
-1.25584e-05
0.00036507
-3.04943e-05
3.94527e-06
0.000358823
4.33362e-06
5.09591e-06
0.000355589
1.11761e-05
-3.50341e-07
0.000360161
-7.82972e-06
1.15242e-06
0.000372561
-2.49983e-05
1.21461e-05
0.000383028
-2.61356e-05
2.27357e-05
0.000380089
-2.48595e-05
2.0688e-05
0.000363172
-3.27304e-05
8.10531e-06
0.000342303
-3.80572e-05
1.09986e-06
0.000326967
-2.89494e-05
7.77735e-06
0.000321723
-1.12288e-05
1.8459e-05
0.000326379
6.9347e-06
1.90268e-05
0.000335528
2.37234e-05
6.09699e-06
0.000340591
2.57456e-05
-1.37822e-05
0.000340938
-1.8863e-06
-3.26312e-05
0.000348988
-5.18172e-05
-3.96228e-05
0.000370996
-8.61521e-05
-2.94437e-05
0.000386652
-7.86055e-05
-6.45292e-06
0.000375042
-4.66889e-05
2.14853e-05
0.000345403
-1.907e-05
4.48557e-05
0.000322331
-5.40464e-06
5.37466e-05
0.000317885
2.81052e-06
4.07993e-05
0.000325037
1.88445e-05
1.63555e-05
0.000331376
3.69229e-05
-4.75723e-06
0.000333561
3.71892e-05
-1.8785e-05
0.000335812
1.81921e-05
-2.80294e-05
0.000340494
1.63887e-06
-3.19715e-05
0.000344766
3.33067e-06
-2.86702e-05
0.00034573
1.10512e-05
-1.76525e-05
0.000345973
2.88502e-06
-3.30729e-06
0.000354345
-1.63426e-05
4.38808e-06
-1.67628e-05
-2.44093e-06
0.00041636
5.48041e-06
-2.23242e-05
0.000433086
1.39477e-05
-4.52789e-05
0.000435376
4.16777e-06
-6.66523e-05
0.000434859
-1.35102e-05
-7.98814e-05
0.000442636
-2.97191e-05
-8.04646e-05
0.000449081
-4.83627e-05
-7.05371e-05
0.000441233
-6.57423e-05
-5.29139e-05
0.000423685
-6.27013e-05
-2.97729e-05
0.000408662
-3.20495e-05
-8.66527e-06
0.000400496
5.30909e-06
2.7735e-06
0.000398069
1.9995e-05
4.49388e-06
0.000401174
5.54966e-06
5.57495e-06
0.000409647
-1.59735e-05
1.19719e-05
0.000418461
-2.44149e-05
2.20928e-05
0.000418069
-2.36206e-05
2.65991e-05
0.000403761
-2.39902e-05
1.85285e-05
0.000381745
-2.17892e-05
2.85972e-06
0.00036348
-1.30577e-05
-6.24279e-06
0.000357602
-5.32518e-06
-4.5019e-06
0.000365231
-1.64456e-06
-1.15831e-06
0.000379169
5.99364e-06
-4.91764e-06
0.000389453
1.55097e-05
-1.79204e-05
0.000393241
8.19304e-06
-3.30862e-05
0.000398362
-2.8296e-05
-3.96223e-05
0.000413438
-7.25947e-05
-2.98364e-05
0.000428034
-8.46764e-05
-6.20263e-06
0.000421043
-5.54691e-05
1.97904e-05
0.000393496
-1.5837e-05
4.19448e-05
0.000367373
9.10009e-06
5.47895e-05
0.000356953
2.01742e-05
4.8195e-05
0.000356854
3.08246e-05
2.62858e-05
0.000356382
4.15925e-05
6.8977e-06
0.000354193
3.73389e-05
-2.63835e-06
0.000356122
1.45891e-05
-9.84151e-06
0.00036572
-7.54953e-06
-2.06964e-05
0.00037859
-1.07532e-05
-2.70953e-05
0.000386023
-2.43401e-08
-1.84434e-05
0.000385168
4.15031e-06
-7.14506e-07
0.000384111
-4.05219e-06
7.28497e-06
-6.61937e-06
-2.40766e-06
0.000442556
2.03552e-05
-1.44512e-05
0.000466668
2.03148e-05
-3.85957e-05
0.00048337
1.03466e-05
-5.69549e-05
0.000493328
-3.04865e-07
-6.99309e-05
0.000505783
-9.84025e-06
-7.71312e-05
0.000515539
-2.68437e-05
-7.66829e-05
0.000508072
-4.70926e-05
-6.67791e-05
0.000484473
-4.91892e-05
-4.78496e-05
0.000460796
-2.41322e-05
-2.48675e-05
0.00044746
9.68327e-06
-6.98602e-06
0.000443609
2.37637e-05
3.94532e-06
0.000445581
1.32075e-05
9.80589e-06
0.0004506
-5.96895e-06
1.57806e-05
0.000454046
-1.58368e-05
2.27428e-05
0.000450484
-1.74654e-05
2.71026e-05
0.000438991
-1.77997e-05
2.25928e-05
0.000425577
-1.34966e-05
6.41904e-06
0.00041677
-3.72137e-06
-1.14183e-05
0.000415374
-8.07388e-07
-1.59249e-05
0.000421109
-8.93041e-06
-7.52122e-06
0.000429859
-1.2018e-05
-1.45179e-06
0.000435177
4.04846e-07
-6.22531e-06
0.000436529
1.02275e-05
-1.63718e-05
0.0004403
-8.24186e-06
-2.32247e-05
0.000452463
-5.07796e-05
-2.05013e-05
0.000467432
-7.91347e-05
-3.61684e-06
0.000468558
-6.19654e-05
1.95591e-05
0.000449758
-1.65373e-05
3.95445e-05
0.000424387
2.29704e-05
5.06656e-05
0.000405121
4.02697e-05
4.87173e-05
0.000391763
4.33733e-05
3.5831e-05
0.000382599
4.27052e-05
2.17863e-05
0.000380078
3.55403e-05
1.22231e-05
0.000385929
1.56366e-05
5.80422e-06
0.00039903
-9.6697e-06
-2.70753e-06
0.000414135
-2.146e-05
-1.17822e-05
0.000423499
-1.22577e-05
-1.17298e-05
0.000423886
4.26575e-06
1.40528e-06
0.000420152
1.23023e-05
1.40204e-05
1.51674e-05
8.11508e-06
0.000480906
3.70587e-05
5.37035e-06
0.000502805
2.91189e-05
-1.89873e-05
0.000524891
1.17164e-05
-3.92014e-05
0.000545184
-5.59111e-07
-5.53234e-05
0.000565842
-3.95752e-06
-6.73624e-05
0.000579917
-1.06698e-05
-7.37454e-05
0.000574449
-2.43746e-05
-7.21973e-05
0.000550132
-2.87593e-05
-6.09132e-05
0.000522649
-1.14093e-05
-4.05815e-05
0.000503611
1.54717e-05
-1.81735e-05
0.00049402
2.69275e-05
-1.77388e-06
0.000489991
1.7808e-05
8.3378e-06
0.000489402
2.89761e-06
1.61922e-05
0.000488638
-6.12365e-06
2.52844e-05
0.00048448
-9.32017e-06
2.9168e-05
0.000478157
-1.0399e-05
2.09258e-05
0.000475959
-7.27533e-06
1.7538e-06
0.000480527
-2.25043e-07
-1.62071e-05
0.000486956
-2.12896e-06
-1.7456e-05
0.00048806
-1.6661e-05
-2.10262e-06
0.000482266
-2.50739e-05
1.26746e-05
0.000474917
-1.0342e-05
1.4061e-05
0.00047399
1.15588e-05
6.83602e-06
0.000482707
9.7908e-06
-7.19984e-09
0.000497584
-2.43612e-05
-6.57466e-07
0.000511294
-6.17328e-05
7.17256e-06
0.000514053
-6.05538e-05
2.19005e-05
0.000499047
-1.59783e-05
3.7465e-05
0.000474586
3.33171e-05
4.75564e-05
0.000450207
5.71298e-05
4.51471e-05
0.000429852
5.65017e-05
3.37953e-05
0.000417347
4.79816e-05
2.65884e-05
0.000416464
3.89796e-05
2.71565e-05
0.000425769
2.54487e-05
2.58937e-05
0.000440346
6.24233e-06
1.58785e-05
0.000454634
-8.26303e-06
3.79572e-06
0.000462923
-5.59843e-06
8.45645e-07
0.000464149
1.04556e-05
1.01307e-05
0.000462555
2.51481e-05
2.21231e-05
3.41163e-05
2.11206e-05
0.000531488
4.18409e-05
3.15296e-05
0.000546887
3.24806e-05
7.27522e-06
0.000567669
9.13597e-06
-2.12096e-05
0.000591854
-1.38834e-05
-3.80876e-05
0.000617047
-2.03356e-05
-4.75021e-05
0.000633745
-1.34198e-05
-5.8109e-05
0.000632595
-8.00192e-06
-6.88966e-05
0.000617298
-6.43629e-06
-7.19846e-05
0.00059941
2.45339e-06
-6.08176e-05
0.000585119
1.87952e-05
-3.77628e-05
0.000571422
2.77569e-05
-1.39986e-05
0.000555723
2.31851e-05
2.01766e-06
0.000540655
1.26456e-05
1.17268e-05
0.000530831
2.44067e-06
2.18008e-05
0.000527883
-7.59092e-06
3.06385e-05
0.000533003
-1.84255e-05
3.12081e-05
0.00054766
-2.5136e-05
2.06479e-05
0.00056765
-2.49766e-05
5.71536e-06
0.000579576
-2.37719e-05
-6.93744e-07
0.000572707
-2.68839e-05
1.18602e-05
0.000552373
-2.57477e-05
3.62834e-05
0.000533972
-8.24696e-06
5.23667e-05
0.000529061
1.93545e-05
4.47932e-05
0.000537227
3.19511e-05
1.72178e-05
0.000551155
1.19607e-05
-6.97422e-06
0.000563142
-2.84468e-05
-6.47767e-06
0.000564461
-4.72096e-05
1.32588e-05
0.000548054
-1.8883e-05
3.38241e-05
0.000520308
3.3201e-05
4.40154e-05
0.000493187
6.83557e-05
4.30527e-05
0.000474387
7.6241e-05
3.44932e-05
0.000466648
6.8795e-05
2.69007e-05
0.000469021
5.62374e-05
2.4496e-05
0.000477552
4.08051e-05
2.35968e-05
0.000489464
2.37462e-05
1.87113e-05
0.000503463
1.1047e-05
9.64326e-06
0.000516318
1.07876e-05
3.70138e-06
0.000523224
2.09991e-05
1.00588e-05
0.000523399
3.14536e-05
2.67442e-05
3.87622e-05
3.84209e-05
0.000582153
2.49743e-05
4.79256e-05
0.000598821
1.33496e-05
3.21563e-05
0.000619614
-5.70485e-06
1.64145e-06
0.000641752
-2.51427e-05
-2.84281e-05
0.000665579
-3.17125e-05
-4.63868e-05
0.000685835
-2.09976e-05
-5.35124e-05
0.000691578
-2.7517e-06
-5.74316e-05
0.00068018
1.18168e-05
-6.24467e-05
0.000662346
2.1923e-05
-6.3372e-05
0.000650358
2.85926e-05
-5.3514e-05
0.000645151
2.90056e-05
-3.6169e-05
0.000638902
2.2842e-05
-1.95035e-05
0.000626793
1.44666e-05
-7.28724e-06
0.000610813
6.20412e-06
4.03964e-06
0.000597574
-4.76153e-06
1.72908e-05
0.000594434
-2.19726e-05
3.00781e-05
0.000606901
-4.14665e-05
3.56831e-05
0.000631192
-5.5738e-05
3.08456e-05
0.000649768
-5.85896e-05
2.19339e-05
0.000646545
-4.77325e-05
2.25832e-05
0.00062531
-2.64561e-05
3.87319e-05
0.000602855
1.66122e-06
5.62126e-05
0.000589817
2.82762e-05
5.2279e-05
0.000586634
3.91032e-05
1.99498e-05
0.000591049
2.29805e-05
-1.7261e-05
0.000602156
-1.25934e-05
-3.11916e-05
0.000610358
-3.97879e-05
-1.1245e-05
0.000604734
-2.87273e-05
1.8286e-05
0.000586232
1.73472e-05
3.85835e-05
0.000567899
6.27602e-05
4.29736e-05
0.000559522
8.53913e-05
3.2238e-05
0.000559606
8.61527e-05
1.36985e-05
0.000562386
7.29703e-05
-1.98334e-06
0.00056428
5.21619e-05
-6.5602e-06
0.000565993
3.07997e-05
-4.71721e-07
0.000569811
1.86129e-05