/*--------------------------------*- C++ -*----------------------------------*\
| =========                 |                                                 |
| \\      /  F ield         | OpenFOAM: The Open Source CFD Toolbox           |
|  \\    /   O peration     | Version:  2306                                  |
|   \\  /    A nd           | Website:  www.openfoam.com                      |
|    \\/     M anipulation  |                                                 |
\*---------------------------------------------------------------------------*/
FoamFile
{
    version     2.0;
    format      ascii;
    arch        "LSB;label=32;scalar=64";
    class       volScalarField;
    location    "4";
    object      pPrime2Mean;
}
// * * * * * * * * * * * * * * * * * * * * * * * * * * * * * * * * * * * * * //

dimensions      [0 4 -4 0 0 0 0];

internalField   nonuniform List<scalar> 
60000
(
4.77706e-10
5.36343e-09
9.62692e-09
9.21784e-09
7.32856e-09
6.37747e-09
5.86105e-09
4.73477e-09
2.76221e-09
2.34004e-09
6.19291e-09
1.05317e-08
1.05932e-08
7.83629e-09
5.22928e-09
3.68095e-09
3.1563e-09
3.22992e-09
2.64408e-09
1.34573e-09
1.76834e-09
6.38634e-09
1.144e-08
1.12373e-08
7.50339e-09
4.39145e-09
2.04443e-09
2.06938e-09
6.50891e-09
1.04944e-08
8.68794e-09
4.87541e-09
2.88825e-09
2.64085e-09
3.00176e-09
3.59204e-09
5.18617e-09
7.30343e-09
6.38457e-09
1.81984e-09
4.05249e-10
5.21535e-09
9.61182e-09
9.29164e-09
7.36369e-09
6.35296e-09
5.82639e-09
4.72285e-09
2.75038e-09
2.3007e-09
6.17992e-09
1.0582e-08
1.06645e-08
7.88914e-09
5.25323e-09
3.67966e-09
3.15584e-09
3.23933e-09
2.65611e-09
1.34245e-09
1.7426e-09
6.37989e-09
1.14775e-08
1.12666e-08
7.50459e-09
4.39894e-09
2.04611e-09
2.03569e-09
6.48627e-09
1.05714e-08
8.80916e-09
4.93884e-09
2.92636e-09
2.67038e-09
3.01648e-09
3.57421e-09
5.17446e-09
7.38999e-09
6.59943e-09
1.97996e-09
3.4164e-10
5.17895e-09
9.78413e-09
9.51068e-09
7.48395e-09
6.37144e-09
5.81857e-09
4.75322e-09
2.77969e-09
2.21564e-09
6.094e-09
1.06655e-08
1.08467e-08
8.03398e-09
5.33055e-09
3.71294e-09
3.17336e-09
3.25831e-09
2.6715e-09
1.326e-09
1.71564e-09
6.4328e-09
1.15922e-08
1.13283e-08
7.4973e-09
4.41022e-09
2.05416e-09
1.95644e-09
6.4378e-09
1.0698e-08
8.97338e-09
5.01007e-09
2.96882e-09
2.72347e-09
3.03882e-09
3.54992e-09
5.17991e-09
7.54895e-09
6.90742e-09
2.17563e-09
2.88624e-10
5.28425e-09
1.01913e-08
9.91306e-09
7.70994e-09
6.44922e-09
5.84417e-09
4.81293e-09
2.84791e-09
2.09806e-09
5.91096e-09
1.07399e-08
1.1135e-08
8.29386e-09
5.48107e-09
3.79457e-09
3.21845e-09
3.29827e-09
2.69156e-09
1.28856e-09
1.6977e-09
6.58552e-09
1.18192e-08
1.14299e-08
7.46629e-09
4.40073e-09
2.04955e-09
1.8556e-09
6.41292e-09
1.09101e-08
9.17809e-09
5.06633e-09
3.01181e-09
2.81995e-09
3.08904e-09
3.52826e-09
5.21395e-09
7.81295e-09
7.32238e-09
2.40544e-09
2.44008e-10
5.45496e-09
1.07323e-08
1.04543e-08
8.03676e-09
6.58189e-09
5.89435e-09
4.86579e-09
2.9374e-09
2.00323e-09
5.6152e-09
1.0666e-08
1.14032e-08
8.62748e-09
5.70614e-09
3.93013e-09
3.3091e-09
3.3606e-09
2.72754e-09
1.24296e-09
1.67857e-09
6.80824e-09
1.21305e-08
1.15806e-08
7.47801e-09
4.41179e-09
2.03221e-09
1.77043e-09
6.50032e-09
1.12673e-08
9.43118e-09
5.08258e-09
3.01965e-09
2.94868e-09
3.20235e-09
3.52133e-09
5.2957e-09
8.22769e-09
7.9083e-09
2.70201e-09
2.18355e-10
5.6796e-09
1.1332e-08
1.1035e-08
8.44594e-09
6.77371e-09
5.95082e-09
4.85911e-09
2.99136e-09
1.98997e-09
5.32538e-09
1.03824e-08
1.14737e-08
8.90401e-09
5.96365e-09
4.11051e-09
3.45479e-09
3.49031e-09
2.81045e-09
1.18664e-09
1.62863e-09
7.08232e-09
1.25102e-08
1.16301e-08
7.28602e-09
4.38764e-09
2.09119e-09
1.79883e-09
6.78706e-09
1.1887e-08
9.84916e-09
5.10901e-09
2.97146e-09
3.07472e-09
3.35482e-09
3.50097e-09
5.3955e-09
8.96326e-09
8.94913e-09
3.22346e-09
1.72725e-10
5.76453e-09
1.22939e-08
1.18722e-08
8.96691e-09
7.06705e-09
6.06597e-09
4.81327e-09
2.91652e-09
2.08809e-09
5.257e-09
1.00842e-08
1.13255e-08
8.99293e-09
6.17222e-09
4.31041e-09
3.65912e-09
3.71952e-09
3.01375e-09
1.16769e-09
1.47688e-09
7.40728e-09
1.32793e-08
1.20496e-08
7.07437e-09
4.03364e-09
1.98422e-09
2.07429e-09
7.54956e-09
1.29685e-08
1.06094e-08
5.31419e-09
2.964e-09
3.14288e-09
3.42991e-09
3.37156e-09
5.29239e-09
9.66901e-09
1.07864e-08
4.64848e-09
4.04838e-10
5.19076e-09
1.30809e-08
1.33369e-08
9.84164e-09
7.45246e-09
6.23814e-09
4.84236e-09
2.80889e-09
2.10482e-09
5.6142e-09
1.02689e-08
1.11596e-08
8.91677e-09
6.25529e-09
4.50724e-09
3.92714e-09
4.06113e-09
3.36628e-09
1.22972e-09
1.26167e-09
7.87005e-09
1.45667e-08
1.303e-08
7.18811e-09
3.67611e-09
1.62586e-09
2.21421e-09
8.74529e-09
1.45114e-08
1.14405e-08
5.58862e-09
3.26154e-09
3.39652e-09
3.40021e-09
2.89751e-09
4.69177e-09
9.98915e-09
1.28874e-08
7.13543e-09
1.5007e-09
4.15755e-09
1.36792e-08
1.52923e-08
1.12995e-08
8.00247e-09
6.35013e-09
4.89187e-09
2.84235e-09
2.05513e-09
5.54719e-09
1.06856e-08
1.17805e-08
9.04669e-09
6.22151e-09
4.64669e-09
4.26844e-09
4.51658e-09
3.75688e-09
1.28939e-09
1.1845e-09
8.7444e-09
1.6283e-08
1.42004e-08
7.65342e-09
3.88745e-09
1.26424e-09
1.95331e-09
1.02678e-08
1.6986e-08
1.26543e-08
5.63417e-09
3.22103e-09
3.75971e-09
3.69155e-09
2.46614e-09
3.6738e-09
9.59276e-09
1.48012e-08
1.06096e-08
4.07803e-09
2.82823e-09
1.35842e-08
1.75129e-08
1.33342e-08
8.94046e-09
6.5199e-09
4.92831e-09
2.91283e-09
2.05894e-09
5.03287e-09
9.89895e-09
1.17536e-08
9.63349e-09
6.56583e-09
4.71438e-09
4.6028e-09
5.11008e-09
4.15459e-09
1.19084e-09
1.41904e-09
1.07029e-08
1.91325e-08
1.6018e-08
8.9179e-09
5.48601e-09
1.79799e-09
1.31375e-09
1.11794e-08
1.97013e-08
1.41227e-08
5.87226e-09
3.30961e-09
3.98525e-09
4.012e-09
2.28983e-09
2.71332e-09
8.66626e-09
1.60846e-08
1.46702e-08
8.02392e-09
1.66297e-09
1.16552e-08
1.87227e-08
1.60727e-08
1.0608e-08
7.03487e-09
5.01107e-09
3.07175e-09
2.01718e-09
4.37908e-09
8.79517e-09
1.07375e-08
9.23282e-09
6.5723e-09
4.61956e-09
4.68645e-09
5.65965e-09
4.61901e-09
1.03635e-09
1.96779e-09
1.39288e-08
2.38043e-08
1.9421e-08
1.17554e-08
9.17422e-09
4.30802e-09
6.32814e-10
1.01056e-08
2.05324e-08
1.50045e-08
6.19807e-09
3.89991e-09
4.80541e-09
4.54859e-09
2.50881e-09
1.98115e-09
7.23968e-09
1.61811e-08
1.82213e-08
1.17697e-08
1.50196e-09
7.88946e-09
1.728e-08
1.772e-08
1.29979e-08
8.25386e-09
5.29584e-09
3.17598e-09
2.04706e-09
3.82771e-09
7.50575e-09
9.34825e-09
8.0537e-09
5.69054e-09
4.01262e-09
4.132e-09
5.34849e-09
4.59772e-09
9.4946e-10
2.5774e-09
1.65492e-08
2.84183e-08
2.37111e-08
1.52482e-08
1.33371e-08
8.46101e-09
7.35848e-10
6.39461e-09
1.75386e-08
1.47605e-08
6.90164e-09
5.17376e-09
6.17186e-09
5.42266e-09
3.06876e-09
1.66761e-09
5.3938e-09
1.45573e-08
1.977e-08
1.33049e-08
2.17659e-09
3.89655e-09
1.323e-08
1.68623e-08
1.47754e-08
9.75042e-09
5.83465e-09
3.39417e-09
2.03513e-09
3.49693e-09
6.76935e-09
8.15884e-09
7.09967e-09
4.72771e-09
2.81592e-09
3.11455e-09
4.57135e-09
3.71033e-09
9.13476e-10
2.68029e-09
1.57029e-08
2.83037e-08
2.60762e-08
1.74661e-08
1.49727e-08
1.13291e-08
2.18901e-09
2.27606e-09
1.15599e-08
1.28464e-08
7.90206e-09
6.92579e-09
7.55776e-09
6.36788e-09
3.89273e-09
1.90518e-09
3.69106e-09
1.13248e-08
1.83531e-08
1.19184e-08
2.75246e-09
1.18534e-09
8.22726e-09
1.37861e-08
1.46732e-08
1.07661e-08
6.0452e-09
3.50531e-09
2.10564e-09
3.28536e-09
6.52524e-09
8.06044e-09
7.18776e-09
4.69273e-09
2.17683e-09
2.36556e-09
4.12531e-09
3.12484e-09
1.02271e-09
2.80389e-09
1.25531e-08
2.44081e-08
2.56226e-08
1.81402e-08
1.4279e-08
1.15901e-08
4.16057e-09
2.61582e-10
5.67419e-09
9.48526e-09
9.01929e-09
8.81625e-09
8.61845e-09
6.63896e-09
4.55098e-09
2.67034e-09
2.65648e-09
7.73025e-09
1.43574e-08
9.12495e-09
3.09122e-09
9.99798e-11
3.89268e-09
9.7767e-09
1.3092e-08
1.07198e-08
6.00452e-09
3.35023e-09
2.17859e-09
3.19421e-09
6.333e-09
8.22846e-09
7.62921e-09
5.33303e-09
2.57678e-09
2.26418e-09
4.01904e-09
3.08008e-09
9.63434e-10
2.71327e-09
1.0339e-08
1.9156e-08
2.25177e-08
1.84625e-08
1.38091e-08
1.13351e-08
6.17258e-09
5.5267e-10
2.21961e-09
6.98445e-09
9.4971e-09
9.83953e-09
9.11258e-09
7.00072e-09
5.12612e-09
3.29802e-09
2.57221e-09
4.75202e-09
9.6921e-09
6.50462e-09
3.1345e-09
3.90226e-10
1.30828e-09
5.98817e-09
1.07125e-08
9.85536e-09
5.45605e-09
2.81653e-09
2.11822e-09
3.42754e-09
6.09159e-09
7.77115e-09
7.46929e-09
5.70452e-09
3.42118e-09
2.79808e-09
4.15501e-09
3.3829e-09
8.17276e-10
2.72337e-09
9.18616e-09
1.42798e-08
1.64491e-08
1.65838e-08
1.3579e-08
1.04407e-08
7.3438e-09
1.90839e-09
6.82661e-10
4.74115e-09
8.43337e-09
9.44562e-09
9.32e-09
8.1669e-09
6.19869e-09
3.98595e-09
2.53628e-09
3.12864e-09
6.23549e-09
4.83559e-09
3.12988e-09
1.10521e-09
7.2783e-10
3.54952e-09
7.87123e-09
8.36845e-09
4.94414e-09
2.38562e-09
1.86439e-09
3.53438e-09
6.4397e-09
7.81785e-09
7.4375e-09
5.68549e-09
3.76895e-09
3.18192e-09
4.2618e-09
3.53021e-09
9.8723e-10
3.02031e-09
8.80013e-09
1.09302e-08
1.02954e-08
1.16734e-08
1.15562e-08
8.79049e-09
6.69331e-09
2.99325e-09
4.27704e-10
2.75948e-09
7.26936e-09
9.31474e-09
8.99541e-09
7.65729e-09
6.49352e-09
5.18088e-09
2.85546e-09
2.30203e-09
4.23442e-09
3.58506e-09
3.05668e-09
1.93897e-09
1.1075e-09
2.29442e-09
5.13914e-09
6.31456e-09
4.36773e-09
2.12265e-09
1.72743e-09
3.41953e-09
6.40446e-09
8.14901e-09
8.31732e-09
6.69631e-09
4.31738e-09
3.05591e-09
3.71032e-09
3.2171e-09
1.19128e-09
3.16831e-09
8.58957e-09
9.92229e-09
7.89074e-09
8.24948e-09
8.98255e-09
7.62044e-09
6.09681e-09
2.95235e-09
5.55622e-10
2.59166e-09
7.1102e-09
9.54021e-09
9.11803e-09
7.65293e-09
6.40996e-09
5.35343e-09
2.84741e-09
1.65309e-09
2.71132e-09
3.18243e-09
3.22895e-09
2.17683e-09
2.17459e-09
3.38592e-09
4.64145e-09
4.79562e-09
3.64922e-09
2.13109e-09
1.55676e-09
2.92003e-09
5.57216e-09
8.27716e-09
9.30836e-09
8.36213e-09
5.61011e-09
3.48109e-09
3.46387e-09
3.34523e-09
1.73999e-09
2.02433e-09
5.64335e-09
7.99071e-09
7.67918e-09
8.07706e-09
9.11441e-09
7.72987e-09
5.51971e-09
2.39218e-09
6.64253e-10
2.99309e-09
6.54435e-09
8.50702e-09
8.99932e-09
8.05919e-09
6.61718e-09
5.36938e-09
3.30053e-09
1.47171e-09
1.88687e-09
2.25033e-09
3.09651e-09
3.09911e-09
2.84853e-09
3.51633e-09
4.54154e-09
4.78449e-09
3.80846e-09
2.61399e-09
1.91179e-09
2.04242e-09
3.04246e-09
5.27781e-09
8.0353e-09
8.9828e-09
7.05193e-09
4.27222e-09
3.76512e-09
4.73463e-09
3.51724e-09
1.52941e-09
2.35697e-09
5.02081e-09
7.6196e-09
9.86394e-09
1.00774e-08
8.85851e-09
5.95015e-09
2.50859e-09
6.25517e-10
2.61319e-09
6.06984e-09
8.33727e-09
9.09851e-09
8.48429e-09
6.41132e-09
4.82933e-09
3.49854e-09
2.08425e-09
1.53615e-09
1.18034e-09
1.96272e-09
3.68752e-09
5.06821e-09
5.66637e-09
5.06766e-09
3.82454e-09
2.84597e-09
2.59133e-09
2.69255e-09
2.48636e-09
2.26819e-09
2.94954e-09
5.03384e-09
7.29932e-09
7.52277e-09
5.7739e-09
4.59875e-09
4.95958e-09
4.63584e-09
2.47841e-09
1.28155e-09
3.62055e-09
8.64584e-09
1.18466e-08
1.15383e-08
1.04314e-08
8.05063e-09
3.7744e-09
2.57397e-10
2.90194e-09
8.98712e-09
1.19241e-08
1.10148e-08
8.56091e-09
6.07664e-09
4.47405e-09
3.91579e-09
3.25742e-09
2.02896e-09
2.6877e-09
1.25196e-09
1.55359e-09
3.4525e-09
5.19073e-09
5.06762e-09
3.98725e-09
2.87785e-09
2.52775e-09
2.6145e-09
2.66069e-09
2.72056e-09
2.98242e-09
3.5052e-09
4.43212e-09
5.56398e-09
6.10767e-09
6.10293e-09
5.91142e-09
4.80763e-09
2.81189e-09
1.56186e-09
2.81934e-09
6.79341e-09
1.07862e-08
1.2118e-08
1.24358e-08
1.105e-08
6.5374e-09
8.03488e-10
2.01703e-09
1.01398e-08
1.57107e-08
1.50935e-08
1.07483e-08
6.14017e-09
3.30524e-09
2.78867e-09
3.96329e-09
4.41951e-09
3.90477e-09
2.8393e-09
1.96745e-09
1.89406e-09
2.57103e-09
3.51351e-09
3.81661e-09
3.54866e-09
3.42782e-09
3.02527e-09
2.59611e-09
2.79514e-09
3.52964e-09
4.01766e-09
3.87845e-09
3.96227e-09
4.56856e-09
5.42464e-09
5.66679e-09
4.77007e-09
3.18643e-09
2.05323e-09
2.57067e-09
4.95253e-09
7.62219e-09
8.81031e-09
8.94961e-09
8.05232e-09
5.1332e-09
1.14856e-09
1.02877e-09
6.09724e-09
1.15008e-08
1.25276e-08
9.78255e-09
6.0192e-09
3.45272e-09
2.78924e-09
3.55302e-09
4.20909e-09
4.78523e-09
2.88226e-09
1.20995e-09
1.29218e-09
2.81276e-09
4.39667e-09
5.05978e-09
5.07047e-09
4.60006e-09
3.68591e-09
2.83618e-09
2.47903e-09
2.57287e-09
3.10402e-09
4.12499e-09
5.05122e-09
5.51305e-09
5.32607e-09
5.11965e-09
4.78736e-09
3.63515e-09
2.49893e-09
1.98375e-09
2.79018e-09
5.12697e-09
7.46785e-09
7.99971e-09
6.83135e-09
4.44458e-09
1.46148e-09
7.85829e-10
3.74961e-09
7.85649e-09
9.9734e-09
8.88686e-09
6.31272e-09
3.99951e-09
3.50102e-09
4.43408e-09
5.1787e-09
5.80793e-09
4.12525e-09
1.65513e-09
7.43001e-10
2.32808e-09
4.81784e-09
6.16324e-09
6.3553e-09
5.62752e-09
4.12778e-09
2.83076e-09
2.56621e-09
3.38732e-09
4.0624e-09
3.89167e-09
3.80951e-09
4.84476e-09
6.37667e-09
6.88591e-09
5.9862e-09
4.49786e-09
2.91905e-09
1.68166e-09
1.52139e-09
3.12909e-09
5.68674e-09
7.32385e-09
7.02019e-09
4.81089e-09
2.02673e-09
1.00878e-09
2.63927e-09
5.83985e-09
8.15341e-09
7.94689e-09
6.46547e-09
4.95132e-09
4.39355e-09
4.94853e-09
6.03688e-09
4.90029e-09
5.14215e-15
3.94197e-09
1.01855e-08
1.29418e-08
1.17515e-08
8.62845e-09
5.36629e-09
2.67515e-09
2.5346e-09
6.38453e-09
9.36942e-09
8.30435e-09
5.74496e-09
3.56511e-09
2.36924e-09
2.65575e-09
3.52496e-09
3.36982e-09
1.766e-09
1.26449e-09
6.25455e-09
1.46145e-08
1.75354e-08
1.25192e-08
6.38832e-09
3.69016e-09
2.90794e-09
2.84115e-09
3.85557e-09
4.90747e-09
4.82341e-09
4.23824e-09
3.60335e-09
2.9113e-09
3.13054e-09
5.71583e-09
1.03118e-08
1.50398e-08
1.35877e-08
5.16483e-09
4.41971e-12
3.71255e-09
9.94502e-09
1.28236e-08
1.17319e-08
8.64418e-09
5.37448e-09
2.66743e-09
2.50848e-09
6.40494e-09
9.45348e-09
8.36853e-09
5.7727e-09
3.56811e-09
2.36136e-09
2.65057e-09
3.52783e-09
3.38375e-09
1.78672e-09
1.22751e-09
6.08446e-09
1.43753e-08
1.73837e-08
1.24978e-08
6.39939e-09
3.69096e-09
2.94399e-09
2.89914e-09
3.87843e-09
4.9067e-09
4.84682e-09
4.29538e-09
3.65635e-09
2.94399e-09
3.16373e-09
5.72751e-09
1.03116e-08
1.51245e-08
1.38547e-08
5.61547e-09
1.85746e-11
3.58674e-09
9.93367e-09
1.2952e-08
1.18972e-08
8.75255e-09
5.431e-09
2.66857e-09
2.43979e-09
6.40388e-09
9.56803e-09
8.47944e-09
5.82334e-09
3.57212e-09
2.33924e-09
2.6352e-09
3.53924e-09
3.41362e-09
1.81201e-09
1.18262e-09
5.96061e-09
1.42727e-08
1.73753e-08
1.25396e-08
6.40478e-09
3.67105e-09
2.98896e-09
2.97027e-09
3.8655e-09
4.83066e-09
4.81348e-09
4.363e-09
3.75468e-09
2.99458e-09
3.15382e-09
5.72278e-09
1.04189e-08
1.55298e-08
1.45231e-08
6.27629e-09
4.44258e-11
3.6354e-09
1.02288e-08
1.33526e-08
1.22467e-08
8.96158e-09
5.53583e-09
2.68547e-09
2.32411e-09
6.34103e-09
9.69025e-09
8.63361e-09
5.90576e-09
3.57975e-09
2.29798e-09
2.60884e-09
3.55699e-09
3.46099e-09
1.83119e-09
1.13778e-09
5.96434e-09
1.44211e-08
1.75646e-08
1.26251e-08
6.37245e-09
3.60189e-09
3.01233e-09
3.04465e-09
3.84242e-09
4.70852e-09
4.70014e-09
4.38469e-09
3.86855e-09
3.0695e-09
3.11935e-09
5.74167e-09
1.07371e-08
1.64414e-08
1.57533e-08
7.2481e-09
9.81894e-11
3.84722e-09
1.08039e-08
1.39833e-08
1.27402e-08
9.26122e-09
5.6611e-09
2.72931e-09
2.21634e-09
6.18032e-09
9.70249e-09
8.75566e-09
6.00965e-09
3.60226e-09
2.24189e-09
2.57114e-09
3.59303e-09
3.51637e-09
1.83929e-09
1.09817e-09
6.09484e-09
1.4799e-08
1.79297e-08
1.27748e-08
6.3532e-09
3.51793e-09
3.02061e-09
3.1228e-09
3.85543e-09
4.61869e-09
4.52543e-09
4.28216e-09
3.89983e-09
3.11188e-09
3.0782e-09
5.80933e-09
1.12848e-08
1.79141e-08
1.76927e-08
8.74473e-09
2.24785e-10
4.14274e-09
1.1528e-08
1.47121e-08
1.3304e-08
9.60786e-09
5.77389e-09
2.76154e-09
2.20742e-09
6.04869e-09
9.53797e-09
8.69698e-09
6.05872e-09
3.63655e-09
2.18608e-09
2.52253e-09
3.64381e-09
3.61189e-09
1.86099e-09
1.03472e-09
6.21148e-09
1.52315e-08
1.83898e-08
1.29959e-08
6.3397e-09
3.48704e-09
3.12341e-09
3.27112e-09
3.9508e-09
4.6604e-09
4.39746e-09
4.05673e-09
3.76816e-09
3.01536e-09
2.99736e-09
6.00428e-09
1.20894e-08
1.99603e-08
2.05013e-08
1.12328e-08
5.36541e-10
4.37413e-09
1.23154e-08
1.54369e-08
1.38049e-08
9.93797e-09
5.86921e-09
2.73655e-09
2.29467e-09
6.18767e-09
9.47425e-09
8.51076e-09
5.95756e-09
3.6213e-09
2.12954e-09
2.47748e-09
3.71837e-09
3.78212e-09
1.96863e-09
8.73796e-10
6.11725e-09
1.57741e-08
1.92526e-08
1.34476e-08
6.28887e-09
3.35546e-09
3.38214e-09
3.74255e-09
4.29685e-09
4.95831e-09
4.48584e-09
3.85744e-09
3.53398e-09
2.74388e-09
2.75075e-09
6.32262e-09
1.32413e-08
2.2528e-08
2.45145e-08
1.51549e-08
1.23309e-09
4.08108e-09
1.28766e-08
1.63615e-08
1.44019e-08
1.02808e-08
6.07155e-09
2.81575e-09
2.27208e-09
6.152e-09
9.6347e-09
8.644e-09
5.90588e-09
3.55662e-09
2.04401e-09
2.42925e-09
3.81957e-09
4.04163e-09
2.24156e-09
6.33989e-10
5.68855e-09
1.63897e-08
2.08601e-08
1.46638e-08
6.4409e-09
3.04903e-09
3.51997e-09
4.50472e-09
5.0681e-09
5.52836e-09
4.89814e-09
4.0109e-09
3.48885e-09
2.48027e-09
2.30704e-09
6.54488e-09
1.43499e-08
2.49508e-08
2.92552e-08
2.0453e-08
2.6526e-09
3.1832e-09
1.24706e-08
1.72821e-08
1.53837e-08
1.0852e-08
6.38481e-09
3.06542e-09
2.22492e-09
5.53227e-09
9.03679e-09
8.67544e-09
6.15141e-09
3.63366e-09
1.972e-09
2.35496e-09
3.90944e-09
4.30884e-09
2.61716e-09
4.85e-10
4.82934e-09
1.61871e-08
2.18531e-08
1.59207e-08
6.90274e-09
2.72708e-09
3.30979e-09
5.26702e-09
6.36527e-09
6.57361e-09
5.22214e-09
4.03373e-09
3.78209e-09
2.71226e-09
1.87151e-09
6.35848e-09
1.49635e-08
2.66579e-08
3.3998e-08
2.68365e-08
5.25389e-09
2.04817e-09
1.12436e-08
1.79189e-08
1.67384e-08
1.177e-08
6.88485e-09
3.34399e-09
2.31107e-09
5.00273e-09
8.08519e-09
8.08381e-09
6.08376e-09
3.78747e-09
2.06043e-09
2.32275e-09
3.95618e-09
4.4278e-09
2.78925e-09
5.04182e-10
4.18618e-09
1.5197e-08
2.08373e-08
1.54293e-08
6.91065e-09
2.44775e-09
2.66315e-09
5.86654e-09
8.21283e-09
8.39953e-09
6.01962e-09
3.96957e-09
3.743e-09
3.0736e-09
1.84063e-09
5.83103e-09
1.45336e-08
2.71449e-08
3.80633e-08
3.34994e-08
9.59487e-09
1.16999e-09
9.39892e-09
1.80078e-08
1.86826e-08
1.31841e-08
7.42447e-09
3.59349e-09
2.3485e-09
4.56582e-09
7.3012e-09
7.35979e-09
5.64118e-09
3.60181e-09
2.10525e-09
2.47086e-09
4.08572e-09
4.37417e-09
2.48587e-09
5.02298e-10
4.52456e-09
1.49597e-08
1.92013e-08
1.37766e-08
6.3351e-09
2.19884e-09
1.7553e-09
5.69642e-09
1.01682e-08
1.08425e-08
7.49121e-09
4.43164e-09
3.8824e-09
3.59884e-09
2.01252e-09
5.04286e-09
1.31088e-08
2.58419e-08
4.01066e-08
3.73929e-08
1.4746e-08
1.05598e-09
6.46908e-09
1.67471e-08
2.05737e-08
1.53674e-08
8.36138e-09
3.77192e-09
2.2086e-09
4.18265e-09
6.94203e-09
6.97632e-09
5.26283e-09
3.30733e-09
1.99393e-09
2.53415e-09
4.20257e-09
4.24008e-09
1.95796e-09
5.82445e-10
5.9933e-09
1.63265e-08
1.84066e-08
1.26793e-08
6.25335e-09
2.41086e-09
1.05731e-09
4.16204e-09
1.04565e-08
1.26446e-08
9.15301e-09
5.52899e-09
4.43412e-09
4.21194e-09
2.5287e-09
4.42227e-09
1.11477e-08
2.27843e-08
3.85156e-08
3.6337e-08
1.85193e-08
2.15958e-09
3.36607e-09
1.3654e-08
2.05596e-08
1.75988e-08
9.61758e-09
4.1598e-09
2.07746e-09
3.9266e-09
7.11533e-09
7.2349e-09
5.22821e-09
3.02804e-09
1.74991e-09
2.48838e-09
4.23563e-09
4.14678e-09
1.61716e-09
8.8792e-10
7.51125e-09
1.78185e-08
1.8584e-08
1.28767e-08
7.18246e-09
3.13818e-09
1.13422e-09
2.26555e-09
7.82189e-09
1.17006e-08
1.01393e-08
7.01568e-09
5.72987e-09
5.15623e-09
3.17368e-09
3.85559e-09
9.29708e-09
1.87596e-08
3.30751e-08
3.03065e-08
1.88629e-08
3.7237e-09
1.14479e-09
9.41998e-09
1.80998e-08
1.7839e-08
1.09005e-08
4.54901e-09
2.09241e-09
3.9243e-09
7.62868e-09
7.88791e-09
5.55291e-09
3.04108e-09
1.57275e-09
2.49909e-09
4.37443e-09
3.9548e-09
1.50804e-09
1.21729e-09
7.24191e-09
1.51109e-08
1.69713e-08
1.31115e-08
8.16613e-09
4.10929e-09
1.79882e-09
1.38957e-09
4.55192e-09
8.48596e-09
9.19298e-09
7.8791e-09
7.27056e-09
6.64074e-09
4.14236e-09
3.09493e-09
7.05578e-09
1.44542e-08
2.52212e-08
2.16476e-08
1.59215e-08
4.72989e-09
1.87576e-10
5.47895e-09
1.41312e-08
1.63301e-08
1.09989e-08
4.89426e-09
2.30298e-09
3.968e-09
7.84318e-09
8.44891e-09
5.87296e-09
3.417e-09
2.17348e-09
2.70835e-09
3.93345e-09
3.17302e-09
1.18592e-09
1.76618e-09
6.41209e-09
1.18931e-08
1.42466e-08
1.30961e-08
9.50275e-09
5.24183e-09
2.54578e-09
1.34312e-09
2.57952e-09
5.69731e-09
7.70408e-09
7.98123e-09
7.84374e-09
7.42566e-09
5.31682e-09
2.99202e-09
4.65047e-09
9.84088e-09
1.71384e-08
1.29189e-08
1.06239e-08
4.4676e-09
1.37226e-10
2.35484e-09
8.95971e-09
1.26524e-08
9.82095e-09
4.81779e-09
2.69399e-09
4.33121e-09
7.79995e-09
8.82525e-09
6.38966e-09
3.87486e-09
2.73835e-09
3.32825e-09
4.20093e-09
2.77001e-09
7.15526e-10
2.55443e-09
7.38818e-09
1.05502e-08
1.13315e-08
1.20922e-08
1.05299e-08
6.90522e-09
3.86088e-09
1.48093e-09
1.54957e-09
4.447e-09
6.99726e-09
7.79962e-09
8.26246e-09
8.26349e-09
6.59625e-09
3.52984e-09
2.78808e-09
5.81696e-09
1.02887e-08
7.7933e-09
5.924e-09
2.54306e-09
4.74274e-10
1.60226e-09
4.24994e-09
6.27314e-09
6.21905e-09
4.30977e-09
3.1739e-09
5.18533e-09
8.53053e-09
9.46904e-09
7.00442e-09
4.21225e-09
3.04046e-09
3.44785e-09
4.34668e-09
3.12874e-09
7.35668e-10
2.78382e-09
8.28363e-09
1.03526e-08
8.96147e-09
9.3084e-09
9.6091e-09
7.35188e-09
4.50855e-09
1.94801e-09
1.16941e-09
3.34643e-09
6.5443e-09
8.04889e-09
8.35755e-09
8.23302e-09
7.47568e-09
4.59978e-09
2.08129e-09
3.39519e-09
6.74724e-09
5.03501e-09
3.717e-09
1.80691e-09
1.19769e-09
2.4162e-09
3.35244e-09
3.28151e-09
3.18383e-09
2.88814e-09
2.95745e-09
5.72844e-09
9.45599e-09
1.04236e-08
7.63108e-09
4.90355e-09
3.38536e-09
3.07815e-09
3.69901e-09
3.25479e-09
1.247e-09
2.25599e-09
7.42604e-09
1.06291e-08
9.36762e-09
7.92881e-09
7.87664e-09
6.684e-09
4.69576e-09
2.16746e-09
1.17142e-09
3.02247e-09
5.99431e-09
8.00954e-09
8.62028e-09
8.20276e-09
7.29496e-09
4.82862e-09
2.07642e-09
1.87394e-09
4.24148e-09
4.48584e-09
3.51076e-09
1.72782e-09
2.1551e-09
4.45664e-09
5.05422e-09
3.68619e-09
2.27463e-09
1.73796e-09
2.10028e-09
3.87904e-09
7.32181e-09
1.01602e-08
9.80037e-09
7.43793e-09
5.12813e-09
3.13753e-09
2.82527e-09
3.15972e-09
2.11106e-09
1.66525e-09
4.94402e-09
9.07224e-09
1.0267e-08
9.11026e-09
8.05937e-09
6.28238e-09
4.23084e-09
2.02192e-09
1.30695e-09
2.94604e-09
5.28393e-09
7.17965e-09
8.30681e-09
7.93041e-09
7.00762e-09
5.34407e-09
2.78375e-09
1.15429e-09
2.63597e-09
3.18263e-09
3.89311e-09
3.11785e-09
2.6726e-09
3.28553e-09
4.21686e-09
4.34681e-09
3.5099e-09
2.39821e-09
1.67053e-09
1.95508e-09
3.85243e-09
6.53492e-09
8.31493e-09
8.09346e-09
6.63647e-09
4.55612e-09
3.41863e-09
3.67745e-09
3.26203e-09
1.61901e-09
1.95027e-09
5.57299e-09
1.0255e-08
1.21192e-08
1.01599e-08
6.95136e-09
4.01032e-09
1.68011e-09
1.40486e-09
3.33214e-09
5.23986e-09
6.22437e-09
6.68103e-09
6.40709e-09
5.75824e-09
4.78988e-09
3.3752e-09
1.6891e-09
1.68577e-09
1.89402e-09
3.17625e-09
3.71889e-09
4.10929e-09
4.96556e-09
5.14905e-09
4.23218e-09
3.03274e-09
2.53848e-09
2.38905e-09
1.90254e-09
2.01513e-09
3.66134e-09
5.83505e-09
7.27729e-09
7.41892e-09
6.46705e-09
5.3192e-09
4.61504e-09
3.68973e-09
2.06553e-09
1.63949e-09
4.34599e-09
8.72432e-09
1.06572e-08
9.54977e-09
6.98755e-09
4.41705e-09
1.77147e-09
9.49326e-10
3.66289e-09
6.9504e-09
8.46012e-09
7.32758e-09
5.57813e-09
4.44965e-09
4.11656e-09
3.99036e-09
2.82446e-09
1.55226e-09
2.24604e-09
1.64048e-09
2.28254e-09
3.67144e-09
5.04741e-09
5.12484e-09
4.04894e-09
2.61866e-09
2.09466e-09
2.52873e-09
2.85749e-09
2.59037e-09
2.39435e-09
2.85751e-09
3.98111e-09
5.51514e-09
6.88299e-09
7.37233e-09
6.37566e-09
4.57742e-09
2.90805e-09
2.31987e-09
3.61298e-09
6.30853e-09
8.32577e-09
8.448e-09
7.26403e-09
5.77536e-09
2.89489e-09
5.9344e-10
2.48617e-09
7.42755e-09
1.07777e-08
9.99926e-09
7.08782e-09
4.1555e-09
2.66407e-09
3.16346e-09
4.26051e-09
3.92988e-09
3.35486e-09
2.3334e-09
2.13821e-09
2.64896e-09
3.44302e-09
3.71543e-09
3.17926e-09
2.5434e-09
2.42303e-09
2.66029e-09
3.01921e-09
3.50756e-09
3.88902e-09
3.71173e-09
2.86344e-09
2.64545e-09
3.50604e-09
5.10471e-09
5.88118e-09
4.73582e-09
2.96469e-09
2.40818e-09
3.7264e-09
5.94308e-09
7.32593e-09
7.25801e-09
6.63377e-09
5.67493e-09
3.49139e-09
9.77641e-10
1.46313e-09
5.59018e-09
9.66528e-09
1.01675e-08
7.79445e-09
4.86854e-09
2.97213e-09
2.93795e-09
3.94528e-09
4.19515e-09
4.12472e-09
2.63023e-09
1.69475e-09
1.80996e-09
2.60137e-09
3.17692e-09
3.45709e-09
3.84248e-09
4.1307e-09
3.86121e-09
3.05636e-09
2.4637e-09
2.6596e-09
3.44972e-09
4.35939e-09
4.46556e-09
4.46599e-09
4.47971e-09
4.45601e-09
4.08563e-09
3.21848e-09
2.52559e-09
2.58645e-09
3.61594e-09
5.16603e-09
6.29604e-09
6.38611e-09
5.53469e-09
3.60913e-09
1.32231e-09
1.22865e-09
4.12001e-09
7.48372e-09
8.80257e-09
7.65505e-09
5.38086e-09
3.56003e-09
3.43194e-09
4.45797e-09
4.92443e-09
5.41511e-09
3.91458e-09
1.8463e-09
8.94627e-10
1.86071e-09
3.77078e-09
5.35793e-09
6.06688e-09
5.78473e-09
4.59552e-09
3.17257e-09
2.57685e-09
3.12917e-09
3.8785e-09
3.93362e-09
3.97509e-09
4.81642e-09
5.91468e-09
6.11561e-09
5.27116e-09
4.00585e-09
2.57913e-09
1.59592e-09
1.92957e-09
3.49394e-09
5.32233e-09
6.35311e-09
5.86805e-09
3.9539e-09
1.91285e-09
1.55063e-09
3.23141e-09
5.41058e-09
6.54811e-09
6.25537e-09
5.50551e-09
4.79993e-09
4.69194e-09
5.24525e-09
5.9059e-09
5.22094e-09
1.94893e-09
5.05842e-10
2.39435e-09
5.91974e-09
8.53369e-09
8.39902e-09
5.97768e-09
3.25072e-09
2.05864e-09
4.05061e-09
6.57917e-09
6.29169e-09
4.38478e-09
2.7724e-09
2.33121e-09
3.09826e-09
3.62451e-09
2.92048e-09
1.79617e-09
1.98276e-09
5.56413e-09
1.17592e-08
1.52788e-08
1.27174e-08
8.0012e-09
5.01585e-09
3.12843e-09
2.32535e-09
3.62666e-09
5.91211e-09
7.34351e-09
6.87593e-09
5.62996e-09
4.37156e-09
3.44875e-09
3.83316e-09
5.48263e-09
6.7827e-09
7.08376e-09
5.34405e-09
2.01089e-09
4.89597e-10
2.33892e-09
5.85536e-09
8.50452e-09
8.40847e-09
6.00089e-09
3.26833e-09
2.06648e-09
4.05675e-09
6.6006e-09
6.31574e-09
4.39844e-09
2.77207e-09
2.32355e-09
3.09763e-09
3.63686e-09
2.93595e-09
1.79684e-09
1.95408e-09
5.48765e-09
1.16439e-08
1.51715e-08
1.26539e-08
7.96421e-09
5.00695e-09
3.12895e-09
2.27604e-09
3.53064e-09
5.85109e-09
7.40282e-09
7.02688e-09
5.76477e-09
4.43593e-09
3.45867e-09
3.82743e-09
5.51449e-09
6.8469e-09
7.19008e-09
5.51715e-09
2.07465e-09
4.62891e-10
2.31e-09
5.86371e-09
8.56074e-09
8.49053e-09
6.06837e-09
3.30168e-09
2.05354e-09
4.03548e-09
6.62935e-09
6.35506e-09
4.4097e-09
2.75741e-09
2.3115e-09
3.10758e-09
3.66631e-09
2.95992e-09
1.79225e-09
1.91784e-09
5.41746e-09
1.1581e-08
1.51705e-08
1.26753e-08
7.95351e-09
5.01447e-09
3.16097e-09
2.22811e-09
3.35478e-09
5.64762e-09
7.40123e-09
7.29135e-09
6.03783e-09
4.57556e-09
3.50197e-09
3.85723e-09
5.58976e-09
6.98735e-09
7.38803e-09
5.77294e-09
2.14639e-09
4.26067e-10
2.30618e-09
5.9517e-09
8.71409e-09
8.65228e-09
6.17532e-09
3.34404e-09
2.0128e-09
3.97679e-09
6.66264e-09
6.41539e-09
4.42108e-09
2.73001e-09
2.29198e-09
3.14068e-09
3.72682e-09
2.99053e-09
1.77671e-09
1.88128e-09
5.41066e-09
1.16671e-08
1.53439e-08
1.27975e-08
7.94746e-09
5.00523e-09
3.19596e-09
2.19044e-09
3.14814e-09
5.29725e-09
7.23329e-09
7.56335e-09
6.42488e-09
4.80452e-09
3.59584e-09
3.951e-09
5.76891e-09
7.28384e-09
7.72904e-09
6.13524e-09
2.2397e-09
3.8073e-10
2.3237e-09
6.09092e-09
8.93602e-09
8.87226e-09
6.31069e-09
3.39274e-09
1.948e-09
3.85792e-09
6.64838e-09
6.46113e-09
4.42645e-09
2.68764e-09
2.2666e-09
3.20441e-09
3.83466e-09
3.05003e-09
1.74646e-09
1.84356e-09
5.49628e-09
1.19648e-08
1.57535e-08
1.30819e-08
7.95648e-09
4.95447e-09
3.18967e-09
2.17521e-09
3.0341e-09
4.93101e-09
6.84001e-09
7.66611e-09
6.82647e-09
5.10921e-09
3.765e-09
4.13277e-09
6.08431e-09
7.78462e-09
8.25485e-09
6.64044e-09
2.38104e-09
3.30784e-10
2.31486e-09
6.24766e-09
9.21091e-09
9.13794e-09
6.46428e-09
3.44937e-09
1.88462e-09
3.6714e-09
6.50081e-09
6.40391e-09
4.38663e-09
2.626e-09
2.2411e-09
3.30677e-09
4.00183e-09
3.15062e-09
1.72639e-09
1.76714e-09
5.52133e-09
1.22986e-08
1.64587e-08
1.3756e-08
8.21651e-09
4.96196e-09
3.11079e-09
2.13684e-09
3.11134e-09
4.78714e-09
6.31239e-09
7.43493e-09
7.06631e-09
5.41774e-09
4.02057e-09
4.45326e-09
6.60334e-09
8.57859e-09
9.04724e-09
7.39444e-09
2.59591e-09
2.88554e-10
2.2394e-09
6.32191e-09
9.44915e-09
9.44072e-09
6.64071e-09
3.50066e-09
1.85626e-09
3.49677e-09
6.20931e-09
6.14462e-09
4.22583e-09
2.54015e-09
2.23744e-09
3.46162e-09
4.22939e-09
3.30682e-09
1.75393e-09
1.61835e-09
5.17959e-09
1.21845e-08
1.71541e-08
1.48944e-08
8.97785e-09
5.35483e-09
3.17083e-09
2.01319e-09
3.35584e-09
5.14439e-09
5.99964e-09
6.92718e-09
6.97248e-09
5.58679e-09
4.32721e-09
5.02489e-09
7.43919e-09
9.82419e-09
1.02935e-08
8.59388e-09
2.96452e-09
2.42703e-10
2.09217e-09
6.25523e-09
9.4843e-09
9.65827e-09
6.84775e-09
3.54991e-09
1.87787e-09
3.40844e-09
5.99212e-09
5.92435e-09
4.04399e-09
2.33536e-09
2.20327e-09
3.67737e-09
4.5255e-09
3.51691e-09
1.85596e-09
1.42254e-09
4.39432e-09
1.1485e-08
1.77699e-08
1.64453e-08
1.00681e-08
5.98836e-09
3.64161e-09
2.03876e-09
3.33118e-09
5.65797e-09
6.45199e-09
6.81163e-09
6.68348e-09
5.52261e-09
4.59511e-09
5.84322e-09
8.69903e-09
1.17262e-08
1.22789e-08
1.054e-08
3.54368e-09
2.08213e-10
1.91608e-09
6.07178e-09
9.39657e-09
9.78387e-09
7.03835e-09
3.65424e-09
1.90818e-09
3.25426e-09
5.53146e-09
5.48662e-09
3.93408e-09
2.46586e-09
2.39487e-09
4.00179e-09
4.89577e-09
3.77028e-09
2.04067e-09
1.28629e-09
3.34651e-09
1.0297e-08
1.81898e-08
1.83729e-08
1.15069e-08
6.59402e-09
4.22603e-09
2.45871e-09
3.19638e-09
5.3193e-09
6.51459e-09
7.48817e-09
7.23321e-09
5.5562e-09
4.77461e-09
6.7596e-09
1.03252e-08
1.43281e-08
1.53213e-08
1.36554e-08
4.63203e-09
2.15559e-10
1.69676e-09
5.89164e-09
9.31097e-09
9.84044e-09
7.16355e-09
3.80202e-09
1.91766e-09
3.01809e-09
4.94725e-09
4.81138e-09
3.47466e-09
2.50371e-09
3.06973e-09
4.90977e-09
5.55771e-09
4.0607e-09
2.24877e-09
1.39137e-09
2.33049e-09
8.22111e-09
1.73015e-08
1.96763e-08
1.30636e-08
7.04733e-09
4.51957e-09
2.98374e-09
3.45e-09
5.00043e-09
5.64982e-09
7.32512e-09
8.24405e-09
6.40888e-09
5.24328e-09
7.5467e-09
1.16937e-08
1.69273e-08
1.92021e-08
1.77812e-08
6.8635e-09
4.4936e-10
1.29333e-09
5.86862e-09
9.81852e-09
1.00248e-08
7.1687e-09
3.7993e-09
1.8522e-09
2.72793e-09
4.47726e-09
4.41353e-09
3.28603e-09
2.49192e-09
3.41975e-09
5.8321e-09
6.47887e-09
4.42275e-09
2.35232e-09
1.67998e-09
1.98876e-09
5.77283e-09
1.4529e-08
1.90073e-08
1.42483e-08
7.63354e-09
4.42078e-09
2.99519e-09
3.76352e-09
5.25154e-09
4.99474e-09
5.83776e-09
7.91752e-09
7.41643e-09
6.36237e-09
8.23952e-09
1.20011e-08
1.80985e-08
2.24337e-08
2.09608e-08
1.00763e-08
1.39444e-09
5.45527e-10
5.24748e-09
1.08194e-08
1.15224e-08
7.5838e-09