/*--------------------------------*- C++ -*----------------------------------*\
| =========                 |                                                 |
| \\      /  F ield         | OpenFOAM: The Open Source CFD Toolbox           |
|  \\    /   O peration     | Version:  2306                                  |
|   \\  /    A nd           | Website:  www.openfoam.com                      |
|    \\/     M anipulation  |                                                 |
\*---------------------------------------------------------------------------*/
FoamFile
{
    version     2.0;
    format      ascii;
    arch        "LSB;label=32;scalar=64";
    class       volScalarField;
    location    "6";
    object      p;
}
// * * * * * * * * * * * * * * * * * * * * * * * * * * * * * * * * * * * * * //

dimensions      [0 2 -2 0 0 0 0];

internalField   nonuniform List<scalar> 
60000
(
-0.000101594
-8.67139e-05
-0.000110432
-0.000171543
-0.000215726
-0.000224201
-0.00021057
-0.00019985
-0.000193237
-0.000183056
-0.000170059
-0.000167741
-0.000181006
-0.000188573
-0.00016888
-0.000125984
-7.75404e-05
-4.98427e-05
-6.01976e-05
-9.29346e-05
-0.000124058
-0.000160732
-0.000219634
-0.000285929
-0.000323595
-0.000300884
-0.000221319
-0.000124877
-6.63052e-05
-6.50594e-05
-0.000105181
-0.000144613
-0.000132366
-7.56703e-05
-2.69043e-05
-9.2321e-06
-2.3689e-05
-6.19158e-05
-0.000100348
-0.000115444
-0.000100393
-8.51359e-05
-0.000108784
-0.000170873
-0.000216323
-0.000225692
-0.000211892
-0.00020061
-0.000193585
-0.000183378
-0.000170636
-0.000168611
-0.000182053
-0.000189726
-0.000170038
-0.000127125
-7.85474e-05
-5.03749e-05
-6.01409e-05
-9.25295e-05
-0.000123378
-0.000159676
-0.000218846
-0.00028566
-0.000324586
-0.000302587
-0.000223278
-0.000126619
-6.76371e-05
-6.62886e-05
-0.000105828
-0.00014569
-0.00013392
-7.68734e-05
-2.73094e-05
-8.9216e-06
-2.26567e-05
-6.05641e-05
-9.87957e-05
-0.0001141
-9.94901e-05
-8.39956e-05
-0.000107677
-0.000171846
-0.000219165
-0.000229669
-0.000215151
-0.00020246
-0.00019442
-0.000183937
-0.000171207
-0.000169205
-0.000182982
-0.000191272
-0.000172047
-0.000129192
-8.00741e-05
-5.07132e-05
-5.94181e-05
-9.14492e-05
-0.00012221
-0.000158577
-0.000218625
-0.000286417
-0.000326746
-0.000305055
-0.000225339
-0.000127997
-6.87688e-05
-6.70626e-05
-0.000107059
-0.000147979
-0.000137155
-7.91634e-05
-2.84478e-05
-9.19208e-06
-2.19024e-05
-5.92573e-05
-9.75956e-05
-0.000113583
-9.981e-05
-8.30074e-05
-0.000106916
-0.000174754
-0.000224742
-0.000236884
-0.000221127
-0.000206095
-0.000196096
-0.000184835
-0.000171781
-0.000169497
-0.000183656
-0.000192947
-0.000174708
-0.000132233
-8.22226e-05
-5.07699e-05
-5.77487e-05
-8.94388e-05
-0.000120423
-0.000157375
-0.000219144
-0.000289142
-0.000330176
-0.000308119
-0.000227108
-0.00012834
-6.92899e-05
-6.83029e-05
-0.000109475
-0.000151907
-0.000141974
-8.2265e-05
-3.01698e-05
-1.02413e-05
-2.15948e-05
-5.80674e-05
-9.69355e-05
-0.000113923
-0.000100356
-8.07536e-05
-0.000105536
-0.000178923
-0.000232114
-0.000247106
-0.00023013
-0.000212389
-0.000199101
-0.00018628
-0.000172417
-0.00016941
-0.000183628
-0.000193928
-0.000177188
-0.000135949
-8.54163e-05
-5.10788e-05
-5.52449e-05
-8.62619e-05
-0.000117651
-0.000155942
-0.000220028
-0.000291932
-0.000335132
-0.000313265
-0.000230627
-0.00013005
-7.03407e-05
-7.00938e-05
-0.000113463
-0.000157651
-0.000147917
-8.54871e-05
-3.17448e-05
-1.18818e-05
-2.20074e-05
-5.68992e-05
-9.62199e-05
-0.000114654
-0.000101225
-7.74987e-05
-0.00010034
-0.00018559
-0.000241622
-0.000258453
-0.00024134
-0.000220882
-0.00020358
-0.000188383
-0.000173453
-0.000169204
-0.000182841
-0.000193452
-0.000178093
-0.000139128
-8.94253e-05
-5.21978e-05
-5.22341e-05
-8.16864e-05
-0.000113348
-0.000153702
-0.000220901
-0.0002959
-0.000342711
-0.000322874
-0.000238549
-0.000136399
-7.85289e-05
-7.63123e-05
-0.0001192
-0.000165283
-0.000154898
-8.8276e-05
-3.19643e-05
-1.30232e-05
-2.27773e-05
-5.55056e-05
-9.48665e-05
-0.00011545
-0.000104702
-7.41432e-05
-8.98525e-05
-0.000178535
-0.000254236
-0.000277289
-0.000258162
-0.000232892
-0.00020946
-0.000190602
-0.000174726
-0.000169794
-0.000181876
-0.00019164
-0.000176586
-0.00014011
-9.29791e-05
-5.41093e-05
-4.91188e-05
-7.56441e-05
-0.000106891
-0.000149723
-0.000221024
-0.000301178
-0.000353383
-0.000337379
-0.000250282
-0.000145143
-9.11942e-05
-9.12363e-05
-0.000132811
-0.000175384
-0.000163621
-9.11866e-05
-3.05631e-05
-1.21982e-05
-2.28062e-05
-5.37841e-05
-9.25153e-05
-0.000116929
-0.000112927
-7.51896e-05
-7.54097e-05
-0.000162493
-0.000258706
-0.00029986
-0.000283605
-0.000252866
-0.000220405
-0.000193678
-0.000175151
-0.000170871
-0.000183145
-0.000190603
-0.000172817
-0.000138018
-9.40295e-05
-5.57791e-05
-4.61407e-05
-6.84585e-05
-9.79497e-05
-0.000143472
-0.000220282
-0.000305281
-0.000360773
-0.000346382
-0.000255973
-0.000144415
-9.14868e-05
-0.000103062
-0.000152653
-0.000194214
-0.000177817
-9.76612e-05
-3.16053e-05
-1.07895e-05
-1.93339e-05
-4.744e-05
-8.76192e-05
-0.000118255
-0.000121194
-8.11511e-05
-6.03184e-05
-0.000138766
-0.000254864
-0.000320292
-0.000314462
-0.000281402
-0.000237393
-0.000200778
-0.000177259
-0.00017167
-0.00018513
-0.0001937
-0.000173606
-0.000135235
-9.04935e-05
-5.45744e-05
-4.25427e-05
-6.09735e-05
-8.71646e-05
-0.000135313
-0.000219669
-0.000308408
-0.000361195
-0.000339776
-0.000240918
-0.000121334
-7.0736e-05
-9.7501e-05
-0.000166025
-0.000221116
-0.00020234
-0.000108006
-3.36288e-05
-1.45187e-05
-2.38968e-05
-4.52895e-05
-8.01382e-05
-0.000115304
-0.000121051
-8.62692e-05
-4.5601e-05
-0.000105295
-0.000239938
-0.000333415
-0.00035338
-0.000317953
-0.000262719
-0.000210339
-0.000181285
-0.000175349
-0.000188403
-0.000195855
-0.000176757
-0.000141628
-9.67702e-05
-5.23255e-05
-3.69137e-05
-5.41e-05
-7.67289e-05
-0.000126686
-0.000220066
-0.000312628
-0.00035869
-0.000322573
-0.00020709
-7.29327e-05
-2.24498e-05
-7.13924e-05
-0.000170268
-0.000248774
-0.000236211
-0.000126023
-4.00353e-05
-2.08686e-05
-3.02068e-05
-4.89205e-05
-7.57871e-05
-0.000107049
-0.000107784
-8.56761e-05
-3.44157e-05
-6.52865e-05
-0.000204611
-0.000329326
-0.000380614
-0.000364263
-0.000299178
-0.00022532
-0.000184708
-0.000176976
-0.000191176
-0.000200611
-0.000184818
-0.000150523
-0.000114419
-6.96539e-05
-4.06841e-05
-4.37678e-05
-6.90715e-05
-0.000120075
-0.000220087
-0.000319673
-0.000359889
-0.000307544
-0.000175267
-2.00027e-05
4.28743e-05
-2.11401e-05
-0.000156586
-0.000268225
-0.000272615
-0.000152066
-5.94431e-05
-3.57024e-05
-3.91283e-05
-5.02587e-05
-6.75571e-05
-8.69669e-05
-6.76937e-05
-7.42864e-05
-3.02441e-05
-3.24716e-05
-0.0001545
-0.000297839
-0.000382427
-0.000398903
-0.000337744
-0.000249785
-0.000189909
-0.000176406
-0.000189784
-0.000201395
-0.000186543
-0.000158587
-0.000129604
-9.53346e-05
-6.78603e-05
-5.96083e-05
-7.55831e-05
-0.000119476
-0.000216444
-0.000319325
-0.000356065
-0.000296031
-0.000165329
5.11452e-06
9.26282e-05
4.27717e-05
-0.000114269
-0.000260543
-0.00029875
-0.000178537
-8.84802e-05
-5.88666e-05
-5.19881e-05
-5.20611e-05
-5.17318e-05
-5.40106e-05
-2.9501e-05
-4.53091e-05
-3.56148e-05
-1.83346e-05
-0.000105816
-0.000244866
-0.000353291
-0.000406288
-0.00037602
-0.000279564
-0.000201565
-0.000175735
-0.000185762
-0.000200658
-0.000185168
-0.000160869
-0.000137969
-0.000111236
-9.38786e-05
-9.64276e-05
-0.00010961
-0.000134883
-0.0002113
-0.000300752
-0.000334327
-0.000278852
-0.000165933
-2.37997e-05
9.6684e-05
9.15422e-05
-4.96028e-05
-0.000214029
-0.000272816
-0.00019402
-0.000117253
-8.28115e-05
-6.39679e-05
-6.22623e-05
-4.46751e-05
-2.3359e-05
-5.42032e-06
-2.80152e-05
-5.33662e-05
-2.2762e-05
-6.73294e-05
-0.00018172
-0.000299105
-0.000382947
-0.000389063
-0.000306223
-0.000210861
-0.00017569
-0.000180979
-0.000201497
-0.000189464
-0.00016103
-0.000140888
-0.000116422
-0.000103093
-0.000121771
-0.000152644
-0.000154159
-0.000204053
-0.000276607
-0.000306106
-0.000263798
-0.000167599
-5.74562e-05
6.06243e-05
0.00010242
6.601e-06
-0.000144352
-0.000224232
-0.000191394
-0.000139508
-0.000104706
-7.74017e-05
-6.46609e-05
-4.54799e-05
-1.12971e-05
4.0055e-06
-2.55355e-05
-6.76367e-05
-3.52305e-05
-3.73794e-05
-0.000118585
-0.000231572
-0.00033492
-0.000374439
-0.000315054
-0.000221655
-0.000173567
-0.000176631
-0.000202019
-0.000197282
-0.000171765
-0.000146576
-0.000117976
-9.96194e-05
-0.000123072
-0.000156502
-0.000160048
-0.000191756
-0.000247113
-0.000289059
-0.000248451
-0.00016776
-8.90176e-05
1.52273e-05
8.68605e-05
3.41843e-05
-8.47717e-05
-0.000167636
-0.000176985
-0.000154949
-0.000122937
-9.12927e-05
-7.40714e-05
-5.59144e-05
-3.10864e-05
-4.22486e-06
-3.0444e-05
-6.40789e-05
-4.87071e-05
-2.92973e-05
-7.03153e-05
-0.000164901
-0.00027372
-0.0003361
-0.000303763
-0.000220949
-0.000173236
-0.000170153
-0.000204421
-0.000202005
-0.000180124
-0.000154476
-0.000125431
-0.000102022
-0.000114236
-0.000147158
-0.000154808
-0.000178311
-0.000223406
-0.000267601
-0.000228141
-0.000155831
-0.000109763
-3.85183e-05
4.53623e-05
3.59773e-05
-4.87938e-05
-0.000125013
-0.000160337
-0.00015974
-0.000141892
-0.000113674
-9.08392e-05
-6.38143e-05
-3.18385e-05
-1.00379e-05
-3.44637e-05
-7.02005e-05
-5.77125e-05
-4.41841e-05
-5.7845e-05
-0.00012009
-0.000209513
-0.000278891
-0.0002743
-0.000213369
-0.000170347
-0.000184087
-0.000208303
-0.000209617
-0.000186779
-0.000158549
-0.000129977
-0.000110155
-0.000116784
-0.000148343
-0.000159323
-0.000155517
-0.00019229
-0.00023971
-0.000213347
-0.000141749
-0.000107196
-7.52908e-05
-7.54931e-06
1.66523e-05
-3.22753e-05
-9.28031e-05
-0.000143965
-0.000165783
-0.000155017
-0.000145974
-0.000103955
-7.69156e-05
-3.81368e-05
-1.27712e-05
-3.57803e-05
-7.46938e-05
-8.82307e-05
-9.07147e-05
-7.46555e-05
-0.000103922
-0.000151743
-0.000205415
-0.000224884
-0.000203591
-0.000172789
-0.000189886
-0.000201536
-0.000213651
-0.000190778
-0.000166941
-0.000137721
-0.000110501
-0.000108998
-0.000151048
-0.000164073
-0.000158964
-0.000173715
-0.000210519
-0.000204776
-0.000137384
-9.77157e-05
-8.78754e-05
-3.9685e-05
-1.90959e-05
-3.90609e-05
-8.60881e-05
-0.000140586
-0.000171651
-0.000163559
-0.000128918
-9.51167e-05
-7.04953e-05
-4.09667e-05
-1.58396e-05
-4.39072e-05
-9.23847e-05
-0.000111056
-0.000103945
-9.14054e-05
-0.000110303
-0.000139527
-0.000150766
-0.000158688
-0.000167379
-0.000193874
-0.000202339
-0.000217014
-0.000219624
-0.000203479
-0.000187354
-0.000165305
-0.000132223
-0.000104436
-0.000116216
-0.000147966
-0.00014558
-0.000142374
-0.000179265
-0.000189916
-0.00014189
-9.7462e-05
-9.74828e-05
-5.76603e-05
-2.79759e-05
-3.80637e-05
-9.75082e-05
-0.000159252
-0.0001767
-0.000156241
-0.000125785
-9.35743e-05
-6.30612e-05
-3.5429e-05
-4.15689e-05
-6.54158e-05
-0.000102729
-0.00012555
-0.00013472
-0.000124525
-0.00013336
-0.000141655
-0.000147283
-0.000153102
-0.000157338
-0.000165843
-0.000184791
-0.000201683
-0.000209333
-0.000206209
-0.000203225
-0.000204761
-0.00019183
-0.000156227
-0.000139942
-0.000145205
-0.000132063
-0.000118561
-0.00014006
-0.000167476
-0.000154535
-0.000131245
-0.000111544
-8.34181e-05
-3.06206e-05
-3.48318e-05
-9.83049e-05
-0.000163677
-0.000184568
-0.00016703
-0.000140632
-0.000105062
-7.02682e-05
-4.67476e-05
-4.15472e-05
-6.24965e-05
-9.63635e-05
-0.000115356
-0.000138884
-0.000170037
-0.0001884
-0.000185518
-0.000162492
-0.000142746
-0.000141573
-0.000162637
-0.000189013
-0.000202389
-0.000202319
-0.000201923
-0.000207618
-0.000218987
-0.00023063
-0.000193923
-0.000168455
-0.000159391
-0.000137516
-0.000110518
-0.000119652
-0.000156374
-0.00017262
-0.000155655
-0.000116995
-7.89027e-05
-2.00674e-05
-2.82251e-05
-0.000101774
-0.000189321
-0.00024321
-0.000231949
-0.000183279
-0.000127539
-8.19221e-05
-4.85196e-05
-4.98496e-05
-6.97077e-05
-0.000105707
-9.36821e-05
-9.07888e-05
-0.000117183
-0.000158285
-0.000182998
-0.000180189
-0.000160561
-0.000143314
-0.000156181
-0.00018375
-0.000200202
-0.000201576
-0.000199596
-0.000204757
-0.0002097
-0.000217
-0.000209719
-0.000177144
-0.000174966
-0.000146187
-0.000112659
-0.000107321
-0.000136405
-0.000161467
-0.000156477
-0.000124268
-8.36806e-05
-1.5343e-05
-3.77882e-06
-8.02584e-05
-0.000189749
-0.000268379
-0.000285452
-0.00023973
-0.000164192
-8.93934e-05
-4.74488e-05
-6.28751e-05
-7.85888e-05
-0.000105426
-0.000112615
-9.96057e-05
-0.000102745
-0.000119018
-0.000143013
-0.000162757
-0.000187913
-0.000170786
-0.000179913
-0.000190838
-0.000191478
-0.000190563
-0.000195283
-0.000199885
-0.000194432
-0.000185318
-0.000178235
-0.000173577
-0.000170144
-0.000148509
-0.000116348
-0.000102035
-0.00012212
-0.000147055
-0.000143323
-0.000119168
-9.7404e-05
-5.39779e-05
-1.27151e-05
-6.58064e-05
-0.000149222
-0.000219316
-0.000246185
-0.000227829
-0.000182729
-0.000126187
-7.84537e-05
-8.84108e-05
-8.79704e-05
-7.86761e-05
-9.2807e-05
-8.79607e-05
-0.000100129
-0.000134298
-0.000171495
-0.00019644
-0.000207091
-0.000200908
-0.000193369
-0.000180953
-0.000164449
-0.000155478
-0.000163019
-0.000179719
-0.000195292
-0.000196205
-0.000191744
-0.000170414
-0.000145859
-0.000139282
-0.000110856
-9.29325e-05
-0.000100053
-0.000125548
-0.000144464
-0.000148334
-0.000137606
-0.000107256
-8.90578e-05
-8.27026e-05
-0.000130515
-0.000187815
-0.000221996
-0.000221865
-0.000196395
-0.000154808
-0.000111275
-0.000111268
-0.000101553
-0.000104816
-9.79574e-05
-9.47806e-05
-0.000103925
-0.000132991
-0.000173229
-0.000206515
-0.000222474
-0.000222379
-0.000215372
-0.000197907
-0.000176599
-0.000161372
-0.000165506
-0.000182256
-0.000187399
-0.000176757
-0.000164536
-0.000158477
-0.000144029
-0.000111267
-7.88163e-05
-5.94081e-05
-7.17018e-05
-0.000113927
-0.000155911
-0.000180664
-0.000181175
-0.000162645
-0.000136436
-0.000107819
-0.000124484
-0.000163309
-0.000196358
-0.000215241
-0.000202275
-0.000172717
-0.000137074
-3.58262e-05
5.61076e-09
-1.77066e-05
-9.93249e-05
-0.000197926
-0.000268851
-0.000302282
-0.000301454
-0.000275361
-0.000237081
-0.000207164
-0.000205558
-0.000221797
-0.000223344
-0.000194615
-0.000145209
-9.94649e-05
-7.93861e-05
-9.56027e-05
-0.000124652
-0.000139907
-0.000149853
-0.000187844
-0.000253833
-0.000309399
-0.000308359
-0.00022041
-8.3963e-05
4.68981e-06
1.13678e-05
-1.06874e-06
-9.21935e-06
-1.67988e-05
-6.49773e-06
2.08918e-05
4.72949e-05
4.24708e-05
-2.52097e-06
-5.4537e-05
-7.10039e-05
-3.50308e-05
1.69596e-06
-1.47463e-05
-9.60966e-05
-0.000195203
-0.000267204
-0.000301801
-0.000301811
-0.000276127
-0.000237847
-0.000207811
-0.000206252
-0.000222795
-0.000224812
-0.000196052
-0.000146514
-0.000100511
-7.99915e-05
-9.58652e-05
-0.000124852
-0.000139887
-0.000149726
-0.000187476
-0.000253617
-0.000310179
-0.000310864
-0.00022451
-8.82809e-05
9.57929e-07
8.13884e-06
-4.21081e-06
-1.17076e-05
-1.89261e-05
-8.89474e-06
1.84408e-05
4.56056e-05
4.20667e-05
-2.05909e-06
-5.38639e-05
-7.04406e-05
-3.42783e-05
4.85799e-06
-1.05346e-05
-9.25326e-05
-0.000193895
-0.000268153
-0.000304099
-0.000304406
-0.000278422
-0.000239473
-0.000208845
-0.000207084
-0.000224294
-0.000226917
-0.000198346
-0.000148517
-0.000101922
-8.05663e-05
-9.59722e-05
-0.000125073
-0.000139555
-0.00014951
-0.000186935
-0.000253634
-0.000311589
-0.000314096
-0.000228774
-9.16147e-05
-1.35955e-06
5.57971e-06
-7.44002e-06
-1.39811e-05
-2.059e-05
-1.11655e-05
1.55027e-05
4.33221e-05
4.18041e-05
-1.00215e-06
-5.3078e-05
-7.02253e-05
-3.24343e-05
9.78198e-06
-4.8996e-06
-8.93434e-05
-0.000195459
-0.000273366
-0.000310573
-0.00031012
-0.000282656
-0.000242
-0.000209895
-0.000207797
-0.000225999
-0.000229594
-0.000201383
-0.000151139
-0.000103601
-8.09421e-05
-9.57304e-05
-0.000125162
-0.000139299
-0.000149133
-0.000186245
-0.00025396
-0.000313527
-0.000317453
-0.000231975
-9.24189e-05
-1.51001e-06
4.49471e-06
-1.05879e-05
-1.61952e-05
-2.18797e-05
-1.29815e-05
1.26526e-05
4.06306e-05
4.1244e-05
8.39287e-08
-5.25426e-05
-7.04145e-05
-3.00597e-05
1.6206e-05
2.77043e-06
-8.60262e-05
-0.000199957
-0.000283351
-0.000321833
-0.000319275
-0.000288951
-0.000245459
-0.000211132
-0.000208302
-0.00022742
-0.000232014
-0.000204408
-0.000154022
-0.00010562
-8.13303e-05
-9.52148e-05
-0.000125062
-0.000138952
-0.000148338
-0.000185537
-0.000254956
-0.000316098
-0.000321007
-0.000235357
-9.24437e-05
-7.82112e-09
4.27569e-06
-1.39164e-05
-1.88091e-05
-2.32467e-05
-1.41513e-05
1.07466e-05
3.80647e-05
3.98466e-05
-1.46941e-08
-5.33002e-05
-7.19897e-05
-2.84068e-05
2.61213e-05
1.28507e-05
-8.0543e-05
-0.000205771
-0.000297498
-0.000338135
-0.000332153
-0.00029743
-0.00024971
-0.000212906
-0.000208828
-0.000228505
-0.000233317
-0.000205936
-0.000155903
-0.000107517
-8.19089e-05
-9.46643e-05
-0.000124809
-0.000138379
-0.000147062
-0.000184901
-0.000256279
-0.000320561
-0.000328913
-0.000244767
-9.91869e-05
-3.36366e-06
-5.96054e-07
-1.9754e-05
-2.27919e-05
-2.55179e-05
-1.51041e-05
1.03722e-05
3.65366e-05
3.78428e-05
-1.87832e-06
-5.69511e-05
-7.68842e-05
-3.01515e-05
3.90149e-05
3.05317e-05
-7.02332e-05
-0.000207054
-0.000313027
-0.000359097
-0.000349279
-0.000308471
-0.000255507
-0.000215543
-0.000209861
-0.000229889
-0.000233914
-0.000205581
-0.000155123
-0.000107637
-8.20519e-05
-9.41827e-05
-0.000124636
-0.000137576
-0.000145116
-0.000183789
-0.000258842
-0.00032918
-0.000346169
-0.000267487
-0.000118543
-1.58881e-05
-1.55844e-05
-3.59462e-05
-3.31775e-05
-3.15627e-05
-1.83402e-05
1.03244e-05
3.62085e-05
3.57139e-05
-4.95712e-06
-6.31825e-05
-8.63065e-05
-3.66284e-05
5.20103e-05
5.82974e-05
-4.59334e-05
-0.000196995
-0.000320322
-0.000381636
-0.000371083
-0.000323488
-0.000264012
-0.000218589
-0.00021124
-0.000231461
-0.000235336
-0.000206357
-0.000152971
-0.000104741
-7.97154e-05
-9.27883e-05
-0.00012458
-0.000136867
-0.000142856
-0.000182664
-0.000262005
-0.000343642
-0.000371154
-0.00030126
-0.000151099
-3.59208e-05
-3.52287e-05
-6.248e-05
-5.58495e-05
-4.55709e-05
-2.82053e-05
3.94377e-06
3.30709e-05
3.30132e-05
-7.46224e-06
-6.8317e-05
-9.67877e-05
-4.36006e-05
6.25561e-05
9.29192e-05
-6.79302e-06
-0.000170684
-0.000314691
-0.000398696
-0.000396083
-0.000344138
-0.000276631
-0.00022548
-0.000212938
-0.000227729
-0.000234101
-0.000208608
-0.000157402
-0.000105346
-7.54327e-05
-8.81968e-05
-0.000123415
-0.000136559
-0.000141072
-0.000182537
-0.000266062
-0.000352128
-0.000384472
-0.000321995
-0.000179867
-5.94445e-05
-5.30748e-05
-9.46686e-05
-8.92025e-05
-6.99782e-05
-4.30792e-05
-6.94892e-06
2.06976e-05
2.12376e-05
-1.0949e-05
-6.37069e-05
-9.72509e-05
-4.35357e-05
6.80176e-05
0.000126657
4.56496e-05
-0.00012763
-0.000294847
-0.00040091
-0.00042085
-0.000371069
-0.000294097
-0.000234128
-0.000216217
-0.000228881
-0.000231943
-0.000208774
-0.000164232
-0.000116023
-8.13657e-05
-8.4942e-05
-0.000120202
-0.000136408
-0.0001403
-0.000183808
-0.000272157
-0.000358084
-0.000383667
-0.000316366
-0.000181919
-7.13638e-05
-6.64092e-05
-0.000120275
-0.000129706
-0.000107059
-6.72261e-05
-1.82113e-05
1.40721e-05
8.5733e-06
-1.93654e-05
-5.66363e-05
-8.24374e-05
-3.44633e-05
6.55403e-05
0.000144787
9.88593e-05
-6.79209e-05
-0.000257106
-0.000391365
-0.000438075
-0.000402423
-0.000315838
-0.000243137
-0.000218579
-0.000229467
-0.000230139
-0.000209295
-0.00017046
-0.000128287
-9.49371e-05
-9.32261e-05
-0.000122956
-0.000139572
-0.000142561
-0.000186622
-0.000280126
-0.000361029
-0.000373168
-0.000292666
-0.000164201
-6.1104e-05
-6.63568e-05
-0.000133195
-0.000162926
-0.000150202
-0.000100861
-3.79664e-05
9.52157e-06
5.77621e-06
-1.7618e-05
-3.93157e-05
-5.74194e-05
-1.91562e-05
5.39569e-05
0.00013897
0.000131925
-2.93816e-06
-0.000199258
-0.000359811
-0.000441021
-0.000433165
-0.000343616
-0.000254385
-0.000219073
-0.000228244
-0.000235155
-0.000211606
-0.000176765
-0.000140447
-0.000110538
-0.0001071
-0.000135996
-0.000153526
-0.000151931
-0.000192982
-0.000287463
-0.000363401
-0.000362931
-0.000269264
-0.000153391
-4.91061e-05
-5.08144e-05
-0.000124198
-0.000174719
-0.000184365
-0.000135409
-6.70822e-05
-1.17386e-05
-3.07054e-06
-1.78634e-05
-2.19159e-05
-2.87406e-05
-7.3336e-06
2.90944e-05
0.000117709
0.000137409
4.80677e-05
-0.000132735
-0.000305454
-0.000418748
-0.000442436
-0.000373002
-0.000269859
-0.000222419
-0.000227146
-0.000235299
-0.000215407
-0.000180856
-0.000149321
-0.000124763
-0.000123866
-0.000153693
-0.000174795
-0.000174974
-0.000200939
-0.000284201
-0.00036006
-0.000351581
-0.000257934
-0.000149037
-6.30707e-05
-3.86238e-05
-9.97099e-05
-0.000159596
-0.000196069
-0.000156529
-9.94133e-05
-4.60166e-05
-2.418e-05
-2.4632e-05
-1.0416e-05
-5.89251e-06
-4.40014e-06
6.75915e-06
8.39324e-05
0.000122163
7.76403e-05
-7.15016e-05
-0.000240391
-0.000372242
-0.000432259
-0.000388543
-0.000285793
-0.000228964
-0.000226473
-0.000236511
-0.000221983
-0.000185878
-0.000153334
-0.000130127
-0.000131944
-0.000165656
-0.000191905
-0.00018591
-0.000195342
-0.000264062
-0.000348553
-0.000330568
-0.000243127
-0.000154518
-8.89012e-05
-4.15074e-05
-7.49993e-05
-0.000130855
-0.00018565
-0.000153129
-0.000120798
-8.2365e-05
-5.77759e-05
-4.13306e-05
-8.93846e-06
6.77368e-06
-1.17555e-05
-1.23291e-05
4.40995e-05
9.34367e-05
8.46988e-05
-2.77979e-05
-0.000179776
-0.000315717
-0.000401364
-0.000395255
-0.000317033
-0.000239861
-0.000226238
-0.000235129
-0.000230322
-0.000194824
-0.000156596
-0.000128038
-0.000123841
-0.000152093
-0.000180999
-0.000175995
-0.000180995
-0.000254649
-0.000322291
-0.000307867
-0.000225873
-0.000153976
-0.00010111
-4.47067e-05
-5.42529e-05
-0.000101605
-0.000134108
-0.000141996
-0.000133569
-0.000110393
-8.16749e-05
-6.09688e-05
-3.04636e-05
3.33056e-07
4.53638e-07
-1.67625e-05
-3.092e-06
4.97109e-05
6.29355e-05
-3.11532e-06
-0.000128605
-0.000256754
-0.00035052
-0.000376381
-0.00032184
-0.000245511
-0.000229144
-0.00023508
-0.000229617
-0.000202794
-0.000157898
-0.00011951
-0.000111613
-0.000139909
-0.000169777
-0.000170712
-0.000175299
-0.000239357
-0.000301924
-0.000284944
-0.000202436
-0.000148637
-0.000109752
-5.4935e-05
-3.43425e-05
-7.19591e-05
-0.000113518
-0.000135468
-0.000141734
-0.000129376
-9.72992e-05
-7.57939e-05
-4.94467e-05
-5.80689e-06
1.08604e-05
-1.69332e-05
-2.34216e-05
6.41504e-06
1.73489e-05
-1.87813e-05
-0.000108399
-0.000200809
-0.000267922
-0.000308693
-0.000300998
-0.000255922
-0.00023943
-0.000245503
-0.000235495
-0.000204767
-0.000157136
-0.000113531
-0.000104952
-0.000129962
-0.000160351
-0.00016988
-0.000173908
-0.000215702
-0.000273708
-0.000261413
-0.000180339
-0.000130169
-0.000114442
-6.9435e-05
-3.4159e-05
-5.29685e-05
-9.45169e-05
-0.000129163
-0.00014648
-0.000129922
-0.000102958
-8.63648e-05
-5.8674e-05
-1.04159e-05
9.09548e-06
-1.77125e-05
-5.03103e-05
-3.80943e-05
-4.06999e-05
-5.40012e-05
-0.000104394
-0.00014517
-0.000177907
-0.000210342
-0.000244852
-0.000255152
-0.000251621
-0.000267455
-0.000249701
-0.000214066
-0.000154542
-0.000110513
-9.97591e-05
-0.000118603
-0.000150627
-0.000171566
-0.000183866
-0.000193108
-0.000241063
-0.000244762
-0.00017656
-0.00011782
-9.7814e-05
-6.39856e-05
-3.58792e-05
-4.83725e-05
-9.08514e-05
-0.000125901
-0.000142755
-0.00013734
-0.000114547
-8.73519e-05
-5.64565e-05
-1.61615e-05
-7.84563e-06
-3.13919e-05
-7.49099e-05
-8.83625e-05
-8.12566e-05
-7.64168e-05
-0.000112768
-0.000135598
-0.000115065
-0.000111562
-0.000155678
-0.000209255
-0.000242534
-0.000256635
-0.000249301
-0.000223816
-0.000184153
-0.000146711
-0.000120847
-0.000107883
-0.000123467
-0.000162593
-0.000173162
-0.000169441
-0.000199649
-0.00022087
-0.000173666
-0.000127522
-9.09365e-05
-5.57924e-05
-3.08606e-05
-4.48707e-05
-9.52048e-05
-0.000135116
-0.000145176
-0.000136421
-0.000117405
-9.59624e-05
-6.44519e-05
-2.82832e-05
-4.36379e-05
-5.96042e-05
-8.72327e-05
-0.000111938
-0.000120217
-0.000103563
-0.000107894
-0.0001154
-0.00011344
-0.000118897
-0.000133168
-0.000162419
-0.000199261
-0.000226964
-0.000237849
-0.000225368
-0.000205568
-0.000189071
-0.000171953
-0.000151528
-0.000138366
-0.000142485
-0.00015398
-0.00014973
-0.000164458
-0.000188517
-0.000187743
-0.000165629
-0.000119515
-6.79465e-05
-3.43266e-05
-4.74043e-05
-0.000104304
-0.000150465
-0.000157493
-0.000139601
-0.000110221
-8.76075e-05
-6.4278e-05
-4.848e-05
-4.7213e-05
-6.71945e-05
-9.03426e-05
-0.000115371
-0.000123451
-0.000142107
-0.000151129
-0.000147703
-0.000130027
-0.000113464
-0.000116505
-0.000146282
-0.000184336
-0.000209911
-0.000219978
-0.000231009
-0.000230117
-0.000226287
-0.000209319
-0.000200771
-0.000179681
-0.000157873
-0.000146991
-0.000144064
-0.000157401
-0.000185809
-0.000188817
-0.000162094
-0.000117219
-5.92353e-05
-3.38084e-05
-5.23673e-05
-0.000113771
-0.000178631
-0.000194125
-0.000176227
-0.000131617
-8.90099e-05
-6.03659e-05
-4.56161e-05
-5.18971e-05
-8.60423e-05
-0.000104551
-7.48954e-05
-8.1421e-05
-0.000102356
-0.000130678
-0.000146925
-0.000143312
-0.000129311
-0.000118612
-0.00013853
-0.000176242
-0.000203439
-0.000210524
-0.000206256
-0.000217889
-0.000223927
-0.000231163
-0.000239671
-0.000251152
-0.000211419
-0.000180784
-0.000154851
-0.000146591
-0.000159284
-0.000166436
-0.00014924
-0.000116495
-7.34981e-05
-3.99669e-05
-3.98579e-05
-9.85944e-05
-0.000170703
-0.000214035
-0.000213103
-0.00017501
-0.000118615
-6.32721e-05
-4.01692e-05
-6.30915e-05
-8.18073e-05
-0.000101771
-0.000109289
-9.3667e-05
-9.76115e-05
-0.000113709
-0.000131814
-0.000140183
-0.000139211
-0.00013115
-0.000150466
-0.000179222
-0.000194898
-0.000196812
-0.000196128
-0.000191118
-0.000183356
-0.000178943
-0.000185664
-0.000199116
-0.000197147
-0.000180288
-0.000151067
-0.000142303
-0.000159927
-0.000175005
-0.00016021
-0.000125191
-9.4791e-05
-7.07058e-05
-5.78059e-05
-8.91129e-05
-0.000144356
-0.000193905
-0.000209815
-0.000191514
-0.000151847
-0.000107859
-7.10333e-05
-8.41989e-05
-8.84593e-05
-8.19839e-05
-9.51688e-05
-8.79069e-05
-9.47368e-05
-0.000119241
-0.000146569
-0.000165818
-0.000175239
-0.000175935
-0.000181697
-0.000185101
-0.000176256
-0.000164922
-0.000167079
-0.00018061
-0.000190842
-0.000190062
-0.000182865
-0.000170669
-0.000156011
-0.000146447
-0.000131273
-0.000122792
-0.000128238
-0.000143836
-0.000152278
-0.000144158
-0.000128762
-0.000109105
-9.61029e-05
-9.96664e-05
-0.000135347
-0.000181023
-0.000207381
-0.000200657
-0.000173336
-0.00013676
-0.000101551
-0.000111712
-0.000103164
-0.000108597
-9.21532e-05
-8.79127e-05
-9.85587e-05
-0.000127851
-0.000164502
-0.000190723
-0.000206888
-0.000212987
-0.000216057
-0.000205578
-0.000184013
-0.000164848
-0.00016298
-0.000174829
-0.000180643
-0.000174891
-0.000165824
-0.000161667
-0.000147653
-0.000118323
-9.12947e-05
-7.83623e-05
-8.84907e-05
-0.000121047
-0.000157154
-0.000168063
-0.000165847
-0.000151769
-0.000128638
-0.000112337
-0.000124203
-0.00015542
-0.000179973
-0.000186768
-0.000175949
-0.00015619
-0.000131302
-1.66005e-05
-2.9171e-05
-4.78423e-05
-8.21721e-05
-0.000131129
-0.000184975
-0.000235913
-0.000266867
-0.000265008
-0.000235282
-0.000200928
-0.000197343
-0.000223129
-0.000238513
-0.000216522
-0.000170254
-0.000130469
-0.000115748
-0.000128259
-0.000145253
-0.000144711
-0.0001486
-0.000178211
-0.000222399
-0.000258945
-0.000267334
-0.000225693
-0.000135143
-5.33656e-05
-4.31377e-06
2.46178e-05
3.437e-05
2.68916e-05
2.26775e-05
3.30798e-05
5.54948e-05
6.22099e-05
4.45771e-05
2.89746e-05
7.2194e-06
-1.53623e-05
-2.6485e-05
-4.47321e-05
-7.88274e-05
-0.000128131
-0.000182543
-0.000234537
-0.000266001
-0.000265098
-0.000235764
-0.000201292
-0.000197396
-0.000223146
-0.000238831
-0.000217056
-0.000170706
-0.000130788
-0.000116048
-0.000128696
-0.000145896
-0.000145396
-0.000149093
-0.000178363
-0.000222547
-0.000259231
-0.000268145
-0.000227316
-0.000137385
-5.56477e-05
-6.96243e-06
2.19367e-05
3.16619e-05
2.36116e-05
1.85138e-05
2.84138e-05
5.13881e-05
5.96514e-05
4.33252e-05
2.90587e-05
8.16185e-06
-1.24731e-05
-2.32786e-05
-4.14981e-05
-7.62116e-05
-0.000126589
-0.000182008
-0.000234836
-0.00026711
-0.000266706
-0.000237214
-0.000202032
-0.000197529
-0.000223563
-0.000240061
-0.000218523
-0.000171683
-0.000131282
-0.000116355
-0.000129183
-0.000146652
-0.000146328
-0.000149383
-0.000178287
-0.000222841
-0.00025994
-0.00026919
-0.000229562
-0.000139651
-5.73772e-05
-9.17551e-06
1.98719e-05
2.99288e-05
2.14852e-05
1.50354e-05
2.31171e-05
4.59055e-05
5.65192e-05
4.26898e-05
3.09911e-05
1.05091e-05
-7.45237e-06
-1.87911e-05
-3.81787e-05
-7.48792e-05
-0.000127503
-0.000184617
-0.000238448
-0.000271142
-0.000270419
-0.000239908
-0.000203317
-0.00019803
-0.00022481
-0.00024272
-0.000221533
-0.000173836
-0.000132457
-0.000117016
-0.000129972
-0.000147702
-0.000146991
-0.000148963
-0.000177935
-0.0002234
-0.000261261
-0.000270589
-0.000232088
-0.000141175
-5.69253e-05
-1.00892e-05
1.91416e-05
2.97799e-05
2.11292e-05
1.33634e-05
1.85892e-05
3.97964e-05
5.26447e-05
4.24001e-05
3.3958e-05
1.50154e-05
3.13854e-07
-1.24118e-05
-3.43995e-05
-7.46856e-05
-0.000130907
-0.000190566
-0.000245652
-0.000278263
-0.000276269
-0.000243814
-0.000205203
-0.00019901
-0.000226903
-0.000246644
-0.000226307
-0.000177747
-0.000135324
-0.000118929
-0.000131713
-0.000149632
-0.000147951
-0.000148287
-0.000177623
-0.000224509
-0.000263553
-0.000272598
-0.00023548
-0.000142589
-5.53623e-05
-9.47375e-06
1.98226e-05
3.08958e-05
2.21573e-05
1.39633e-05
1.64951e-05
3.42566e-05
4.77412e-05
4.13688e-05
3.7352e-05
2.17813e-05
1.17592e-05
-2.83213e-06
-2.89215e-05
-7.46826e-05
-0.000136204
-0.000199376
-0.00025627
-0.000288448
-0.000284207
-0.000248774
-0.000207636
-0.000200379
-0.000229355
-0.000250776
-0.000231345
-0.000182951
-0.000140367
-0.000123037
-0.000135162
-0.000153009
-0.000149724
-0.00014763
-0.000177268
-0.00022649
-0.00026622
-0.0002767
-0.000242882
-0.000147978
-5.60856e-05
-8.33383e-06
2.16118e-05
3.24294e-05
2.3168e-05
1.60323e-05
1.79392e-05
3.10545e-05
4.24287e-05
3.86407e-05
3.96282e-05
3.04722e-05
2.76361e-05
1.20202e-05
-1.92073e-05
-7.26442e-05
-0.00014232
-0.000209913
-0.000269454
-0.000301415
-0.00029457
-0.00025506
-0.000210642
-0.000201877
-0.000231374
-0.000253672
-0.000234994
-0.000187354
-0.000145964
-0.000128827
-0.000140444
-0.000157999
-0.000152485
-0.000147004
-0.000176859
-0.000229138
-0.000271182
-0.000285861
-0.000260641
-0.000166026
-6.81619e-05