/*--------------------------------*- C++ -*----------------------------------*\
| =========                 |                                                 |
| \\      /  F ield         | OpenFOAM: The Open Source CFD Toolbox           |
|  \\    /   O peration     | Version:  2306                                  |
|   \\  /    A nd           | Website:  www.openfoam.com                      |
|    \\/     M anipulation  |                                                 |
\*---------------------------------------------------------------------------*/
FoamFile
{
    version     2.0;
    format      ascii;
    arch        "LSB;label=32;scalar=64";
    class       surfaceScalarField;
    location    "6";
    object      phi_0;
}
// * * * * * * * * * * * * * * * * * * * * * * * * * * * * * * * * * * * * * //

dimensions      [0 3 -1 0 0 0 0];

oriented        oriented;

internalField   nonuniform List<scalar> 
175300
(
5.4038e-06
5.04817e-07
-2.05883e-08
5.83935e-06
5.5554e-07
2.74287e-07
6.10233e-06
8.06596e-07
6.77736e-07
6.10895e-06
9.90899e-07
1.20449e-06
5.91489e-06
8.70555e-07
1.76131e-06
5.67516e-06
5.11805e-07
2.15729e-06
5.49237e-06
2.00978e-07
2.22385e-06
5.36335e-06
6.49769e-08
1.99832e-06
5.25223e-06
6.20382e-08
1.61047e-06
5.12569e-06
7.06276e-08
1.25266e-06
4.92792e-06
2.05936e-08
1.09361e-06
4.59385e-06
-3.77637e-08
1.13803e-06
4.148e-06
-9.39745e-08
1.25701e-06
3.73481e-06
-1.97502e-07
1.32872e-06
3.49668e-06
-3.47934e-07
1.31822e-06
3.45531e-06
-5.15376e-07
1.23468e-06
3.55448e-06
-6.59977e-07
1.0716e-06
3.68695e-06
-6.71403e-07
8.33864e-07
3.78157e-06
-4.87107e-07
5.33993e-07
3.89293e-06
-2.53249e-07
2.04666e-07
4.08812e-06
-5.41618e-08
-9.10014e-08
4.32069e-06
1.87251e-07
-3.45351e-07
4.51262e-06
3.68643e-07
-4.85915e-07
4.67439e-06
3.17241e-07
-5.1746e-07
4.85043e-06
-2.29317e-08
-5.10083e-07
5.0912e-06
-4.85369e-07
-6.39219e-07
5.37695e-06
-7.86492e-07
-9.94616e-07
5.5707e-06
-7.31535e-07
-1.41713e-06
5.54996e-06
-4.07454e-07
-1.70125e-06
5.29196e-06
1.47755e-08
-1.90297e-06
4.85338e-06
3.62133e-07
-2.10264e-06
4.36059e-06
4.24085e-07
-2.11879e-06
4.00642e-06
1.22592e-07
-1.93595e-06
3.83861e-06
-1.6444e-07
-1.80598e-06
3.8217e-06
-2.15235e-07
-1.78678e-06
3.93741e-06
-1.19652e-07
-1.69703e-06
4.12872e-06
9.25e-08
-1.41599e-06
4.34579e-06
3.89658e-07
-1.01694e-06
4.60747e-06
6.26742e-07
-6.44553e-07
6.41411e-07
-3.39686e-07
1.79953e-05
1.40241e-06
1.11679e-07
1.93633e-05
1.6057e-06
1.1354e-06
2.02875e-05
2.34838e-06
2.49439e-06
2.05288e-05
2.77587e-06
4.10123e-06
2.00941e-05
2.31784e-06
5.59184e-06
1.93315e-05
1.30354e-06
6.45607e-06
1.86347e-05
4.76932e-07
6.45934e-06
1.81397e-05
1.14619e-07
5.77351e-06
1.77685e-05
9.60585e-08
4.73307e-06
1.73618e-05
1.12744e-07
3.78973e-06
1.66943e-05
1.27682e-08
3.32166e-06
1.55999e-05
-1.14541e-07
3.35609e-06
1.42116e-05
-3.24949e-07
3.64253e-06
1.29421e-05
-7.81834e-07
3.90409e-06
1.21492e-05
-1.44304e-06
3.97556e-06
1.18846e-05
-2.08973e-06
3.76529e-06
1.19739e-05
-2.47745e-06
3.24521e-06
1.21783e-05
-2.30615e-06
2.47032e-06
1.24045e-05
-1.59302e-06
1.5544e-06
1.27775e-05
-7.9227e-07
6.22057e-07
1.33769e-05
-1.07919e-07
-1.96889e-07
1.40812e-05
6.0668e-07
-8.52915e-07
1.47793e-05
9.45563e-07
-1.22322e-06
1.55295e-05
4.9446e-07
-1.31948e-06
1.64092e-05
-9.13665e-07
-1.36852e-06
1.7436e-05
-2.51915e-06
-1.81665e-06
1.8431e-05
-3.39095e-06
-2.81749e-06
1.89845e-05
-2.97473e-06
-3.94576e-06
1.8792e-05
-1.63303e-06
-4.75485e-06
1.7875e-05
-5.64834e-08
-5.33115e-06
1.65248e-05
1.02958e-06
-5.69871e-06
1.51345e-05
1.02601e-06
-5.57482e-06
1.40229e-05
4.47798e-08
-5.21018e-06
1.32543e-05
-7.25288e-07
-5.12768e-06
1.28957e-05
-7.91702e-07
-5.20759e-06
1.30256e-05
-4.6213e-07
-4.88745e-06
1.35264e-05
2.5387e-07
-3.97578e-06
1.4264e-05
1.23841e-06
-2.80571e-06
1.52558e-05
1.92784e-06
-1.73903e-06
1.8492e-06
-8.29813e-07
3.30538e-05
1.81267e-06
-1.31668e-07
3.56823e-05
2.20117e-06
1.66682e-06
3.76998e-05
3.58548e-06
4.10497e-06
3.86399e-05
4.33738e-06
6.92158e-06
3.82372e-05
3.53704e-06
9.44222e-06
3.68753e-05
1.91465e-06
1.08532e-05
3.5381e-05
6.65765e-07
1.08735e-05
3.42863e-05
1.00561e-07
9.83451e-06
3.35598e-05
2.66225e-08
8.26059e-06
3.28746e-05
2.73598e-08
6.7724e-06
3.17902e-05
-9.93102e-08
5.87019e-06
2.99946e-05
-2.38518e-07
5.63975e-06
2.76461e-05
-5.7921e-07
5.88228e-06
2.53246e-05
-1.48889e-06
6.32961e-06
2.36073e-05
-2.90604e-06
6.65615e-06
2.26994e-05
-4.32267e-06
6.51196e-06
2.24336e-05
-5.13531e-06
5.76897e-06
2.25016e-05
-4.75672e-06
4.54993e-06
2.27794e-05
-3.33888e-06
3.08072e-06
2.34024e-05
-1.74569e-06
1.57389e-06
2.44271e-05
-3.33666e-07
1.98607e-07
2.56791e-05
9.9029e-07
-8.71278e-07
2.70473e-05
1.36867e-06
-1.46566e-06
2.86292e-05
-8.42416e-09
-1.55146e-06
3.05117e-05
-3.31444e-06
-1.50303e-06
3.26488e-05
-6.84562e-06
-2.10499e-06
3.46696e-05
-8.61566e-06
-3.70496e-06
3.58461e-05
-7.49536e-06
-5.68149e-06
3.5647e-05
-4.32453e-06
-7.25277e-06
3.41436e-05
-7.44377e-07
-8.353e-06
3.19096e-05
1.57693e-06
-8.89653e-06
2.95893e-05
1.54097e-06
-8.58639e-06
2.75388e-05
-3.17496e-07
-8.02259e-06
2.57762e-05
-1.68347e-06
-8.06969e-06
2.45274e-05
-1.74451e-06
-8.48761e-06
2.41806e-05
-1.15278e-06
-8.26842e-06
2.47441e-05
1.30208e-07
-6.9535e-06
2.60011e-05
1.97901e-06
-5.08566e-06
2.78742e-05
3.15899e-06
-3.33769e-06
2.91191e-06
-1.83151e-06
5.00316e-05
7.21924e-07
-2.01166e-06
5.43701e-05
8.04557e-07
8.8612e-07
5.81157e-05
3.05694e-06
4.42859e-06
6.05201e-05
4.48653e-06
8.67507e-06
6.07711e-05
3.65605e-06
1.26445e-05
5.89421e-05
1.82613e-06
1.50553e-05
5.63307e-05
5.633e-07
1.54138e-05
5.42643e-05
-7.05116e-09
1.42032e-05
5.30168e-05
-1.57529e-07
1.22423e-05
5.20948e-05
-2.35987e-07
1.03277e-05
5.07856e-05
-3.93026e-07
8.95447e-06
4.8552e-05
-4.59711e-07
8.16554e-06
4.54285e-05
-7.51289e-07
7.93527e-06
4.19575e-05
-1.92288e-06
8.31463e-06
3.8821e-05
-4.03004e-06
9.02191e-06
3.65316e-05
-6.38899e-06
9.31609e-06
3.52383e-05
-8.02317e-06
8.71102e-06
3.47335e-05
-7.82622e-06
7.3174e-06
3.48358e-05
-5.86735e-06
5.48812e-06
3.56039e-05
-3.41129e-06
3.50564e-06
3.70187e-05
-1.06866e-06
1.60644e-06
3.88414e-05
9.69684e-07
1.73877e-07
4.09562e-05
1.33613e-06
-6.19182e-07
4.34758e-05
-1.59832e-06
-4.94023e-07
4.65052e-05
-7.703e-06
1.79056e-08
5.00129e-05
-1.43164e-05
-2.5647e-07
5.35227e-05
-1.77142e-05
-2.29856e-06
5.59331e-05
-1.56975e-05
-5.47573e-06
5.6318e-05
-9.73956e-06
-8.4107e-06
5.46672e-05
-2.98377e-06
-1.0588e-05
5.18025e-05
1.4617e-06
-1.16821e-05
4.86398e-05
1.80075e-06
-1.1241e-05
4.55955e-05
-9.15343e-07
-1.02322e-05
4.25448e-05
-2.93745e-06
-1.02049e-05
3.97167e-05
-2.97644e-06
-1.1132e-05
3.79574e-05
-2.2047e-06
-1.1605e-05
3.78377e-05
-6.25715e-07
-1.05656e-05
3.92674e-05
1.91821e-06
-8.41951e-06
4.19757e-05
3.57196e-06
-6.18688e-06
2.78002e-06
-4.21721e-06
6.74693e-05
-3.39694e-06
-6.60661e-06
7.39302e-05
-4.81712e-06
-2.89376e-06
8.01563e-05
-1.72288e-06
1.96752e-06
8.51436e-05
1.32473e-06
7.79544e-06
8.7272e-05
1.28603e-06
1.39401e-05
8.56933e-05
1.32857e-07
1.82933e-05
8.18619e-05
-2.78174e-07
1.97536e-05
7.83435e-05
-3.31156e-07
1.87094e-05
7.62753e-05
-4.33393e-07
1.64639e-05
7.51373e-05
-6.60459e-07
1.43109e-05
7.38713e-05
-9.32169e-07
1.27444e-05
7.1628e-05
-9.08142e-07
1.13953e-05
6.81972e-05
-9.10265e-07
1.01881e-05
6.38609e-05
-1.87978e-06
9.82907e-06
5.90774e-05
-4.17849e-06
1.06733e-05
5.45457e-05
-7.25123e-06
1.17536e-05
5.1095e-05
-1.00418e-05
1.18279e-05
4.91008e-05
-1.08336e-05
1.06826e-05
4.84711e-05
-9.04131e-06
8.82277e-06
4.90801e-05
-5.97753e-06
6.61779e-06
5.07038e-05
-2.54872e-06
4.32358e-06
5.29519e-05
5.5341e-07
2.47512e-06
5.56324e-05
9.09211e-07
1.74114e-06
5.88029e-05
-4.0294e-06
2.51122e-06
6.25867e-05
-1.41698e-05
4.41452e-06
6.72443e-05
-2.54903e-05
5.40608e-06
7.26866e-05
-3.22307e-05
3.57413e-06
7.75071e-05
-2.97814e-05
-1.19941e-06
7.98769e-05
-2.0027e-05
-6.65782e-06
7.92365e-05
-8.39815e-06
-1.11727e-05
7.64876e-05
-2.79373e-07
-1.38405e-05
7.28367e-05
1.45572e-06
-1.37174e-05
6.8947e-05
-1.71892e-06
-1.19944e-05
6.46556e-05
-4.31687e-06
-1.13732e-05
5.99265e-05
-4.23695e-06
-1.25925e-05
5.57312e-05
-3.26144e-06
-1.4114e-05
5.34884e-05
-1.76794e-06
-1.42413e-05
5.38916e-05
8.6054e-07
-1.2805e-05
5.67373e-05
2.53658e-06
-1.08406e-05
7.07825e-07
-8.94901e-06
8.30725e-05
-1.10403e-05
-1.45878e-05
9.11101e-05
-1.56544e-05
-1.12592e-05
0.000100008
-1.34144e-05
-5.63101e-06
0.000108989
-8.77519e-06
1.79808e-06
0.000115272
-6.3375e-06
1.07439e-05
0.000115936
-5.10055e-06
1.86686e-05
0.000111615
-2.94702e-06
2.29194e-05
0.000106322
-1.35161e-06
2.30215e-05
0.000103008
-9.39082e-07
2.06042e-05
0.000101612
-1.24785e-06
1.81805e-05
0.000100656
-1.7547e-06
1.69264e-05
9.88632e-05
-1.77618e-06
1.57331e-05
9.5783e-05
-1.37655e-06
1.35144e-05
9.13983e-05
-1.61952e-06
1.14756e-05
8.55691e-05
-3.30033e-06
1.15243e-05
7.85281e-05
-6.28871e-06
1.32799e-05
7.16308e-05
-9.90005e-06
1.45849e-05
6.65268e-05
-1.23188e-05
1.42296e-05
6.39303e-05
-1.19083e-05
1.26982e-05
6.36531e-05
-9.07741e-06
1.05942e-05
6.50394e-05
-4.66042e-06
8.18442e-06
6.73219e-05
-1.14836e-07
6.16577e-06
7.00889e-05
5.19219e-07
5.64662e-06
7.32281e-05
-6.78247e-06
7.55846e-06
7.66339e-05
-2.18431e-05
1.14474e-05
8.07748e-05
-3.90687e-05
1.47352e-05
8.70464e-05
-5.09661e-05
1.44418e-05
9.53675e-05
-5.10891e-05
9.35268e-06
0.000102628
-3.8629e-05
1.06053e-06
0.00010582
-1.9872e-05
-8.12945e-06
0.00010506
-5.48347e-06
-1.44039e-05
0.000101885
-3.72891e-07
-1.59595e-05
9.75525e-05
-2.94754e-06
-1.37504e-05
9.23834e-05
-5.71814e-06
-1.19199e-05
8.61877e-05
-5.29086e-06
-1.27488e-05
7.94594e-05
-3.82897e-06
-1.50102e-05
7.3887e-05
-2.35452e-06
-1.66214e-05
7.12545e-05
-7.15114e-08
-1.68952e-05
7.22349e-05
8.34958e-07
-1.65349e-05
-3.21586e-06
-1.59983e-05
9.78459e-05
-1.97009e-05
-2.39006e-05
0.000104541
-2.94402e-05
-2.25012e-05
0.000112947
-2.93474e-05
-1.82564e-05
0.000124416
-2.54537e-05
-1.1083e-05
0.000137348
-2.31237e-05
-4.14508e-07
0.000144917
-1.80784e-05
1.23773e-05
0.000143217
-1.0219e-05
2.23513e-05
0.000136834
-4.42281e-06
2.61878e-05
0.000131967
-2.35294e-06
2.4481e-05
0.000130301
-2.34437e-06
2.13026e-05
0.000129989
-2.97549e-06
2.03132e-05
0.000129011
-3.20377e-06
2.05863e-05
0.000126804
-2.57503e-06
1.86375e-05
0.000123438
-1.85949e-06
1.45498e-05
0.000118195
-2.25768e-06
1.22987e-05
0.00010995
-4.11123e-06
1.37111e-05
9.9371e-05
-7.31382e-06
1.64056e-05
8.9348e-05
-1.07882e-05
1.74719e-05
8.26428e-05
-1.26511e-05
1.66324e-05
7.9982e-05
-1.14719e-05
1.48214e-05
8.03373e-05
-6.74854e-06
1.24602e-05
8.22896e-05
-5.6506e-07
1.02925e-05
8.5066e-05
7.14972e-07
9.82964e-06
8.83398e-05
-8.8283e-06
1.24243e-05
9.13652e-05
-2.8477e-05
1.75849e-05
9.35762e-05
-5.0886e-05
2.28405e-05
9.68629e-05
-6.8252e-05
2.54541e-05
0.000104817
-7.35628e-05
2.29753e-05
0.000117293
-6.26312e-05
1.4483e-05
0.000128546
-4.01436e-05
1.68343e-06
0.000134068
-1.71705e-05
-1.10605e-05
0.000133797
-5.48745e-06
-1.6889e-05
0.000129857
-5.18496e-06
-1.56494e-05
0.000124205
-7.05199e-06
-1.25285e-05
0.000117469
-5.98486e-06
-1.20724e-05
0.000109532
-3.84262e-06
-1.41862e-05
0.000101388
-1.88771e-06
-1.67151e-05
9.51255e-05
6.01195e-07
-1.86779e-05
9.23149e-05
7.54922e-07
-2.05853e-05
-6.35067e-06
-2.27188e-05
0.000118104
-2.38328e-05
-3.04028e-05
0.000120293
-4.04869e-05
-3.30727e-05
0.000124511
-4.37412e-05
-3.16735e-05
0.000132591
-4.11733e-05
-2.62857e-05
0.000147687
-4.26149e-05
-1.6517e-05
0.000164269
-3.9772e-05
-1.96325e-06
0.000170663
-2.60756e-05
1.48217e-05
0.000165988
-1.1891e-05
2.57812e-05
0.00015985
-5.91086e-06
2.75763e-05
0.000158267
-5.17389e-06
2.35653e-05
0.000159595
-5.45508e-06
2.13718e-05
0.000160045
-5.36451e-06
2.34672e-05
0.00015873
-4.55518e-06
2.43291e-05
0.0001569
-3.31307e-06
1.99231e-05
0.000154245
-2.64466e-06
1.44564e-05
0.000147961
-2.98059e-06
1.37097e-05
0.00013608
-4.32174e-06
1.7083e-05
0.00012095
-6.65026e-06
2.00089e-05
0.000107842
-9.78741e-06
2.03521e-05
0.000100311
-1.12686e-05
1.89737e-05
9.81959e-05
-7.77479e-06
1.6745e-05
9.95537e-05
-6.13623e-07
1.43276e-05
0.000102922
1.65618e-06
1.31959e-05
0.00010742
-9.14227e-06
1.51704e-05
0.0001117
-3.15889e-05
1.9804e-05
0.000113708
-5.67349e-05
2.51268e-05
0.000113159
-7.68088e-05
3.00382e-05
0.000114981
-8.69797e-05
3.2648e-05
0.000125172
-8.25131e-05
2.89063e-05
0.000141992
-6.26214e-05
1.63702e-05
0.000157198
-3.56709e-05
-1.30905e-06
0.000164104
-1.58644e-05
-1.40541e-05
0.000162386
-9.02385e-06
-1.66849e-05
0.000156417
-7.70555e-06
-1.36425e-05
0.000149844
-6.0622e-06
-1.12265e-05
0.000142718
-3.74706e-06
-1.18627e-05
0.000134679
-8.37652e-07
-1.42996e-05
0.000127212
3.04801e-06
-1.71531e-05
0.00012185
3.8581e-06
-2.07069e-05
-5.00252e-06
-2.54221e-05
0.000149363
-1.94414e-05
-3.0516e-05
0.000144591
-4.26164e-05
-3.89621e-05
0.00014313
-5.18242e-05
-4.33263e-05
0.000145605
-5.0448e-05
-4.10528e-05
0.000155882
-5.53033e-05
-3.20638e-05
0.000175071
-6.1026e-05
-1.72693e-05
0.000191094
-4.99781e-05
2.24318e-06
0.000192092
-2.58904e-05
2.0267e-05
0.000184147
-1.10403e-05
2.83367e-05
0.000180932
-9.45735e-06
2.52202e-05
0.000185336
-1.12982e-05
1.98522e-05
0.000189531
-9.78291e-06
2.12788e-05
0.000188593
-5.93711e-06
2.57499e-05
0.000186258
-3.68426e-06
2.43238e-05
0.000186742
-4.75449e-06
1.75867e-05
0.000186892
-6.56139e-06
1.39723e-05
0.000179617
-6.05047e-06
1.68639e-05
0.000163157
-4.10192e-06
2.15948e-05
0.000143515
-4.48231e-06
2.35594e-05
0.000128431
-6.91438e-06
2.28286e-05
0.000121154
-5.92908e-06
2.09817e-05
0.000120522
1.33726e-07
1.87427e-05
0.000124255
2.60295e-06
1.68289e-05
0.000130304
-8.57128e-06
1.69895e-05
0.000136642
-3.16617e-05
1.9247e-05
0.000140655
-5.68276e-05
2.29125e-05
0.000139758
-7.63002e-05
2.83011e-05
0.000135865
-8.7415e-05
3.53943e-05
0.000137974
-8.93545e-05
3.88372e-05
0.000152295
-7.87578e-05
3.08016e-05
0.00017356
-5.67188e-05
1.24059e-05
0.000188381
-3.1273e-05
-6.32964e-06
0.000187437
-1.21056e-05
-1.49791e-05
0.000176096
-1.98422e-06
-1.4459e-05
0.000166931
-1.73164e-06
-1.05339e-05
0.00016409
-5.05858e-06
-8.02285e-06
0.00016324
-3.52565e-06
-8.65415e-06
0.00016123
3.74587e-06
-1.15993e-05
0.00015866
8.14713e-06
-1.59854e-05
1.02914e-06
-2.21981e-05
0.000189738
-9.06948e-06
-2.28308e-05
0.00017931
-3.31325e-05
-3.68852e-05
0.000170602
-4.93115e-05
-4.95843e-05
0.000167802
-5.20605e-05
-5.44485e-05
0.000172034
-5.77891e-05
-4.82138e-05
0.000186167
-7.14204e-05
-3.29236e-05
0.000206473
-7.23554e-05
-1.23173e-05
0.000218179
-4.94823e-05
1.03366e-05
0.00021377
-2.16579e-05
2.53145e-05
0.000204365
-1.2125e-05
2.62201e-05
0.000204962
-1.71342e-05
1.84763e-05
0.000214172
-1.9298e-05
1.54676e-05
0.000218044
-1.01695e-05
2.01507e-05
0.000212568
6.1839e-07
2.24907e-05
0.00020867
-4.57845e-07
1.76254e-05
0.000213825
-1.1762e-05
1.26076e-05
0.000219051
-1.79893e-05
1.47237e-05
0.000211299
-1.19339e-05
2.137e-05
0.000190786
-3.03795e-06
2.5554e-05
0.000168222
2.84754e-07
2.56675e-05
0.00015263
1.19302e-06
2.45171e-05
0.000146899
3.81753e-06
2.36694e-05
0.000149647
2.60091e-06
2.20553e-05
0.000157396
-1.10717e-05
1.96378e-05
0.000166273
-3.40202e-05
1.71291e-05
0.000172578
-5.57831e-05
1.65224e-05
0.000173179
-7.08291e-05
2.09234e-05
0.00016732
-7.84628e-05
3.12517e-05
0.000161725
-8.2293e-05
4.19279e-05
0.000167846
-8.24155e-05
4.09755e-05
0.00018711
-7.26347e-05
2.41635e-05
0.000204733
-4.82508e-05
2.72894e-06
0.000204534
-1.51861e-05
-1.19365e-05
0.000188414
8.82604e-06
-1.49176e-05
0.000173263
1.05397e-05
-1.05974e-05
0.000169426
-1.18281e-06
-3.95829e-06
0.000174694
-7.10187e-06
-1.15326e-07
0.000182872
-5.32806e-07
-7.02079e-07
0.000190374
7.5541e-06
-4.78987e-06
6.22127e-06
-1.19776e-05
0.000228886
-1.81334e-06
-6.66305e-06
0.000220869
-1.65738e-05
-2.62167e-05
0.00020609
-3.4245e-05
-4.72094e-05
0.000196649
-4.44153e-05
-6.22058e-05
0.00019681
-5.34272e-05
-6.35789e-05
0.00020535
-7.00261e-05
-5.05285e-05
0.0002217
-8.28225e-05
-2.92342e-05
0.000239856
-7.31873e-05
-4.58933e-06
0.000247298
-4.38963e-05
1.71592e-05
0.000239814
-2.01874e-05
2.52036e-05
0.000229612
-1.73161e-05
1.90333e-05
0.000231487
-2.43553e-05
1.08272e-05
0.000241839
-1.98838e-05
1.14167e-05
0.000244749
-1.92544e-06
1.6255e-05
0.000237564
7.33153e-06
1.60228e-05
0.000234704
-7.01509e-06
1.15268e-05
0.000244067
-2.95869e-05
1.13653e-05
0.000251809
-3.27609e-05
1.83712e-05
0.00024258
-1.5392e-05
2.51931e-05
0.000219663
2.87725e-06
2.64643e-05
0.000196184
1.26638e-05
2.57497e-05
0.000182017
1.40144e-05
2.75547e-05
0.000180363
4.83316e-06
2.87036e-05
0.000188453
-1.70435e-05
2.44042e-05
0.000200569
-4.27392e-05
1.49172e-05
0.000210485
-5.94124e-05
6.18767e-06
0.000213199
-6.55011e-05
6.62338e-06
0.000206728
-6.58306e-05
1.96603e-05
0.000195333
-6.6114e-05
3.81195e-05
0.000191099
-7.21747e-05
4.62333e-05
0.0002021
-7.62981e-05
3.3625e-05
0.000218022
-6.0126e-05
1.03976e-05
0.000220625
-1.942e-05
-8.12017e-06
0.000206626
1.75382e-05
-1.49869e-05
0.000189942
2.46201e-05
-1.27105e-05
0.000182194
7.98854e-06
-3.98951e-06
0.000184857
-5.40278e-06
5.2645e-06
0.000194274
-3.27916e-06
1.1023e-05
0.000207968
3.99176e-06
1.15129e-05
5.34984e-06
6.15065e-06
0.000258333
-2.94635e-06
1.31918e-05
0.000261948
-3.48815e-06
-9.0072e-06
0.000248623
-1.16499e-05
-3.71936e-05
0.000232987
-2.67111e-05
-6.14e-05
0.000228163
-4.37306e-05
-7.30059e-05
0.000234077
-6.26763e-05
-6.73129e-05
0.000245322
-8.05398e-05
-4.81571e-05
0.000260546
-8.60956e-05
-2.28168e-05
0.000274755
-6.98966e-05
3.51179e-06
0.000277248
-4.00238e-05
1.98036e-05
0.000266026
-1.9977e-05
1.89529e-05
0.000255467
-1.9582e-05
8.78114e-06
0.000259064
-2.28998e-05
4.75996e-06
0.000270593
-1.26444e-05
1.03486e-05
0.000274045
2.52809e-06
1.54585e-05
0.00026771
-9.85589e-07
1.35133e-05
0.000266382
-2.74407e-05
9.91283e-06
0.000276788
-4.92275e-05
1.37089e-05
0.000283935
-4.0409e-05
2.17785e-05
0.000273535
-9.46859e-06
2.47504e-05
0.000250611
1.85439e-05
2.43778e-05
0.00022966
2.74246e-05
2.90257e-05
0.000219647
1.50631e-05
3.40549e-05
0.000221792
-1.52298e-05
2.81298e-05
0.000233347
-4.89003e-05
1.09445e-05
0.000248388
-6.79817e-05
-5.37544e-06
0.000257092
-6.67351e-05
-1.07134e-05
0.000252523
-5.59344e-05
1.69624e-06
0.000237209
-4.79241e-05
2.74168e-05
0.000223158
-5.20296e-05
4.67168e-05
0.000222755
-6.48768e-05
4.20833e-05
0.000232921
-6.03302e-05
1.92401e-05
0.000238179
-2.21777e-05
-2.28031e-06
0.000231753
2.08078e-05
-1.37702e-05
0.000220629
3.38368e-05
-1.68022e-05
0.000212271
1.82314e-05
-1.18399e-05
0.000209344
2.05979e-06
-7.39785e-07
0.000212044
7.56314e-07
1.0408e-05
0.000221402
3.7862e-06
1.86708e-05
7.29297e-07
2.12068e-05
0.000282353
-1.26204e-05
2.10755e-05
0.000298669
-3.53811e-06
6.70386e-06
0.00029443
6.44975e-06
-2.46071e-05
0.000277933
-4.88892e-06
-5.47666e-05
0.000267234
-2.92375e-05
-7.42031e-05
0.000269873
-5.28045e-05
-7.75153e-05
0.000279246
-7.1486e-05
-6.54412e-05
0.000289201
-8.55218e-05
-4.25391e-05
0.000300037
-8.62846e-05
-1.43673e-05
0.000306947
-6.36171e-05
9.27011e-06
0.000301947
-3.02e-05
1.56267e-05
0.000289456
-1.34278e-05
7.56273e-06
0.000284265
-1.62831e-05
1.08206e-06
0.000292867
-1.87522e-05
5.98419e-06
0.000304686
-1.01375e-05
1.5302e-05
0.000306788
-4.91144e-06
1.74631e-05
0.000300766
-2.04383e-05
1.18063e-05
0.000299842
-4.7436e-05
8.86481e-06
0.000308022
-5.59449e-05
1.41888e-05
0.000312222
-3.19265e-05
1.98367e-05
0.000301907
6.20652e-06
2.33275e-05
0.000282556
2.9678e-05
3.10003e-05
0.000266025
2.82018e-05
3.69437e-05
0.000257636
3.55583e-06
2.63265e-05
0.000260467
-3.51461e-05
1.99431e-06
0.00027638
-6.88907e-05
-1.72537e-05
0.000295161
-7.50536e-05
-2.32594e-05
0.000299152
-5.72686e-05
-1.27337e-05
0.000284258
-3.76788e-05
1.46884e-05
0.000263122
-3.17286e-05
4.2918e-05
0.000251638
-4.27517e-05
4.92048e-05
0.000253721
-4.63516e-05
3.0233e-05
0.000258776
-1.78394e-05
6.02491e-06
0.000259224
2.22673e-05
-1.09742e-05
0.000256611
3.6296e-05
-2.02972e-05
0.000253025
2.37756e-05
-2.15101e-05
0.000248226
1.02007e-05
-1.39522e-05
0.00024401
9.44424e-06
-2.08399e-06
0.000245138
9.51681e-06
9.07718e-06
-2.98102e-06
1.89293e-05
0.000311062
-2.02222e-05
1.15783e-05
0.000333961
-1.26613e-05
8.1031e-06
0.000342034
1.05511e-05
-1.55261e-05
0.000330754
1.14538e-05
-4.63727e-05
0.000315626
-1.14399e-05
-7.11769e-05
0.000312133
-3.74237e-05
-8.1927e-05
0.000319965
-5.74126e-05
-7.75396e-05
0.000328511
-7.56797e-05
-6.05974e-05
0.000333498
-8.90806e-05
-3.35597e-05
0.000336557
-7.88673e-05
-6.09532e-06
0.000334214
-4.35662e-05
9.41797e-06
0.000325242
-1.12094e-05
6.2366e-06
0.000317908
-5.36702e-06
-6.27766e-07
0.000321601
-1.52052e-05
2.26518e-06
0.00033411
-1.83067e-05
1.38719e-05
0.000343904
-1.3144e-05
2.18546e-05
0.000343232
-1.74862e-05
1.79327e-05
0.000335215
-3.59208e-05
8.25825e-06
0.000328935
-5.05255e-05
6.45697e-06
0.000326874
-4.25632e-05
1.47173e-05
0.000322606
-1.40764e-05
2.63101e-05
0.000312914
1.53409e-05
3.56055e-05
0.000303213
3.02496e-05
3.45402e-05
0.000296565
2.19373e-05
1.66032e-05
0.000293782
-1.12045e-05
-9.08221e-06
0.000303403
-5.52662e-05
-2.82215e-05
0.000326231
-7.97237e-05
-3.04043e-05
0.000341388
-6.90517e-05
-1.7052e-05
0.000332134
-4.04432e-05
8.16046e-06
0.000307456
-2.12073e-05
3.82658e-05
0.000287889
-2.13159e-05
5.38296e-05
0.000282905
-2.36102e-05
4.20055e-05
0.000286743
-3.775e-06
1.6795e-05
0.000291518
2.60923e-05
-5.41548e-06
0.000296023
3.48909e-05
-2.06464e-05
0.000299303
2.19118e-05
-2.82868e-05
0.00029826
1.18892e-05
-2.66967e-05
0.000292928
1.50816e-05
-1.90845e-05
0.000288395
1.57942e-05
-9.58106e-06
-8.87938e-07
1.86298e-06
0.00034527
-1.56385e-05
-6.65631e-08
0.000364133
-1.64215e-05
1.8774e-06
0.000383015
5.79683e-06
-1.34632e-05
0.000384366
1.75064e-05
-3.922e-05
0.000371225
4.90788e-06
-6.50177e-05
0.000362588
-1.67102e-05
-8.16097e-05
0.000367572
-3.66528e-05
-8.47403e-05
0.000377401
-5.93015e-05
-7.4839e-05
0.000380716
-8.18664e-05
-5.24848e-05
0.000377421
-8.3268e-05
-2.32476e-05
0.000371418
-5.21597e-05
-2.0434e-06
0.000363361
-1.19896e-05
3.31498e-06
0.000356457
5.23126e-06
-8.18587e-07
0.00035717
-3.88938e-06
7.76712e-07
0.000367553
-1.6601e-05
1.21616e-05
0.000380522
-1.84659e-05
2.49868e-05
0.00038481
-1.85822e-05
2.64225e-05
0.000374562
-2.5713e-05
1.49415e-05
0.000354711
-3.37203e-05
5.39459e-06
0.000336997
-3.30323e-05
9.32059e-06
0.000328867
-1.99542e-05
2.02033e-05
0.000329794
-2.83678e-07
2.46258e-05
0.000336059
1.83015e-05
1.6452e-05
0.000341082
2.46467e-05
-1.973e-06
0.000341397
6.92674e-06
-2.35472e-05
0.000345337
-3.33245e-05
-3.79466e-05
0.000362825
-7.24813e-05
-3.53845e-05
0.000381829
-7.87637e-05
-1.77371e-05
0.000378718
-5.075e-05
7.61455e-06
0.000353399
-1.9582e-05
3.54542e-05
0.000328245
-7.18707e-06
5.4183e-05
0.000318827
-3.69768e-06
4.90172e-05
0.000322395
1.19438e-05
2.57755e-05
0.000328268
3.32347e-05
2.53918e-06
0.000332115
3.76223e-05
-1.46208e-05
0.000335781
2.14787e-05
-2.60626e-05
0.000340632
7.67619e-06
-3.2207e-05
0.000343812
9.55934e-06
-3.18537e-05
0.000342691
1.48395e-05
-2.48221e-05
4.28332e-06
-1.19613e-05
0.000377601
-4.05802e-06
2.09243e-06
0.000386716
-6.01128e-06
4.82426e-07
0.000409278
6.30143e-06
-1.27446e-05
0.000426493
1.84105e-05
-3.34277e-05
0.000425685
1.57413e-05
-5.65998e-05
0.000418957
4.26679e-06
-7.65608e-05
0.000423047
-1.20537e-05
-8.69301e-05
0.000434655
-3.75815e-05
-8.48119e-05
0.000438836
-6.74988e-05
-6.96109e-05
0.000430964
-7.80161e-05
-4.37663e-05
0.000418495
-5.39434e-05
-1.76194e-05
0.000407775
-1.30041e-05
-3.39415e-06
0.000400851
1.19847e-05
1.06383e-07
0.000399785
9.07109e-06
3.05809e-06
0.000406074
-6.13968e-06
1.08019e-05
0.000415986
-1.54718e-05
2.25462e-05
0.000420875
-1.88896e-05
3.0191e-05
0.000413536
-2.1779e-05
2.48948e-05
0.000394309
-2.09066e-05
1.0115e-05
0.000373033
-1.57747e-05
2.62606e-08
0.000361865
-1.07083e-05
7.91667e-07
0.000365551
-7.10785e-06
4.40805e-06
0.000378398
2.1012e-07
1.62633e-06
0.000388641
1.08712e-05
-8.68656e-06
0.000390829
1.17747e-05
-2.37371e-05
0.000392484
-1.30574e-05
-3.41509e-05
0.00040462
-5.51679e-05
-3.19728e-05
0.000422128
-7.9713e-05
-1.58094e-05
0.000423713
-6.11194e-05
7.21362e-06
0.000402176
-2.28829e-05
3.27937e-05
0.000375781
1.65261e-06
5.30248e-05
0.000361597
1.26004e-05
5.2589e-05
0.000358815
2.71114e-05
3.22505e-05
0.000357683
4.29159e-05
1.21127e-05
0.000354906
4.18034e-05
1.75309e-06
0.000355565
2.08355e-05
-7.29241e-06
0.000363745
-5.61988e-07
-2.00143e-05
0.000375885
-5.42571e-06
-2.86117e-05
0.000383177
2.11652e-06
-2.35235e-05
3.88912e-06
-8.82586e-06
0.000414681
7.61601e-06
9.75092e-06
0.000416178
1.40833e-05
1.0981e-05
0.00043324
2.23572e-05
-4.2267e-06
0.000457316
2.58317e-05
-2.67019e-05
0.000473228
2.24537e-05
-4.69037e-05
0.000479604
1.75131e-05
-6.47143e-05
0.000488601
9.42931e-06
-7.90031e-05
0.000501954
-1.29228e-05
-8.64535e-05
0.00050629
-4.5574e-05
-8.18821e-05
0.000494421
-6.24499e-05
-6.31279e-05
0.000474982
-4.49659e-05
-3.68857e-05
0.000458566
-8.4152e-06
-1.5638e-05
0.000449213
1.63471e-05
-4.05671e-06
0.00044665
1.57195e-05
4.52017e-06
0.000450032
3.2841e-06
1.25161e-05
0.000454162
-6.59175e-06
2.14481e-05
0.000453071
-1.20574e-05
2.91274e-05
0.000445361
-1.65734e-05
2.80426e-05
0.000433444
-1.40561e-05
1.33669e-05
0.000421945
-4.76237e-06
-4.87633e-06
0.000417052
-2.03251e-06
-1.12912e-05
0.000421621
-1.1275e-05
-5.33482e-06
0.000430723
-1.73649e-05
1.09904e-06
0.000435177
-6.70906e-06
-9.31035e-07
0.000432772
8.90594e-06
-9.04324e-06
0.000432351
2.61122e-06
-1.67043e-05
0.000442062
-3.32983e-05
-1.80459e-05
0.000459204
-7.02131e-05
-7.75706e-06
0.000467867
-6.83167e-05
1.09288e-05
0.000456673
-3.08197e-05
3.24213e-05
0.00043388
7.96854e-06
4.89592e-05
0.000413167
2.96631e-05
5.15111e-05
0.000397804
4.15981e-05
3.89309e-05
0.000386092
4.95541e-05
2.30707e-05
0.000379988
4.52884e-05
1.36828e-05
0.000382355
2.39968e-05
8.58912e-06
0.000393244
-2.96425e-06
1.26878e-07
0.000408281
-1.65976e-05
-1.1409e-05
0.00041919
-1.17414e-05
-1.46436e-05
-8.24522e-07
-3.98348e-06
0.000455108
1.90111e-05
1.69462e-05
0.000455752
3.2782e-05
2.13354e-05
0.00046775
4.21068e-05
1.30007e-05
0.000488615
3.95207e-05
-5.58095e-06
0.000510532
2.63073e-05
-2.61554e-05
0.000530682
1.55048e-05
-4.5668e-05
0.000551917
1.12998e-05
-6.26232e-05
0.000570827
1.10674e-06
-7.62452e-05
0.000575941
-2.15682e-05
-8.24699e-05
0.000562179
-3.85766e-05
-7.49361e-05
0.000538951
-2.90552e-05
-5.3379e-05
0.000517787
-8.48931e-07
-2.80642e-05
0.000503396
1.9275e-05
-1.02411e-05
0.000495492
1.98348e-05
6.81763e-07
0.000492817
1.09355e-05
1.04171e-05
0.000491244
3.20727e-06
2.11529e-05
0.000486728
-2.58773e-06
2.92113e-05
0.000480051
-7.50465e-06
2.63683e-05
0.00047622
-6.25581e-06
9.60227e-06
0.000479137
9.47651e-07
-1.05694e-05
0.000487264
-3.16911e-07
-1.67682e-05
0.000493102
-1.70857e-05
-4.7877e-06
0.000489757
-3.05897e-05
1.13957e-05
0.000479221
-2.06635e-05
1.65696e-05
0.000471544
4.09249e-06
1.27617e-05
0.000474595
1.43377e-05
8.28492e-06
0.000488048
-8.42981e-06
4.59877e-06
0.000504739
-4.82893e-05
4.20694e-06
0.0005148
-6.37103e-05
1.34827e-05
0.000508471
-3.45603e-05
3.11885e-05
0.000488625
1.17929e-05
4.66797e-05
0.000463446
4.35694e-05
4.74906e-05
0.000438927
5.46557e-05
3.49824e-05
0.000420973
5.51059e-05
2.50387e-05
0.000415101
4.88367e-05
2.59388e-05
0.000421242
3.33407e-05
2.8382e-05
0.000434238
1.17311e-05
2.11261e-05
0.000448303
-4.54659e-06
7.92065e-06
0.000457528
-5.89823e-06
9.85073e-07
4.73692e-06
5.42835e-06
0.000516685
2.77176e-05
1.86314e-05
0.000514405
3.91285e-05
3.39456e-05
0.000519424
4.95215e-05
3.56475e-05
0.000532488
4.86089e-05
1.98049e-05
0.000550474
3.01538e-05
-4.86925e-06
0.000573122
5.5854e-06
-2.42249e-05
0.000600627
-8.44134e-06
-3.73869e-05
0.000625326
-1.0086e-05
-5.24296e-05
0.000634374
-1.09963e-05
-6.99214e-05
0.000625526
-1.48097e-05
-7.91926e-05
0.00060948
-1.02894e-05
-7.13348e-05
0.000595523
5.32396e-06
-4.91927e-05
0.000582902
1.89246e-05
-2.51387e-05
0.00056817
2.14224e-05
-7.53049e-06
0.000552431
1.83738e-05
4.39281e-06
0.000539039
1.36362e-05
1.44216e-05
0.000530361
4.67847e-06
2.4243e-05
0.000528288
-6.95176e-06
2.9749e-05
0.000536866
-1.57242e-05
2.5039e-05
0.000556181
-1.93589e-05
1.11342e-05
0.000576406
-2.42413e-05
-3.29085e-07
0.000582176
-3.37685e-05
4.47931e-06
0.000567967
-3.87463e-05
2.68627e-05
0.00054453
-2.58437e-05
4.98199e-05
0.000529542
4.44462e-06
5.46359e-05
0.000530775
3.02787e-05
3.76089e-05
0.000543075
2.59538e-05
1.07372e-05
0.000557547
-1.01779e-05
-4.25408e-06
0.000566071
-4.32262e-05
1.87109e-06
0.000559183
-3.42573e-05
2.10237e-05
0.000536135
9.78167e-06
3.83259e-05
0.000505751
5.09234e-05
4.34982e-05
0.0004788
6.97519e-05
3.59413e-05
0.000463269
7.21103e-05
2.72392e-05
0.000461164
6.57052e-05
2.66378e-05
0.000468645
5.15633e-05
2.98921e-05
0.000480922
3.22524e-05
2.7459e-05
0.000495584
1.66491e-05
1.65174e-05
0.000509439
1.24513e-05
5.41459e-06
1.81265e-05
5.09939e-06
0.000571188
3.04306e-05
2.86694e-05
0.000567595
3.43527e-05
3.98323e-05
0.000571255
3.61386e-05
4.64174e-05
0.000584146
3.05105e-05
4.16336e-05
0.000602273
1.32557e-05
2.16974e-05
0.000621882
-7.9358e-06
-6.58501e-06
0.000644837
-2.30971e-05
-3.09628e-05
0.000671035
-2.50361e-05
-4.66072e-05
0.000690568
-1.67939e-05
-5.68199e-05
0.000692421
-4.69369e-06
-6.57745e-05
0.000679376
8.63504e-06
-6.98671e-05
0.000664215
2.10492e-05
-6.3284e-05
0.000654653
2.67156e-05
-4.74002e-05
0.000647646
2.37409e-05
-2.9605e-05
0.000637753
1.85742e-05
-1.52445e-05
0.00062357
1.44561e-05
-4.68291e-06
0.000607739
7.63358e-06
5.68688e-06
0.000597441
-4.41563e-06
1.87029e-05
0.000601095
-2.10308e-05
2.99577e-05
0.00061985
-3.96642e-05
3.22803e-05
0.000641454
-5.54931e-05
2.56004e-05
0.000648942
-5.94582e-05
2.05094e-05
0.000636829
-4.71352e-05
3.07287e-05
0.000615163
-2.12373e-05
5.2672e-05
0.000596895
1.19267e-05
6.23539e-05
0.000587724
3.75436e-05
4.30114e-05
0.000587215
3.77138e-05
5.26837e-06
0.000595146
7.15506e-06
-2.19404e-05
0.000606355
-3.19695e-05
-1.99887e-05
0.000608562
-4.06283e-05
2.86457e-06
0.000593602
-6.14869e-06
2.75094e-05
0.000569161
4.29381e-05
4.08724e-05
0.000550002
7.63956e-05
3.85645e-05
0.000543491
8.95471e-05
2.45294e-05
0.000546251
8.58713e-05
9.17897e-06
0.000551512
6.88842e-05
7.13077e-07
0.000556468
4.57301e-05