/*--------------------------------*- C++ -*----------------------------------*\
| =========                 |                                                 |
| \\      /  F ield         | OpenFOAM: The Open Source CFD Toolbox           |
|  \\    /   O peration     | Version:  2306                                  |
|   \\  /    A nd           | Website:  www.openfoam.com                      |
|    \\/     M anipulation  |                                                 |
\*---------------------------------------------------------------------------*/
FoamFile
{
    version     2.0;
    format      ascii;
    arch        "LSB;label=32;scalar=64";
    class       volScalarField;
    location    "6";
    object      pMean;
}
// * * * * * * * * * * * * * * * * * * * * * * * * * * * * * * * * * * * * * //

dimensions      [0 2 -2 0 0 0 0];

internalField   nonuniform List<scalar> 
60000
(
1.28298e-05
1.05905e-05
1.41324e-05
2.5864e-05
4.48964e-05
6.23661e-05
6.88159e-05
6.36512e-05
5.58959e-05
5.70765e-05
7.0578e-05
9.10176e-05
0.000111836
0.000128482
0.000136789
0.000132186
0.000112293
7.99647e-05
4.34662e-05
1.12612e-05
-1.15754e-05
-2.2227e-05
-1.82266e-05
1.13981e-06
3.14668e-05
6.46904e-05
9.40643e-05
0.000116559
0.000130999
0.000139392
0.000148411
0.00016284
0.000178062
0.00018326
0.000173426
0.000151122
0.000119392
8.1708e-05
4.68312e-05
2.34595e-05
1.24743e-05
9.68891e-06
1.28689e-05
2.44087e-05
4.346e-05
6.1095e-05
6.76514e-05
6.24209e-05
5.44878e-05
5.5513e-05
6.9065e-05
8.97184e-05
0.000110788
0.000127721
0.000136355
0.000132115
0.000112531
8.03932e-05
4.39428e-05
1.16909e-05
-1.12716e-05
-2.21709e-05
-1.85489e-05
3.31904e-07
3.01945e-05
6.30693e-05
9.22769e-05
0.000114845
0.000129574
0.000138326
0.000147708
0.000162597
0.000178422
0.000184244
0.000174867
0.000152908
0.000121311
8.34159e-05
4.79474e-05
2.37932e-05
1.04626e-05
7.25335e-06
1.01943e-05
2.17016e-05
4.10979e-05
5.9388e-05
6.65087e-05
6.13642e-05
5.30105e-05
5.35976e-05
6.7129e-05
8.80547e-05
0.000109453
0.000126776
0.000135917
0.000132217
0.000113031
8.09878e-05
4.43557e-05
1.18138e-05
-1.14456e-05
-2.26906e-05
-1.94564e-05
-9.32595e-07
2.86824e-05
6.12713e-05
9.00629e-05
0.000112394
0.000127228
0.000136246
0.000145995
0.000161521
0.000178262
0.000184884
0.000175916
0.000154083
0.000122375
8.39438e-05
4.75408e-05
2.24378e-05
6.75491e-06
3.15503e-06
5.93526e-06
1.7505e-05
3.75434e-05
5.69732e-05
6.51617e-05
6.04065e-05
5.1583e-05
5.14364e-05
6.47793e-05
8.60596e-05
0.000107932
0.000125771
0.000135569
0.000132587
0.00011393
8.1892e-05
4.48028e-05
1.1718e-05
-1.20014e-05
-2.36695e-05
-2.07754e-05
-2.43408e-06
2.72146e-05
5.96171e-05
8.77531e-05
0.000109368
0.000123918
0.000133
0.000143107
0.000159497
0.000177539
0.000185182
0.000176546
0.000154565
0.000122434
8.31499e-05
4.55439e-05
1.93209e-05
2.08813e-06
-2.14013e-06
2.69309e-07
1.18174e-05
3.25551e-05
5.34141e-05
6.3262e-05
5.95856e-05
5.07117e-05
4.96706e-05
6.2453e-05
8.39521e-05
0.000106377
0.000124786
0.000135272
0.000133131
0.000115177
8.3227e-05
4.55193e-05
1.16248e-05
-1.27653e-05
-2.50615e-05
-2.27217e-05
-4.65796e-06
2.50782e-05
5.74304e-05
8.48856e-05
0.000105699
0.000119947
0.000129057
0.000139497
0.000156837
0.000176535
0.000185538
0.000177349
0.000155231
0.000122504
8.21093e-05
4.30265e-05
1.5469e-05
-3.21499e-06
-8.41993e-06
-7.2167e-06
4.07085e-06
2.56938e-05
4.82749e-05
6.01916e-05
5.85893e-05
5.06334e-05
4.9049e-05
6.09772e-05
8.23451e-05
0.000105261
0.000124225
0.00013526
0.000133879
0.000116785
8.50734e-05
4.6575e-05
1.141e-05
-1.42327e-05
-2.7736e-05
-2.684e-05
-1.01617e-05
1.90316e-05
5.14939e-05
7.87232e-05
9.91275e-05
0.000114193
0.0001248
0.000136237
0.000154509
0.000175979
0.000186734
0.000179311
0.000157447
0.000124516
8.25296e-05
4.0998e-05
1.14624e-05
-7.96801e-06
-1.45586e-05
-1.53826e-05
-6.53906e-06
1.46399e-05
3.95926e-05
5.47768e-05
5.62807e-05
5.06044e-05
4.9652e-05
6.0993e-05
8.20624e-05
0.000105362
0.000124792
0.000136125
0.000135139
0.000118786
8.74221e-05
4.80198e-05
1.09209e-05
-1.68782e-05
-3.23329e-05
-3.3384e-05
-1.8906e-05
8.42057e-06
4.02585e-05
6.73511e-05
8.76015e-05
0.000104057
0.000117882
0.000132997
0.000153624
0.000176919
0.000189297
0.000182908
0.000162015
0.000130084
8.74211e-05
4.26033e-05
9.08304e-06
-1.17986e-05
-2.01689e-05
-2.31022e-05
-1.79437e-05
4.70626e-07
2.62245e-05
4.5373e-05
5.12789e-05
4.8733e-05
4.90758e-05
6.10982e-05
8.27843e-05
0.000107123
0.000127411
0.000138804
0.000137612
0.000121432
9.0213e-05
4.98779e-05
1.04868e-05
-1.99372e-05
-3.68935e-05
-3.82251e-05
-2.42235e-05
1.58942e-06
3.14429e-05
5.68262e-05
7.53547e-05
9.10417e-05
0.000106632
0.000125406
0.000150857
0.000178007
0.000192492
0.00018699
0.000167333
0.000137806
9.59804e-05
4.82346e-05
9.34646e-06
-1.4094e-05
-2.5246e-05
-3.04715e-05
-2.97667e-05
-1.55974e-05
9.29543e-06
3.21235e-05
4.34347e-05
4.50501e-05
4.64117e-05
5.78927e-05
8.05168e-05
0.000107163
0.000129888
0.000142798
0.000141984
0.000125408
9.36571e-05
5.22706e-05
1.12712e-05
-2.04028e-05
-3.66545e-05
-3.4953e-05
-1.80668e-05
7.99326e-06
3.4857e-05
5.54881e-05
6.86947e-05
7.99345e-05
9.36084e-05
0.000113083
0.000141764
0.000173664
0.000191097
0.0001862
0.000167526
0.000142267
0.000105152
5.72895e-05
1.30341e-05
-1.16405e-05
-2.75371e-05
-3.58806e-05
-4.05369e-05
-3.23782e-05
-9.99403e-06
1.55589e-05
3.26484e-05
3.95082e-05
4.24078e-05
5.20406e-05
7.31896e-05
0.000101032
0.000126386
0.00014155
0.000142935
0.000128637
9.76879e-05
5.50993e-05
1.31405e-05
-1.78406e-05
-3.05703e-05
-2.21736e-05
1.49171e-06
3.06012e-05
5.4979e-05
6.89146e-05
7.29179e-05
7.43044e-05
8.06687e-05
9.71257e-05
0.000127497
0.00016425
0.000185371
0.000181758
0.000163719
0.000142581
0.00011295
6.94849e-05
2.24795e-05
-4.08382e-07
-2.31275e-05
-3.53779e-05
-4.56869e-05
-4.52757e-05
-2.82255e-05
-2.26963e-06
2.04931e-05
3.33356e-05
3.87175e-05
4.59934e-05
6.30915e-05
8.82894e-05
0.000113691
0.000130705
0.000134603
0.000124435
9.81585e-05
5.77969e-05
1.57474e-05
-1.39385e-05
-2.18825e-05
-4.82169e-06
2.88295e-05
6.41657e-05
8.83292e-05
9.66003e-05
9.04102e-05
7.81701e-05
7.11515e-05
7.94076e-05
0.000108474
0.000149058
0.000175682
0.000176412
0.000161812
0.000145679
0.00012428
8.77416e-05
4.05427e-05
2.16482e-05
-1.05526e-05
-2.75091e-05
-4.22976e-05
-4.94457e-05
-4.03158e-05
-1.8265e-05
7.36304e-06
2.68611e-05
3.6926e-05
4.3615e-05
5.64312e-05
7.643e-05
9.71893e-05
0.000111412
0.000115651
0.000108688
8.84782e-05
5.49136e-05
1.78632e-05
-7.9489e-06
-1.08004e-05
1.35159e-05
5.69759e-05
9.92579e-05
0.000124762
0.000130257
0.000118187
9.42324e-05
7.22717e-05
6.79474e-05
9.14353e-05
0.00013291
0.000165323
0.000172872
0.000164845
0.000154801
0.000142035
0.00011428
6.91542e-05
4.93766e-05
8.28708e-06
-1.38057e-05
-3.08991e-05
-4.36344e-05
-4.3383e-05
-2.84965e-05
-4.34752e-06
1.91243e-05
3.42488e-05
4.25698e-05
5.33451e-05
6.92831e-05
8.46584e-05
9.28451e-05
9.30217e-05
8.64096e-05
7.06621e-05
4.47359e-05
1.6903e-05
9.47857e-07
4.41618e-06
3.26982e-05
8.01689e-05
0.000126739
0.000153388
0.000158406
0.00014582
0.000118844
8.73491e-05
7.0761e-05
8.47153e-05
0.000121471
0.000156526
0.000171468
0.000171181
0.000166066
0.000158622
0.000140144
0.000100678
7.45082e-05
3.10345e-05
5.5852e-06
-1.08897e-05
-2.65086e-05
-3.46938e-05
-2.89797e-05
-1.03539e-05
1.29861e-05
3.13436e-05
4.13904e-05
5.13364e-05
6.52343e-05
7.75373e-05
8.20798e-05
7.93071e-05
7.1425e-05
5.70987e-05
3.58532e-05
1.51295e-05
6.35959e-06
1.41894e-05
4.1421e-05
8.80662e-05
0.000136291
0.000166451
0.000173659
0.000162986
0.000138789
0.000106354
8.45027e-05
8.92988e-05
0.000117839
0.000150012
0.000169465
0.00017526
0.000173668
0.000167943
0.000154588
0.000122767
9.65433e-05
5.7814e-05
3.34527e-05
1.86709e-05
1.12344e-06
-1.44212e-05
-1.88225e-05
-8.51479e-06
1.10268e-05
2.92355e-05
4.04152e-05
4.95031e-05
6.2514e-05
7.51422e-05
8.10513e-05
7.93956e-05
7.212e-05
5.86126e-05
3.78549e-05
1.85176e-05
1.14709e-05
1.82663e-05
4.07668e-05
8.24284e-05
0.000132007
0.000166675
0.000176215
0.000167708
0.000146994
0.000117734
9.49273e-05
9.43397e-05
0.000115215
0.000142541
0.000164151
0.000173995
0.000173999
0.000167637
0.000157203
0.000134846
0.000114496
8.37156e-05
6.24569e-05
4.90193e-05
3.24133e-05
1.19717e-05
-1.6264e-06
-1.0208e-06
1.22054e-05
2.77743e-05
3.83267e-05
4.69655e-05
5.93827e-05
7.28912e-05
8.18427e-05
8.29559e-05
7.70688e-05
6.43328e-05
4.41897e-05
2.52544e-05
1.91533e-05
2.68013e-05
4.52711e-05
7.86725e-05
0.000124183
0.000160503
0.000171348
0.000163484
0.00014622
0.000120999
9.87912e-05
9.34451e-05
0.000107022
0.000130438
0.000152717
0.00016633
0.000169476
0.000165018
0.000157009
0.000141935
0.000126319
0.000100756
8.20478e-05
6.95978e-05
5.57985e-05
3.70339e-05
1.96268e-05
1.16169e-05
1.59303e-05
2.59563e-05
3.46018e-05
4.25781e-05
5.46292e-05
6.89386e-05
8.06762e-05
8.43784e-05
7.97346e-05
6.78226e-05
4.96939e-05
3.35679e-05
3.14518e-05
4.25402e-05
5.91737e-05
8.33821e-05
0.000118021
0.000150685
0.000162271
0.000155338
0.000140574
0.000121108
0.000102541
9.52862e-05
0.000102025
0.000118931
0.000139654
0.000155212
0.000161113
0.000159971
0.000155581
0.000146497
0.000124557
0.00010444
8.94669e-05
8.12477e-05
7.27084e-05
5.897e-05
4.14752e-05
2.68792e-05
2.06254e-05
2.14564e-05
2.67046e-05
3.5837e-05
5.0257e-05
6.7997e-05
8.16297e-05
8.6275e-05
8.28837e-05
7.3013e-05
5.74435e-05
4.2417e-05
3.90865e-05
5.0205e-05
6.61751e-05
8.50458e-05
0.000111929
0.000139629
0.000152385
0.000145325
0.000130721
0.000114219
0.00010101
9.60363e-05
0.00010231
0.000118009
0.000138012
0.000154194
0.000159394
0.000154961
0.00014797
0.000140061
0.000112219
9.48242e-05
8.37816e-05
8.01718e-05
7.80963e-05
7.09227e-05
5.76685e-05
4.26404e-05
2.88896e-05
1.82712e-05
1.35259e-05
1.82373e-05
3.37683e-05
5.50091e-05
7.32685e-05
8.26501e-05
8.46684e-05
8.13968e-05
7.36977e-05
6.292e-05
5.71942e-05
6.25483e-05
7.48528e-05
8.90279e-05
0.000109218
0.000132863
0.000145183
0.00013938
0.000125542
0.000111224
9.82795e-05
9.14846e-05
9.66544e-05
0.000114082
0.000135846
0.000151533
0.000155402
0.000148906
0.000138122
0.000127112
9.25435e-05
7.8265e-05
6.86263e-05
6.49145e-05
6.47008e-05
6.25543e-05
5.6136e-05
4.61276e-05
3.36433e-05
2.14629e-05
1.25721e-05
9.75957e-06
1.66052e-05
3.1061e-05
4.64413e-05
5.73633e-05
6.37197e-05
6.89583e-05
7.20977e-05
7.08569e-05
6.8232e-05
7.07808e-05
7.85575e-05
8.85504e-05
0.000101909
0.000118449
0.000128263
0.000124453
0.00011296
0.000101352
8.98679e-05
8.0604e-05
8.28452e-05
9.88429e-05
0.000119796
0.000135541
0.000140688
0.00013521
0.00012222
0.000107216
8.4826e-05
6.82958e-05
5.70227e-05
5.10335e-05
4.8591e-05
4.78837e-05
4.73263e-05
4.38102e-05
3.59596e-05
2.39616e-05
1.13916e-05
3.60218e-06
4.25841e-06
1.23728e-05
2.39637e-05
3.44326e-05
4.26293e-05
5.07971e-05
5.92285e-05
6.44311e-05
6.53367e-05
6.85764e-05
7.68044e-05
8.6916e-05
9.84514e-05
0.000110823
0.000117898
0.000112664
9.72023e-05
8.06629e-05
6.4249e-05
5.311e-05
5.31617e-05
6.90245e-05
9.42148e-05
0.000118034
0.00013107
0.000131255
0.000120552
0.000103711
0.00010061
8.43833e-05
7.41281e-05
6.72421e-05
5.93536e-05
5.13472e-05
4.51547e-05
4.0655e-05
3.57285e-05
2.75722e-05
1.74242e-05
8.59621e-06
5.31229e-06
8.37446e-06
1.5278e-05
2.40246e-05
3.23879e-05
4.0405e-05
4.91335e-05
5.77435e-05
6.52868e-05
7.21791e-05
8.17151e-05
9.2347e-05
0.000102852
0.00011326
0.000119627
0.000114024
9.72705e-05
7.79478e-05
5.78516e-05
4.02886e-05
3.49679e-05
4.66649e-05
7.14069e-05
0.000100272
0.000122799
0.000133956
0.000131937
0.000118719
0.000104154
8.92092e-05
7.72258e-05
6.98422e-05
6.28501e-05
5.48377e-05
4.74702e-05
4.05807e-05
3.31869e-05
2.62602e-05
2.11627e-05
1.77719e-05
1.80606e-05
2.11924e-05
2.62479e-05
3.36047e-05
4.25808e-05
5.1526e-05
5.90041e-05
6.57273e-05
7.22006e-05
7.91314e-05
8.76689e-05
9.65118e-05
0.000103785
0.000110366
0.00011491
0.000111394
9.77985e-05
8.14003e-05
6.72035e-05
5.57347e-05
5.01468e-05
5.60372e-05
7.18367e-05
9.14245e-05
0.000108832
0.000119808
0.000123061
0.000117278
9.77937e-05
8.12023e-05
6.59195e-05
5.47664e-05
4.54549e-05
3.74677e-05
3.26887e-05
3.11013e-05
3.16673e-05
3.28643e-05
3.362e-05
3.44094e-05
3.51005e-05
3.55566e-05
3.67643e-05
3.9788e-05
4.65723e-05
5.61257e-05
6.64985e-05
7.66344e-05
8.50385e-05
8.92201e-05
9.14869e-05
9.44244e-05
9.62863e-05
9.70272e-05
9.71431e-05
9.39946e-05
8.56189e-05
7.45201e-05
6.44202e-05
5.6401e-05
5.22627e-05
5.4468e-05
6.40247e-05
7.8182e-05
9.28779e-05
0.000105347
0.000112083
0.000109638
8.95712e-05
7.21531e-05
5.42825e-05
4.12736e-05
3.18934e-05
2.55031e-05
2.13538e-05
2.0333e-05
2.28233e-05
2.65353e-05
3.01025e-05
3.4659e-05
3.94058e-05
4.2944e-05
4.55924e-05
4.97513e-05
5.81612e-05
7.11748e-05
8.47134e-05
9.52266e-05
0.000101465
0.000103383
0.000100566
9.38027e-05
8.50799e-05
7.71831e-05
7.24437e-05
7.01203e-05
6.80383e-05
6.36486e-05
5.95598e-05
5.78389e-05
5.54718e-05
5.55635e-05
6.12546e-05
7.15876e-05
8.44945e-05
9.68026e-05
0.000103216
0.000100721
3.63307e-05
1.75343e-08
-2.74701e-05
-3.80144e-05
-2.91699e-05
-9.65301e-06
8.66989e-06
1.89115e-05
2.31149e-05
2.88043e-05
4.03368e-05
5.63894e-05
7.35073e-05
8.82573e-05
9.77806e-05
9.84999e-05
8.77941e-05
6.68613e-05
4.10809e-05
1.80961e-05
3.25923e-06
-3.74548e-07
1.00382e-05
3.71449e-05
7.99292e-05
0.000130992
0.000177432
0.000207061
0.000218045
0.000220544
0.000224253
0.000231815
0.00024125
0.000245855
0.000240413
0.000224794
0.000198276
0.000160972
0.000117918
7.56646e-05
3.79638e-05
1.09929e-06
-2.71755e-05
-3.84546e-05
-3.01085e-05
-1.08531e-05
7.3987e-06
1.76113e-05
2.17812e-05
2.74789e-05
3.90995e-05
5.52517e-05
7.2483e-05
8.73942e-05
9.71121e-05
9.80472e-05
8.75777e-05
6.6833e-05
4.11031e-05
1.79772e-05
2.7666e-06
-1.4594e-06
8.2096e-06
3.45152e-05
7.664e-05
0.00012744
0.000174108
0.000204251
0.000215667
0.000218412
0.000222356
0.000230227
0.000240053
0.000245216
0.000240469
0.000225586
0.000199775
0.000162949
0.000120052
7.76577e-05
3.8799e-05
1.10145e-06
-2.82408e-05
-4.03861e-05
-3.24008e-05
-1.30074e-05
5.56576e-06
1.59596e-05
2.00746e-05
2.56844e-05
3.73279e-05
5.35794e-05
7.09369e-05
8.60492e-05
9.60618e-05
9.73657e-05
8.72755e-05
6.68084e-05
4.11288e-05
1.78127e-05
2.18925e-06
-2.61032e-06
6.39996e-06
3.20326e-05
7.36571e-05
0.000124391
0.000171445
0.000202081
0.000213656
0.000216248
0.000220181
0.000228328
0.000238651
0.000244471
0.000240512
0.000226588
0.00020165
0.000165157
0.000122024
7.9143e-05
3.83156e-05
-5.33393e-07
-3.13194e-05
-4.45342e-05
-3.67765e-05
-1.67435e-05
2.8077e-06
1.38655e-05
1.80821e-05
2.35279e-05
3.5088e-05
5.13765e-05
6.88437e-05
8.4181e-05
9.45873e-05
9.64187e-05
8.68429e-05
6.67515e-05
4.1152e-05
1.77026e-05
1.82567e-06
-3.33161e-06
5.3374e-06
3.06719e-05
7.21076e-05
0.00012293
0.000170355
0.000201206
0.000212433
0.000214317
0.000217853
0.000226096
0.000236931
0.000243489
0.000240315
0.000227487
0.000203588
0.000167284
0.000123452
7.96263e-05
3.66132e-05
-3.74917e-06
-3.65064e-05
-5.12442e-05
-4.3788e-05
-2.263e-05
-1.18037e-06
1.15029e-05
1.63884e-05
2.16413e-05
3.28327e-05
4.89711e-05
6.64722e-05
8.19578e-05
9.26926e-05
9.50807e-05
8.61253e-05
6.64882e-05
4.10357e-05
1.75436e-05
1.554e-06
-3.81083e-06
4.73411e-06
3.00556e-05
7.15613e-05
0.000122502
0.000170242
0.000201147
0.000211805
0.000212784
0.000215684
0.000223692
0.000234735
0.000241916
0.000239386
0.00022762
0.000205025
0.000169063
0.00012436
7.92272e-05
3.46879e-05
-7.77423e-06
-4.32555e-05
-6.05264e-05
-5.40608e-05
-3.16493e-05
-7.31476e-06
8.4357e-06
1.52427e-05
2.0877e-05
3.15423e-05
4.71964e-05
6.4605e-05
8.01422e-05
9.09378e-05
9.36063e-05
8.51859e-05
6.60696e-05
4.07882e-05
1.71659e-05
8.58622e-07
-5.12992e-06
2.65764e-06
2.7215e-05
6.80081e-05
0.000118773
0.000167113
0.000198813
0.000209826
0.000210897
0.000213946
0.000221722
0.000232382
0.00023959
0.000237334
0.000226462
0.000205476
0.000170474
0.00012517
7.86723e-05
3.54226e-05
-9.21223e-06
-4.86492e-05
-7.03711e-05
-6.70522e-05
-4.45186e-05
-1.69981e-05
3.0389e-06
1.32962e-05
2.06161e-05
3.14379e-05
4.66481e-05
6.39695e-05
7.96673e-05
9.03693e-05
9.28597e-05
8.4506e-05
6.56895e-05
4.03875e-05
1.60612e-05
-1.70883e-06
-9.80664e-06
-4.48308e-06
1.75066e-05
5.58934e-05
0.000105473
0.000154725
0.000188648
0.00020168
0.000205027
0.000210646
0.000219779
0.000230042
0.000236531
0.000233652
0.000223426
0.000204753
0.00017202
0.000127518
8.04398e-05
4.25709e-05
-3.77882e-06
-4.78642e-05
-7.60609e-05
-7.88025e-05
-5.92428e-05
-2.99304e-05
-5.32635e-06
9.11168e-06
1.83943e-05
2.97948e-05
4.52055e-05
6.30927e-05
7.96721e-05
9.10034e-05
9.35056e-05
8.48072e-05
6.5685e-05
3.97614e-05
1.37261e-05
-7.26274e-06
-1.95663e-05
-1.84694e-05
-5.43381e-07
3.45563e-05
8.24935e-05
0.000132373
0.000169041
0.000185261
0.000191578
0.000201637
0.000214673
0.000225947
0.000231788
0.000227923
0.00021816
0.000202905
0.000174613
0.00013331
8.7526e-05
5.72274e-05
9.90705e-06
-3.87415e-05
-7.49332e-05
-8.63657e-05
-7.26821e-05
-4.43583e-05
-1.59249e-05
3.10379e-06
1.46262e-05
2.62345e-05
4.15222e-05
5.98427e-05
7.7268e-05
8.96667e-05
9.34377e-05
8.56603e-05
6.63177e-05
3.91075e-05
1.05889e-05
-1.43345e-05
-3.13853e-05
-3.42624e-05
-1.90694e-05
1.35663e-05
5.93736e-05
0.000107695
0.000144587
0.000163164
0.000172386
0.00018618
0.000203662
0.000217622
0.000224091
0.000219425
0.000210319
0.000200779
0.000180775
0.000144905
0.000101472
7.74008e-05
2.91358e-05
-2.30667e-05
-6.75398e-05
-8.92136e-05
-8.36052e-05
-5.85961e-05
-2.83037e-05
-4.87329e-06
9.61163e-06
2.15472e-05
3.61362e-05
5.38864e-05
7.15301e-05
8.43082e-05
8.93281e-05
8.36674e-05
6.59214e-05
3.84492e-05
8.36597e-06
-1.89524e-05
-3.90145e-05
-4.40379e-05
-2.93e-05
2.93728e-06
4.68023e-05
9.08351e-05
0.000122722
0.000139355
0.000149914
0.000166539
0.000188453
0.000206731
0.000216549
0.0002133
0.000204422
0.000199505
0.000189735
0.000162357
0.000121785
9.992e-05
4.97981e-05
-4.51493e-06
-5.4772e-05
-8.66279e-05
-9.03552e-05
-7.05043e-05
-4.0322e-05
-1.29191e-05
4.97503e-06
1.74475e-05
3.05835e-05
4.64045e-05
6.24728e-05
7.42878e-05
7.98673e-05
7.64639e-05
6.10429e-05
3.49134e-05
5.69594e-06
-2.06461e-05
-4.01931e-05
-4.43552e-05
-2.7141e-05
6.85827e-06
4.91096e-05
8.69639e-05
0.000110331
0.000120245
0.000127891
0.00014499
0.000170293
0.000194549
0.000211647
0.000214538
0.000208638
0.000206887
0.000205034
0.000185544
0.00014682
0.00012315
7.03376e-05
1.49241e-05
-3.7632e-05
-7.71966e-05
-9.07254e-05
-7.80611e-05
-5.08999e-05
-2.15076e-05
-2.64029e-07
1.34008e-05
2.53937e-05
3.88109e-05
5.19646e-05
6.13485e-05
6.60576e-05
6.42505e-05
5.14518e-05
2.72011e-05
-8.11296e-08
-2.24452e-05
-3.74556e-05
-3.78699e-05
-1.69326e-05
1.99668e-05
6.14805e-05
9.31043e-05
0.000108226
0.000110937
0.000112549
0.000126016
0.000150873
0.000179043
0.000203266
0.000214622
0.000215604
0.000218635
0.000223185
0.00021087
0.000173545
0.000142895
8.9343e-05
3.47747e-05
-1.69102e-05
-6.04201e-05
-8.27726e-05
-7.95747e-05
-5.87589e-05
-3.17089e-05
-7.78999e-06
8.58185e-06
2.11548e-05
3.36973e-05
4.48001e-05
5.12106e-05
5.33309e-05
5.1125e-05
3.99755e-05
1.77322e-05
-7.4044e-06
-2.54828e-05
-3.42613e-05
-3.08041e-05
-8.12994e-06
3.08122e-05
7.22897e-05
9.98552e-05
0.000110428
0.000109834
0.000106889
0.000114174
0.000134896
0.000162458
0.000190231
0.000208727
0.000217469
0.000225653
0.000235294
0.00022893
0.000194449
0.000155145
0.000105378
5.57357e-05
7.74156e-06
-3.66497e-05
-6.62505e-05
-7.27187e-05
-6.01862e-05
-3.79905e-05
-1.50083e-05
4.79268e-06
1.96982e-05
3.28816e-05
4.35656e-05
4.86073e-05
4.9072e-05
4.5774e-05
3.5526e-05
1.60405e-05
-5.46855e-06
-1.88044e-05
-2.40667e-05
-2.00907e-05
6.75617e-07
3.95195e-05
8.00688e-05
0.000105454
0.000114265
0.000113023
0.00010845
0.000109784
0.000123893
0.000146527
0.000173381
0.00019489
0.000208943
0.000221424
0.000234042
0.000232328
0.000203102
0.000161272
0.000119027
7.73054e-05
3.47518e-05
-8.79061e-06
-4.36784e-05
-5.91231e-05
-5.50941e-05
-3.90133e-05
-1.76089e-05
3.01042e-06
2.10393e-05
3.59686e-05
4.78953e-05
5.51246e-05
5.7145e-05
5.27658e-05
4.1374e-05
2.24038e-05
2.98082e-06
-7.9663e-06
-1.15666e-05
-7.89517e-06
1.07502e-05
4.81844e-05
8.90349e-05
0.000114519
0.000121813
0.000119299
0.000112516
0.000108912
0.000116936
0.000133907
0.000156623
0.000177777
0.000194121
0.000206542
0.000217567
0.000220295
0.000200293
0.000166765
0.000132476
9.79375e-05
6.18705e-05
2.18954e-05
-1.58727e-05
-3.94889e-05
-4.47605e-05
-3.58765e-05
-1.77362e-05
3.58538e-06
2.26026e-05
3.92887e-05
5.37354e-05
6.29121e-05
6.65866e-05
6.15757e-05
4.62211e-05
2.41849e-05
4.61598e-06
-3.6008e-06
-2.45176e-06
3.96997e-06
2.20762e-05
5.81089e-05
9.96962e-05
0.000124787
0.000129122
0.000124618
0.000116638
0.000109467
0.000111221
0.000123757
0.000143647
0.000166155
0.000184234
0.000196785
0.000204635
0.000207005
0.000195371
0.000169325
0.000141427
0.000113922
8.47546e-05
5.15664e-05
1.71883e-05
-8.756e-06
-2.26726e-05
-2.47524e-05
-1.73554e-05
-1.78206e-06
1.80852e-05
3.81248e-05
5.68351e-05
6.97366e-05
7.50565e-05
7.09188e-05
5.5866e-05
3.3427e-05
1.43227e-05
7.42266e-06
1.22137e-05
2.18508e-05
3.87801e-05
7.04113e-05
0.000108338
0.000131524
0.00013342
0.000126032
0.000117374
0.000110378
0.000109951
0.000119251
0.000136985
0.000159124
0.000177931
0.000189373
0.000194799
0.000197587
0.000190913
0.00016243
0.000141077
0.000120635
9.98448e-05
7.60125e-05
5.02998e-05
2.7358e-05
9.98867e-06
-2.20628e-06
-8.59189e-06
-3.86531e-06
1.23926e-05
3.45401e-05
5.70385e-05
7.42281e-05
8.20541e-05
7.86183e-05
6.5124e-05
4.49332e-05
2.62434e-05
1.90248e-05
2.51297e-05
3.7195e-05
5.35273e-05
7.99352e-05
0.000113275
0.000135698
0.000137449
0.000127969
0.000117014
0.0001091
0.000107699
0.000116848
0.00013421
0.000154239
0.000170951
0.000180336
0.000182793
0.000182555
0.000177308
0.000142618
0.00012735
0.000114926
0.000105424
9.33865e-05
7.63025e-05
5.82036e-05
4.23277e-05
2.56762e-05
8.12476e-06
-1.81584e-06
3.05703e-06
2.21445e-05
4.7437e-05
6.85812e-05
7.91553e-05
7.95874e-05
7.26599e-05
5.99813e-05
4.39578e-05
3.34996e-05
3.58333e-05
4.79755e-05
6.41213e-05
8.56976e-05
0.000112445
0.00013318
0.000137424
0.000129425
0.000118097
0.000107709
0.000103084
0.000109391
0.000126196
0.000145555
0.000159859
0.00016551
0.000163664
0.000158924
0.000153332
0.000117693
0.000108048
9.97756e-05
9.37844e-05
8.85236e-05
8.03698e-05
6.74383e-05
5.20205e-05
3.45215e-05
1.69044e-05
3.53703e-06
-1.13719e-06
6.01354e-06
2.29078e-05
4.24987e-05
5.74891e-05
6.44463e-05
6.66089e-05
6.46353e-05
5.79398e-05
4.85204e-05
4.42127e-05
5.02023e-05
6.27906e-05
7.97851e-05
0.000100041
0.000116825
0.000124458
0.000121853
0.000113823
0.000104276
9.73627e-05
0.00010098
0.000115833
0.000134004
0.000146973
0.000150519
0.000145476
0.000136152
0.000126766
0.000104561
9.41715e-05
8.6647e-05
8.13697e-05
7.72044e-05
7.20707e-05
6.47317e-05
5.42631e-05
4.00265e-05
2.16622e-05
3.08319e-06
-9.24674e-06
-1.16868e-05
-4.25932e-06
8.66868e-06
2.23696e-05
3.43277e-05
4.40312e-05
5.16587e-05
5.47308e-05
5.28599e-05
5.13545e-05
5.62345e-05
6.66447e-05
8.03183e-05
9.62662e-05
0.000109648
0.000113955
0.000109168
9.91063e-05
8.80853e-05
8.14717e-05
8.42981e-05
9.84682e-05
0.000118388
0.000135537
0.000143849
0.000141244
0.000130563
0.000117139
0.000110552
0.000101709
9.68741e-05
9.29826e-05
8.54168e-05
7.49715e-05
6.47715e-05
5.4888e-05
4.41073e-05
3.10969e-05
1.52672e-05
1.21797e-07
-9.09152e-06
-1.0604e-05
-6.38805e-06
4.26437e-07
9.24444e-06
1.83715e-05
2.71222e-05
3.60862e-05
4.47917e-05
5.38252e-05
6.44856e-05
7.69019e-05
8.95855e-05
0.000101794
0.000110962
0.000112455
0.000104396
9.13028e-05
7.91736e-05
7.09485e-05
7.15356e-05
8.29383e-05
0.000101442
0.000120217
0.000134684
0.000140885
0.000136665
0.000124273
0.000110153
9.93555e-05
9.2265e-05
8.7062e-05
8.02213e-05
7.16984e-05
6.31145e-05
5.50417e-05
4.71445e-05
3.85656e-05
2.99359e-05
2.26908e-05
1.91325e-05
1.92705e-05
2.13683e-05
2.50119e-05
2.99475e-05
3.47056e-05
3.76873e-05
4.12153e-05
4.65004e-05
5.41716e-05
6.3896e-05
7.37607e-05
8.2961e-05
9.20746e-05
0.000100304
0.000102527
9.51398e-05
8.2886e-05
7.25786e-05
6.66735e-05
6.69288e-05
7.44559e-05
8.80703e-05
0.000103307
0.0001169
0.000125318
0.000127008
0.000121134
0.000103868
9.08453e-05
7.94962e-05
7.01327e-05
6.11692e-05
5.25717e-05
4.58449e-05
4.20095e-05
3.96727e-05
3.68809e-05
3.3637e-05
3.1768e-05
3.22695e-05
3.3905e-05
3.54431e-05
3.75071e-05
4.17104e-05
4.83785e-05
5.61803e-05
6.265e-05
6.76715e-05
7.12201e-05
7.40814e-05
7.82714e-05
8.28173e-05
8.65872e-05
8.94274e-05
8.92318e-05
8.34461e-05
7.41596e-05
6.59922e-05
6.14025e-05
6.05842e-05
6.46397e-05
7.4281e-05
8.75485e-05
0.000100589
0.000110767
0.000115987
0.000113821
9.52894e-05
7.90697e-05
6.16211e-05
4.75478e-05
3.66973e-05
2.90292e-05
2.43343e-05
2.34595e-05
2.54653e-05
2.77563e-05
3.01532e-05
3.42232e-05
3.92704e-05
4.38665e-05
4.73001e-05
5.11289e-05
5.79675e-05
6.80922e-05
7.86031e-05
8.64116e-05
9.10861e-05
9.21989e-05
9.01356e-05
8.61434e-05
8.14961e-05
7.71654e-05
7.50851e-05
7.46449e-05
7.30449e-05
7.04492e-05
6.85236e-05
6.74265e-05
6.59771e-05
6.65926e-05
7.15791e-05
8.07736e-05
9.17903e-05
0.000101835
0.000107426
0.000105701
7.92557e-05
3.91439e-05
6.93316e-06
-1.38886e-05
-1.97461e-05
-1.25631e-05
9.00635e-07
1.27137e-05
1.96754e-05
2.32532e-05
2.55842e-05
2.8567e-05
3.48607e-05
4.53409e-05
5.68386e-05
6.30465e-05
5.99773e-05
4.91885e-05
3.60823e-05
2.58013e-05
2.08536e-05
2.31751e-05
3.58346e-05
5.93926e-05
9.11566e-05
0.000127757
0.000164842
0.000196885
0.000219552
0.000235572
0.000250928
0.000268047
0.000282092
0.000286521
0.000281339
0.000267233
0.000242576
0.000209134
0.000169447
0.000124313
8.13365e-05
4.10755e-05
8.48555e-06
-1.28163e-05
-1.91882e-05
-1.24028e-05
8.68631e-07
1.26247e-05
1.96069e-05
2.32683e-05
2.56887e-05
2.8696e-05
3.49294e-05
4.53082e-05
5.67054e-05
6.28763e-05
5.97383e-05
4.88106e-05
3.5532e-05
2.51064e-05
2.00313e-05
2.22047e-05
3.46907e-05
5.79876e-05
8.93915e-05
0.000125599
0.000162266
0.000193911
0.000216206
0.000231881
0.000247052
0.000264349
0.000278974
0.000284193
0.000279978
0.000266986
0.00024331
0.000210573
0.000171363
0.000126417
8.30356e-05
4.20827e-05
8.77237e-06
-1.32345e-05
-2.01396e-05
-1.35524e-05
-1.11877e-07
1.1908e-05
1.90716e-05
2.28186e-05
2.52652e-05
2.81937e-05
3.42747e-05
4.45876e-05
5.61343e-05
6.24964e-05
5.94689e-05
4.84737e-05
3.50397e-05
2.4476e-05
1.92354e-05
2.11829e-05
3.34536e-05
5.65946e-05
8.77982e-05
0.000123833
0.000160268
0.000191538
0.000213204
0.000228131
0.000242825
0.000260359
0.000275837
0.000282077
0.000279083
0.000267572
0.000245169
0.000213086
0.000174016
0.000128726
8.41441e-05
4.17308e-05
7.09261e-06
-1.60256e-05
-2.35575e-05
-1.69198e-05
-2.8326e-06
9.93605e-06
1.75312e-05
2.13435e-05
2.36747e-05
2.63857e-05
3.22425e-05
4.2574e-05
5.45323e-05
6.15108e-05
5.89716e-05
4.81367e-05
3.46542e-05
2.40527e-05
1.87444e-05
2.05146e-05
3.26594e-05
5.58483e-05
8.70914e-05
0.000123226
0.00015968
0.000190708
0.000211593
0.000225348
0.000239102
0.000256691
0.000273208
0.000280657
0.00027899
0.000269225
0.000248348
0.000216873
0.00017756
0.000131299
8.5112e-05
4.03201e-05
3.62402e-06
-2.12058e-05
-2.96869e-05
-2.29304e-05
-7.76889e-06
6.32566e-06
1.47099e-05
1.85527e-05
2.05101e-05
2.27655e-05
2.82645e-05
3.86245e-05
5.10868e-05
5.91118e-05
5.75771e-05
4.73551e-05
3.40205e-05
2.35022e-05
1.83026e-05
2.00553e-05
3.22848e-05
5.58156e-05
8.73906e-05
0.000123806
0.000160467
0.000191525
0.000211865
0.000224362
0.000236678
0.000253767
0.000271266
0.000280076
0.000279726
0.000271793
0.000252696
0.000221965
0.000182298
0.000134577
8.67563e-05
3.86283e-05
-1.07864e-06
-2.84066e-05
-3.84639e-05
-3.17986e-05
-1.52302e-05
8.97051e-07
1.07022e-05
1.46967e-05
1.59514e-05
1.73581e-05
2.22175e-05
3.22766e-05
4.53351e-05
5.45593e-05
5.45524e-05
4.55689e-05
3.27629e-05
2.23797e-05
1.71146e-05
1.84701e-05
3.0542e-05
5.46416e-05
8.69924e-05
0.000123861
0.000160955
0.000192542
0.000213252
0.000225447
0.000236365
0.000252173
0.000270158
0.000280404
0.000281383
0.000275263
0.000258149
0.000228494
0.000188706
0.00013935
9.06167e-05
3.80381e-05
-5.79209e-06
-3.68147e-05
-4.96278e-05
-4.37555e-05
-2.58096e-05
-6.82711e-06
5.57768e-06
1.05071e-05
1.113e-05
1.1318e-05
1.51086e-05
2.45165e-05
3.764e-05
4.79769e-05
4.98652e-05
4.27666e-05
3.09859e-05
2.07312e-05
1.47542e-05
1.43509e-05
2.44857e-05
4.76706e-05
8.01477e-05
0.000117536
0.000155671
0.000188801
0.000211455
0.000225881
0.000237159
0.00025147
0.000269173
0.000280949
0.000283614
0.00027963
0.000264987
0.000236915
0.000197434
0.000146832
9.84891e-05
4.07142e-05
-8.34635e-06
-4.43216e-05
-6.16888e-05
-5.83286e-05
-3.99655e-05
-1.81829e-05
-2.14651e-06
5.33492e-06
6.50071e-06
5.78933e-06
8.43872e-06
1.68011e-05
2.91714e-05
4.03225e-05
4.44613e-05
3.97884e-05
2.92797e-05
1.88984e-05
1.11683e-05
7.15072e-06
1.29675e-05
3.28065e-05
6.34164e-05
0.000100412
0.000140101
0.000175674
0.000200925
0.000218874
0.000233595
0.000247902
0.000264752
0.000278135
0.000284007
0.000284006
0.000273236
0.000247813
0.000209362
0.000158211
0.000111207
4.87181e-05
-6.11341e-06
-4.79932e-05
-7.10843e-05
-7.20614e-05
-5.54046e-05
-3.26684e-05
-1.40919e-05
-4.17164e-06
-1.75446e-06
-2.47434e-06
-5.5149e-07
6.82823e-06
1.80643e-05
2.89323e-05
3.56767e-05
3.50227e-05
2.71098e-05
1.66442e-05
6.08959e-06
-3.46003e-06
-3.62914e-06
1.19459e-05
4.00141e-05
7.6039e-05
0.000116698
0.0001545
0.00018213
0.000202357
0.000220174
0.000236105
0.000252284
0.000266648
0.00027637
0.00028378
0.00028149
0.000261196
0.00022472
0.00017332
0.000127924
6.25368e-05
2.94698e-06
-4.50313e-05
-7.45504e-05
-8.11575e-05
-6.8006e-05
-4.6367e-05
-2.76574e-05
-1.70669e-05
-1.41177e-05
-1.54772e-05
-1.52481e-05
-9.52772e-06
2.0241e-07
1.11788e-05
2.06971e-05
2.46436e-05
2.06747e-05
1.19206e-05
-7.87754e-08
-1.45649e-05
-2.08733e-05
-9.17121e-06
1.72849e-05
5.2637e-05
9.32024e-05
0.00013154
0.000160031
0.000181045
0.000199479
0.000215911
0.000231783
0.000247022
0.00025999
0.000274763
0.000284825
0.000275114
0.000242938
0.000191711
0.000147763
8.08839e-05
1.86773e-05
-3.42387e-05
-7.00459e-05
-8.19153e-05
-7.27397e-05
-5.36867e-05
-3.64516e-05
-2.70529e-05
-2.56573e-05
-2.91301e-05
-3.124e-05
-2.76997e-05
-1.92989e-05
-7.84902e-06
4.66485e-06
1.21913e-05
1.10457e-05
5.10692e-06