/*--------------------------------*- C++ -*----------------------------------*\
| =========                 |                                                 |
| \\      /  F ield         | OpenFOAM: The Open Source CFD Toolbox           |
|  \\    /   O peration     | Version:  2306                                  |
|   \\  /    A nd           | Website:  www.openfoam.com                      |
|    \\/     M anipulation  |                                                 |
\*---------------------------------------------------------------------------*/
FoamFile
{
    version     2.0;
    format      ascii;
    arch        "LSB;label=32;scalar=64";
    class       volVectorField;
    location    "6";
    object      U_0;
}
// * * * * * * * * * * * * * * * * * * * * * * * * * * * * * * * * * * * * * //

dimensions      [0 1 -1 0 0 0 0];

internalField   nonuniform List<vector> 
60000
(
(0.00811089 3.32992e-05 0.000464721)
(0.00881859 3.26957e-05 0.000862866)
(0.00938747 4.16914e-05 0.00148035)
(0.00962001 4.84472e-05 0.0021623)
(0.00945873 4.04167e-05 0.00264093)
(0.00906307 2.21094e-05 0.00276863)
(0.0086973 8.43801e-06 0.002569)
(0.00845942 2.87226e-06 0.00217142)
(0.00829134 2.7959e-06 0.00170531)
(0.008132 2.03819e-06 0.00129624)
(0.00790504 -2.85371e-06 0.00105108)
(0.00748291 -9.25576e-06 0.000989025)
(0.00683041 -1.01677e-05 0.00104022)
(0.00611023 -6.1821e-06 0.00110648)
(0.00558524 -8.79312e-07 0.00113142)
(0.00538859 -1.52014e-06 0.00107764)
(0.00546205 -1.08831e-05 0.000887971)
(0.00565055 -2.00335e-05 0.000605037)
(0.00581816 -1.74519e-05 0.000341055)
(0.00597346 -8.06761e-06 0.000114898)
(0.00622243 -1.70225e-06 -7.56371e-05)
(0.00656383 1.21699e-05 -0.000221126)
(0.00688834 2.4969e-05 -0.000324095)
(0.00715492 2.91156e-05 -0.000462325)
(0.00742115 1.95844e-05 -0.000728782)
(0.00776668 2.69852e-07 -0.00121104)
(0.00822124 -1.74378e-05 -0.00183144)
(0.00863718 -2.43077e-05 -0.00231896)
(0.00878068 -2.179e-05 -0.00248213)
(0.00852784 -1.1581e-05 -0.00247918)
(0.00793326 3.70462e-06 -0.0024832)
(0.00717937 1.58247e-05 -0.00237176)
(0.00651046 1.12177e-05 -0.00215862)
(0.00608555 8.26936e-07 -0.00202053)
(0.00592214 1.83856e-06 -0.00191452)
(0.00601072 4.66846e-06 -0.00166045)
(0.00627074 9.7058e-06 -0.00117047)
(0.0065891 2.11003e-05 -0.000557784)
(0.00695875 3.47356e-05 -4.70997e-05)
(0.00745834 4.01128e-05 0.000249337)
(0.0244678 0.00014546 0.00135259)
(0.0265213 0.000164715 0.00253664)
(0.0282117 0.000237504 0.00420841)
(0.0291301 0.000285337 0.00589601)
(0.0289855 0.000244413 0.00696289)
(0.0279699 0.000141681 0.00711946)
(0.0267947 5.5559e-05 0.00651807)
(0.025948 1.68621e-05 0.00552225)
(0.0253963 1.58833e-05 0.00442531)
(0.0249273 1.7358e-05 0.00346561)
(0.0242459 6.4536e-06 0.0028423)
(0.0229856 -8.27792e-06 0.00262086)
(0.0211152 -2.82624e-05 0.00271605)
(0.0191016 -6.60744e-05 0.00291861)
(0.0175889 -0.000117608 0.00300118)
(0.0168876 -0.000171005 0.00279659)
(0.0168294 -0.000210214 0.00225639)
(0.0170526 -0.000203097 0.00156026)
(0.0173385 -0.000141994 0.000925105)
(0.0177568 -7.03968e-05 0.000377844)
(0.018467 -1.23724e-05 -8.88545e-05)
(0.0193991 5.86606e-05 -0.000469202)
(0.020371 0.000103302 -0.000795378)
(0.0213799 8.02572e-05 -0.00123439)
(0.0225557 -3.19209e-05 -0.00200125)
(0.0239693 -0.000171398 -0.00327907)
(0.0255222 -0.000255069 -0.00483502)
(0.0267365 -0.000228568 -0.00602535)
(0.0270136 -0.000120401 -0.00647151)
(0.0261169 1.06099e-05 -0.00649818)
(0.0243629 0.000107349 -0.00634558)
(0.0223666 0.000112745 -0.00590639)
(0.0205954 2.31211e-05 -0.00548376)
(0.0192077 -5.60647e-05 -0.00535481)
(0.0183222 -6.40285e-05 -0.00514573)
(0.0181666 -3.46721e-05 -0.00435577)
(0.0186689 2.96943e-05 -0.00293949)
(0.0195575 0.00011983 -0.00134474)
(0.0207864 0.000186801 -0.000102336)
(0.0224501 0.000185667 0.000657044)
(0.0406498 0.000267762 0.00155704)
(0.0441638 0.000317055 0.00339739)
(0.047244 0.000471236 0.00596222)
(0.0493405 0.000556439 0.00853307)
(0.0497664 0.000459413 0.0101971)
(0.0483858 0.000255271 0.0105196)
(0.0462335 9.26595e-05 0.00971118)
(0.0444983 1.99165e-05 0.00834141)
(0.0434292 1.46985e-05 0.00686121)
(0.0426672 1.6256e-05 0.00554645)
(0.0416693 -2.36682e-06 0.00456528)
(0.0398273 -2.66162e-05 0.00401872)
(0.0370336 -7.55121e-05 0.00396931)
(0.0338586 -0.000183328 0.00427304)
(0.0311535 -0.000333729 0.00451871)
(0.0294866 -0.000473212 0.00428832)
(0.0288072 -0.000550548 0.00351711)
(0.0287025 -0.000505264 0.00254056)
(0.0289101 -0.000348256 0.00166561)
(0.0294942 -0.000174076 0.000913383)
(0.0305839 -2.23421e-05 0.000261334)
(0.0320477 0.000126191 -0.00028707)
(0.0336958 0.000184531 -0.000755747)
(0.0355713 6.42903e-05 -0.00133785)
(0.0378367 -0.000261056 -0.0023624)
(0.0405152 -0.000615422 -0.00416718)
(0.0433775 -0.000799157 -0.00651135)
(0.0456305 -0.000696398 -0.00848083)
(0.0463051 -0.000383834 -0.00943744)
(0.0450355 -2.35979e-05 -0.00965544)
(0.0423938 0.000211176 -0.00935511)
(0.0393968 0.00019802 -0.0085453)
(0.036627 -1.71879e-05 -0.00791418)
(0.0341161 -0.000176886 -0.00793578)
(0.0319974 -0.000182771 -0.00794128)
(0.0308873 -0.000105427 -0.00699014)
(0.0310844 4.88575e-05 -0.00494666)
(0.0323014 0.000256229 -0.0025722)
(0.0343473 0.00039224 -0.000713563)
(0.0372064 0.000372518 0.000449719)
(0.0555854 0.000265437 0.000304886)
(0.0606856 0.000319738 0.00258237)
(0.0655036 0.000583222 0.00590617)
(0.0694069 0.000723661 0.00942063)
(0.0712301 0.000583868 0.0119834)
(0.0700766 0.000308929 0.0129125)
(0.0669285 0.000104765 0.0122565)
(0.0639475 1.07384e-05 0.0107221)
(0.0621304 -5.75216e-06 0.0090449)
(0.0610812 -8.26927e-06 0.00759868)
(0.0599821 -2.80583e-05 0.00639185)
(0.0579748 -4.80057e-05 0.00539611)
(0.0547642 -0.000110104 0.00489546)
(0.05078 -0.000287789 0.00510585)
(0.0467788 -0.000565899 0.00561473)
(0.0435262 -0.000839299 0.00560898)
(0.0414359 -0.000996227 0.00478314)
(0.0404035 -0.000929501 0.00363361)
(0.0401887 -0.000666143 0.00264483)
(0.0407362 -0.000362075 0.00183423)
(0.0420489 -8.47814e-05 0.00113801)
(0.0439246 0.000159908 0.000565491)
(0.04618 0.000216174 0.000148312)
(0.0488707 -8.28306e-05 -0.000264913)
(0.0521516 -0.000742767 -0.00110414)
(0.0560438 -0.00144428 -0.00298593)
(0.0603559 -0.00178457 -0.00594644)
(0.0641025 -0.00155577 -0.00895975)
(0.0658454 -0.000929244 -0.0109353)
(0.0649028 -0.000208231 -0.0118246)
(0.0619602 0.000261054 -0.011708)
(0.0583597 0.000260629 -0.0105809)
(0.0548141 -9.63832e-05 -0.00953148)
(0.0512514 -0.000354675 -0.00957833)
(0.0476016 -0.000363484 -0.0100748)
(0.0446566 -0.000250531 -0.00959993)
(0.0434908 -1.33296e-05 -0.00755931)
(0.0443394 0.000326772 -0.00476786)
(0.0468637 0.000543731 -0.00245816)
(0.0507495 0.000477899 -0.00102359)
(0.0676927 -7.44517e-05 -0.00321464)
(0.0743187 -0.000125965 -0.000858358)
(0.081119 0.000326863 0.00299962)
(0.0874716 0.000611394 0.00755038)
(0.0917927 0.000484471 0.0114995)
(0.0920453 0.000207847 0.0138003)
(0.0884001 5.39406e-05 0.0139919)
(0.0839126 -1.75121e-05 0.0126076)
(0.0809945 -4.52793e-05 0.0108132)
(0.0795886 -6.28176e-05 0.00942556)
(0.0785895 -8.59134e-05 0.00834549)
(0.0768553 -8.66414e-05 0.00706372)
(0.0738436 -0.00012035 0.00583324)
(0.069705 -0.000311051 0.00551063)
(0.0647984 -0.000679883 0.00615934)
(0.0596691 -0.00110768 0.0066397)
(0.0552348 -0.00142252 0.00602302)
(0.0522747 -0.00142635 0.00478241)
(0.050955 -0.00111118 0.00375264)
(0.0510553 -0.000682723 0.00303809)
(0.0523081 -0.00024975 0.00249674)
(0.0543515 0.000124401 0.00212376)
(0.0569406 0.000176059 0.0020356)
(0.0600565 -0.000385707 0.00219214)
(0.063769 -0.00155804 0.0021396)
(0.0681718 -0.00285319 0.000984258)
(0.0736084 -0.00354673 -0.00194243)
(0.0794948 -0.00312156 -0.00609257)
(0.0836178 -0.00194307 -0.00990625)
(0.0843733 -0.000682114 -0.0124582)
(0.0822399 0.000157618 -0.0133586)
(0.0787325 0.000272759 -0.0123213)
(0.0747792 -0.000195318 -0.0106872)
(0.0704885 -0.00055598 -0.0103633)
(0.0656003 -0.000565961 -0.0112269)
(0.0605152 -0.000440421 -0.0116308)
(0.0567537 -0.000189807 -0.0103923)
(0.0557453 0.000228766 -0.00794588)
(0.0576584 0.000508511 -0.00570648)
(0.0618696 0.0003357 -0.0043918)
(0.0756799 -0.000956848 -0.009139)
(0.0827093 -0.00136892 -0.00738937)
(0.0907864 -0.000917605 -0.00379788)
(0.0998022 -0.000328534 0.00128931)
(0.108117 -0.000112375 0.00701541)
(0.111875 -0.000161907 0.0118284)
(0.109287 -0.000123247 0.0141914)
(0.103564 -7.80308e-05 0.0137941)
(0.0991859 -9.49929e-05 0.0119888)
(0.0972653 -0.0001481 0.0106073)
(0.0965139 -0.000192038 0.01005)
(0.095375 -0.000173617 0.00911763)
(0.0930795 -0.000143637 0.00726842)
(0.089583 -0.000253237 0.0058673)
(0.0847995 -0.000596378 0.00613048)
(0.0784941 -0.00110317 0.00712334)
(0.071352 -0.0016112 0.00706261)
(0.065205 -0.00183117 0.0058782)
(0.0615221 -0.00161642 0.00477393)
(0.0603604 -0.00113717 0.00419207)
(0.0610571 -0.000537569 0.00394834)
(0.0628709 2.6516e-05 0.00396435)
(0.0653245 9.8181e-05 0.00440374)
(0.0682407 -0.000844349 0.00532815)
(0.0714945 -0.00276682 0.00638382)
(0.0748953 -0.00493917 0.00674922)
(0.0793974 -0.00633816 0.00536588)
(0.0866611 -0.00607392 0.00147625)
(0.0951299 -0.00418907 -0.00434)
(0.100393 -0.0018159 -0.0100385)
(0.101202 -0.000237207 -0.0135033)
(0.0991323 0.000167572 -0.013661)
(0.0954005 -0.000312976 -0.0117954)
(0.0907821 -0.00074566 -0.0107559)
(0.0853672 -0.000732262 -0.0114738)
(0.078954 -0.000576674 -0.0125118)
(0.0725385 -0.000362606 -0.0123534)
(0.0682682 1.96815e-05 -0.0110406)
(0.0675608 0.000241035 -0.00983548)
(0.0702888 -0.000138918 -0.00948145)
(0.082013 -0.00233324 -0.0156165)
(0.0870107 -0.00334107 -0.0152336)
(0.0933188 -0.00317702 -0.0129187)
(0.101647 -0.00251927 -0.00901817)
(0.113401 -0.00204113 -0.00296844)
(0.124115 -0.00143673 0.00479262)
(0.126336 -0.000746911 0.0111591)
(0.121095 -0.000295307 0.013586)
(0.115281 -0.000157597 0.0124946)
(0.11269 -0.000237633 0.0108183)
(0.112402 -0.0003592 0.0106973)
(0.112107 -0.000352911 0.0109625)
(0.110714 -0.000236505 0.00939641)
(0.10838 -0.000207088 0.00677682)
(0.104978 -0.000388574 0.00583314)
(0.0993344 -0.000803945 0.00687039)
(0.0907177 -0.00138111 0.00757884)
(0.0809276 -0.0018644 0.00679883)
(0.0732908 -0.00195411 0.0056407)
(0.0694398 -0.00159908 0.00505208)
(0.0687488 -0.000878341 0.00500962)
(0.0699147 -6.81348e-05 0.00531206)
(0.0720501 4.48957e-05 0.00605315)
(0.0748305 -0.00135884 0.00737605)
(0.0778975 -0.00413305 0.00911261)
(0.0802266 -0.00724195 0.0107906)
(0.0816932 -0.00947202 0.0117762)
(0.0856516 -0.00980603 0.0106774)
(0.0953014 -0.00787566 0.00582643)
(0.107114 -0.00446158 -0.00243936)
(0.114781 -0.00146598 -0.0101622)
(0.116867 -0.000262743 -0.013464)
(0.114572 -0.000520031 -0.0127105)
(0.109936 -0.000898761 -0.0112429)
(0.104595 -0.000798283 -0.0113223)
(0.0982922 -0.000588022 -0.0123232)
(0.0909077 -0.000388637 -0.01274)
(0.0841604 -5.53717e-05 -0.0124574)
(0.0801057 -1.54495e-06 -0.0127357)
(0.0794437 -0.000825152 -0.0142121)
(0.0921689 -0.00362135 -0.0195516)
(0.0927156 -0.00550683 -0.0215456)
(0.095279 -0.00566805 -0.0207297)
(0.0993727 -0.00521979 -0.018095)
(0.108234 -0.00510506 -0.013546)
(0.123164 -0.00424582 -0.00582142)
(0.134065 -0.0024591 0.00378897)
(0.133044 -0.00109244 0.010638)
(0.126682 -0.000547692 0.0120383)
(0.12342 -0.000423864 0.010192)
(0.124225 -0.000535584 0.00963062)
(0.1255 -0.000663337 0.0111854)
(0.124973 -0.000549 0.0113458)
(0.123536 -0.000303039 0.00848368)
(0.122157 -0.00020236 0.00583471)
(0.119373 -0.000408844 0.0060168)
(0.112303 -0.000825633 0.00724898)
(0.10066 -0.00137076 0.00723699)
(0.0885114 -0.00181656 0.00636208)
(0.0802236 -0.00182185 0.00576444)
(0.0767608 -0.00113886 0.00572415)
(0.0767657 -9.83327e-05 0.00603745)
(0.0788373 0.000165004 0.00669027)
(0.0821821 -0.00142553 0.00796232)
(0.0860663 -0.00471391 0.00980549)
(0.0890409 -0.00846744 0.0117933)
(0.0891748 -0.0114723 0.0139715)
(0.0878896 -0.0127101 0.0159763)
(0.0918594 -0.0114148 0.0149804)
(0.103818 -0.00799027 0.00830527)
(0.118264 -0.00390903 -0.00197947)
(0.127869 -0.00142189 -0.00974131)
(0.129314 -0.00106135 -0.0122283)
(0.124997 -0.00126094 -0.0116574)
(0.11974 -0.000968613 -0.011036)
(0.114713 -0.000452482 -0.0112939)
(0.108629 -7.18379e-05 -0.0115629)
(0.102061 0.000302442 -0.0115506)
(0.0969378 0.000233851 -0.0125547)
(0.0937921 -0.00113296 -0.0156411)
(0.108295 -0.0036561 -0.018293)
(0.103606 -0.00675866 -0.0236156)
(0.101174 -0.00760152 -0.0254511)
(0.101474 -0.00732462 -0.0238187)
(0.105022 -0.0079181 -0.019777)
(0.116249 -0.00798957 -0.013349)
(0.132157 -0.00562225 -0.0041689)
(0.138824 -0.00257053 0.00520276)
(0.133444 -0.00130209 0.00998421)
(0.127499 -0.00119578 0.00909084)
(0.128932 -0.00109409 0.00724225)
(0.133804 -0.000948706 0.00874624)
(0.134965 -0.000895107 0.0110966)
(0.132584 -0.000789268 0.00981794)
(0.13168 -0.000578528 0.00623299)
(0.133232 -0.000356553 0.00491905)
(0.131835 -0.000307408 0.00605167)
(0.122823 -0.000569848 0.00681221)
(0.108397 -0.00106991 0.00661899)
(0.0950443 -0.00150053 0.00638078)
(0.0870204 -0.00114998 0.00647518)
(0.0845637 -7.28064e-05 0.00679745)
(0.0861118 0.000365365 0.00726867)
(0.0900373 -0.00118134 0.00809065)
(0.0948868 -0.00457488 0.00937696)
(0.0991456 -0.00841337 0.0109218)
(0.100523 -0.011561 0.0129888)
(0.0975558 -0.0135033 0.0164337)
(0.0948072 -0.0135458 0.019243)
(0.100567 -0.0111003 0.0163851)
(0.115233 -0.0071297 0.00718834)
(0.131029 -0.00351702 -0.00312277)
(0.136505 -0.00164063 -0.00941354)
(0.129418 -0.000979079 -0.0108843)
(0.120137 -0.000867819 -0.00969336)
(0.11643 -0.000776338 -0.00840152)
(0.116219 -0.000224257 -0.0079047)
(0.115162 0.000693449 -0.00789491)
(0.113322 0.00101048 -0.00892003)
(0.111599 -0.00041673 -0.0124278)
(0.124925 -0.00217812 -0.0120333)
(0.118986 -0.00602271 -0.0202617)
(0.1112 -0.00801282 -0.0259261)
(0.107575 -0.00805345 -0.0268611)
(0.107936 -0.00901003 -0.0235223)
(0.113272 -0.0106921 -0.0174704)
(0.126095 -0.00968579 -0.00953099)
(0.139205 -0.00543963 -0.000439345)
(0.140998 -0.0020626 0.00643055)
(0.133397 -0.00172854 0.00755235)
(0.128933 -0.00247191 0.0049173)
(0.134278 -0.00210507 0.00475283)
(0.140905 -0.000862748 0.00799595)
(0.139354 -0.000306593 0.00924481)
(0.133851 -0.000971784 0.0065707)
(0.134304 -0.00176461 0.00418243)
(0.140452 -0.00145547 0.00461391)
(0.140898 -0.000488251 0.00575729)
(0.130364 -0.000164497 0.00616604)
(0.114652 -0.000502302 0.00645701)
(0.101375 -0.000558408 0.00715172)
(0.0944456 0.000128346 0.00803599)
(0.0940511 0.000434241 0.00851539)
(0.0982048 -0.00120275 0.00829086)
(0.104217 -0.004543 0.00787383)
(0.10968 -0.00808601 0.00812833)
(0.112243 -0.0107419 0.00978007)
(0.110104 -0.0123427 0.0137625)
(0.104452 -0.0132811 0.0190738)
(0.102966 -0.0128292 0.0201232)
(0.112492 -0.0103094 0.0131769)
(0.128079 -0.00624983 0.00215398)
(0.13546 -0.002053 -0.00661379)
(0.127439 0.00048461 -0.00978488)
(0.114397 0.000496029 -0.00791952)
(0.107972 -0.000696454 -0.00422942)
(0.109619 -0.000901496 -0.00163793)
(0.114752 0.000279118 -0.000854977)
(0.120055 0.0013484 -0.00169316)
(0.1244 0.000747952 -0.00515212)
(0.133503 -0.000492901 -0.00266675)
(0.133044 -0.00368707 -0.0130434)
(0.123966 -0.00651789 -0.0221842)
(0.115464 -0.00746824 -0.0269401)
(0.113215 -0.00850091 -0.0262546)
(0.115977 -0.0110631 -0.0211067)
(0.123227 -0.0124218 -0.0137301)
(0.134951 -0.00964086 -0.00555611)
(0.14418 -0.00454664 0.00185778)
(0.143418 -0.00189056 0.00534977)
(0.13541 -0.00267578 0.00386958)
(0.131673 -0.00379083 0.0020379)
(0.137766 -0.00231829 0.00402307)
(0.143845 0.000488849 0.00688187)
(0.141114 0.000855859 0.00639804)
(0.135373 -0.00200888 0.00417214)
(0.137823 -0.00437317 0.00385305)
(0.146222 -0.00328483 0.00507536)
(0.14667 -0.000699628 0.00575204)
(0.135494 0.000714064 0.00599849)
(0.120022 0.00105606 0.00707813)
(0.108022 0.00106278 0.0091709)
(0.103606 0.000310973 0.0104953)
(0.106417 -0.00218556 0.00917125)
(0.113235 -0.00551094 0.00606724)
(0.120518 -0.0082051 0.00393493)
(0.124696 -0.00980037 0.00450672)
(0.123323 -0.0104631 0.00855037)
(0.116807 -0.0110181 0.0155995)
(0.110055 -0.0120324 0.0203931)
(0.112143 -0.0118854 0.0166745)
(0.123301 -0.00858893 0.00616284)
(0.131055 -0.00262639 -0.00395604)
(0.125897 0.00210933 -0.00868117)
(0.114331 0.00270707 -0.00744519)
(0.106467 0.000390166 -0.00279026)
(0.105503 -0.0011796 0.00209701)
(0.109623 -0.000502647 0.00529522)
(0.116428 0.000878207 0.00640128)
(0.125469 0.00113912 0.00430854)
(0.132168 0.00015047 0.00588123)
(0.140249 -0.00102809 -0.00462157)
(0.136038 -0.00337729 -0.0158624)
(0.125731 -0.00546879 -0.023548)
(0.119636 -0.00731454 -0.0263748)
(0.120963 -0.00998816 -0.0239173)
(0.125979 -0.0127104 -0.0178193)
(0.132897 -0.0127257 -0.0103617)
(0.141908 -0.00889294 -0.0029785)
(0.147625 -0.00419684 0.00228568)
(0.144369 -0.00240534 0.00312406)
(0.135926 -0.0034026 0.00131828)
(0.133437 -0.00364555 0.00158944)
(0.139836 -0.00114484 0.00431868)
(0.145523 0.00135797 0.00568194)
(0.143391 -0.000200032 0.00447049)
(0.138853 -0.00486111 0.00327885)
(0.142 -0.00714117 0.00410831)
(0.149698 -0.00433119 0.00546666)
(0.149477 0.000253542 0.00563806)
(0.138711 0.00298964 0.00626368)
(0.125234 0.00333258 0.00933883)
(0.116695 0.00114486 0.0121596)
(0.115129 -0.00311263 0.0100501)
(0.119138 -0.00745594 0.00391067)
(0.127203 -0.00965901 -0.000783287)
(0.134922 -0.00962666 -0.00126075)
(0.136131 -0.00868671 0.00216502)
(0.129653 -0.00807023 0.00976244)
(0.119842 -0.00913438 0.0178501)
(0.115119 -0.0109548 0.0184225)
(0.11998 -0.00956128 0.00999288)
(0.126248 -0.00335311 -0.000464468)
(0.125125 0.00297525 -0.00688518)
(0.118983 0.00462346 -0.0081982)
(0.113381 0.00206404 -0.00561785)
(0.110336 -0.000368463 -0.00061711)
(0.110423 -0.000428135 0.00476815)
(0.113178 0.000477211 0.00888809)
(0.120126 0.000605307 0.01025)
(0.128283 -0.000977552 0.00798058)
(0.141223 0.000100521 0.000840022)
(0.144261 0.000109907 -0.00973786)
(0.136745 -0.00223785 -0.0184869)
(0.128419 -0.00550403 -0.0235465)
(0.126742 -0.00865304 -0.0241713)
(0.131071 -0.0114873 -0.0207404)
(0.135858 -0.0134081 -0.0149024)
(0.140594 -0.0124729 -0.00770329)
(0.145928 -0.00810023 -0.000986107)
(0.146928 -0.00359944 0.00224117)
(0.14126 -0.00231148 0.00156065)
(0.135222 -0.00311276 0.000785632)
(0.13643 -0.00268409 0.0027258)
(0.143313 -0.000602796 0.00534457)
(0.147615 -0.000137504 0.00564095)
(0.145379 -0.00347054 0.00378066)
(0.141878 -0.00794726 0.00266279)
(0.144348 -0.00832653 0.003767)
(0.149614 -0.00345523 0.00486767)
(0.148456 0.00227396 0.00562215)
(0.139628 0.00499122 0.00884575)
(0.130076 0.00357707 0.0122945)
(0.124247 -0.00102994 0.0094238)
(0.122325 -0.00698254 0.000928983)
(0.126714 -0.0109528 -0.00553834)
(0.13741 -0.0108036 -0.00589921)
(0.144584 -0.00819939 -0.00259423)
(0.140834 -0.0058979 0.00371166)
(0.130021 -0.0056814 0.0129911)
(0.120817 -0.00780924 0.0180709)
(0.119706 -0.00824774 0.0133745)
(0.123198 -0.00336506 0.00356589)
(0.124307 0.00317877 -0.00433303)
(0.123139 0.00553336 -0.00822194)
(0.121778 0.00351245 -0.00866483)
(0.119771 0.00108372 -0.00605583)
(0.117335 0.000642863 -0.00132162)
(0.115879 0.000744175 0.00396223)
(0.118206 -0.000375787 0.0081027)
(0.128658 -0.00293445 0.0042403)
(0.140174 -0.00116004 0.00171608)
(0.148962 0.00178541 -0.00550121)
(0.146993 0.000905472 -0.0136724)
(0.138939 -0.00291242 -0.0200211)
(0.133958 -0.00680128 -0.022666)
(0.136063 -0.00966938 -0.0215529)
(0.14095 -0.0121769 -0.0181755)
(0.143583 -0.0135863 -0.0123465)
(0.145065 -0.0111729 -0.00467578)
(0.14584 -0.0056123 0.000845329)
(0.143117 -0.00169164 0.00178007)
(0.138316 -0.00170016 0.000829788)
(0.136901 -0.00294081 0.00201134)
(0.141384 -0.00244037 0.00537582)
(0.147599 -0.00122656 0.00742925)
(0.149919 -0.00243418 0.00572846)
(0.14704 -0.00611964 0.00225315)
(0.142816 -0.00854858 0.00135667)
(0.141544 -0.00635948 0.00368777)
(0.141223 -0.000909799 0.00694499)
(0.137729 0.00367769 0.0101561)
(0.132822 0.00490772 0.0110656)
(0.129749 0.002258 0.00629607)
(0.12731 -0.00371065 -0.00230906)
(0.127169 -0.0100072 -0.00808917)
(0.135393 -0.0121521 -0.00733048)
(0.146916 -0.00949534 -0.00335242)
(0.148336 -0.00556376 0.000985522)
(0.138448 -0.00351295 0.00821344)
(0.127074 -0.00433029 0.0154815)
(0.122061 -0.00508294 0.0152203)
(0.123178 -0.00177104 0.00763661)
(0.12525 0.00358461 -0.00083631)
(0.126987 0.00540204 -0.00664002)
(0.12903 0.00366355 -0.00961779)
(0.129834 0.00210132 -0.010117)
(0.128194 0.00228969 -0.00803741)
(0.125415 0.00205445 -0.00376715)
(0.124163 -0.000621622 0.00127288)
(0.132514 -0.00328269 0.00159408)
(0.137752 -0.00276825 0.00143697)
(0.147797 0.00122389 -0.00284349)
(0.152614 0.00259141 -0.00956566)
(0.148448 -0.000143315 -0.0164441)
(0.142269 -0.0039251 -0.020588)
(0.141789 -0.00708524 -0.0209172)
(0.146422 -0.0101983 -0.0193152)
(0.149712 -0.0130382 -0.0157204)
(0.148875 -0.0125877 -0.00889075)
(0.146756 -0.00746018 -0.00183311)
(0.144114 -0.0016311 0.00122243)
(0.140711 0.000192915 0.00127095)
(0.138838 -0.00160502 0.00225466)
(0.141173 -0.00314087 0.00558361)
(0.146856 -0.00271112 0.00860109)
(0.151364 -0.00254646 0.00759434)
(0.150263 -0.00412558 0.00319183)
(0.14311 -0.00602691 0.000606272)
(0.134653 -0.00605332 0.00271144)
(0.129477 -0.00332014 0.00653297)
(0.128178 0.000784609 0.00811804)
(0.130115 0.00405166 0.00599248)
(0.133397 0.00433519 0.000719606)
(0.134469 0.000240478 -0.00557503)
(0.133464 -0.00681303 -0.00900635)
(0.137161 -0.0120819 -0.00682231)
(0.14723 -0.0115061 -0.00166556)
(0.152017 -0.00684395 0.00216195)
(0.144355 -0.00294943 0.00663357)
(0.132156 -0.00189517 0.0126333)
(0.125112 -0.00164898 0.0143592)
(0.125118 0.000837436 0.00917769)
(0.127832 0.0044149 0.00173112)
(0.129608 0.00518723 -0.00355188)
(0.130662 0.00296624 -0.0067401)
(0.132424 0.0013911 -0.00933591)
(0.134451 0.00210445 -0.0102927)
(0.135139 0.00265378 -0.00768517)
(0.133615 0.000227653 -0.0024412)
(0.133951 -0.00142913 0.0033685)
(0.133849 -0.00209181 0.00265922)
(0.140807 0.000441839 -0.000804705)
(0.150051 0.00255079 -0.00619689)
(0.152727 0.00171983 -0.0127212)
(0.14923 -0.00061301 -0.0177972)
(0.148037 -0.0034635 -0.0193351)
(0.15238 -0.00727386 -0.0187648)
(0.156564 -0.011351 -0.0172057)
(0.155266 -0.0123882 -0.0128585)
(0.150612 -0.00832191 -0.00601149)
(0.146322 -0.00203937 -0.000630344)
(0.143219 0.00143687 0.00179634)
(0.141555 0.000624751 0.00334662)
(0.142406 -0.00177519 0.00553499)
(0.145908 -0.00288646 0.00788736)
(0.149429 -0.00304602 0.00835672)
(0.149421 -0.00343387 0.00548296)
(0.144034 -0.00369091 0.00139041)
(0.135651 -0.00342857 -6.43766e-05)
(0.129176 -0.00250563 0.00147901)
(0.127804 -0.000909313 0.0027893)
(0.13159 0.00129883 0.00159089)
(0.137053 0.00293606 -0.00213165)
(0.139405 0.00187287 -0.00652462)
(0.138543 -0.00312954 -0.00854413)
(0.140028 -0.00986617 -0.00623683)
(0.147184 -0.0125925 -0.00126022)
(0.152631 -0.00872097 0.0027208)
(0.147885 -0.00305787 0.00646982)
(0.137243 -0.000272384 0.0113415)
(0.129504 0.000610384 0.0129813)
(0.127445 0.00279647 0.00887179)
(0.127572 0.00570211 0.00344546)
(0.126561 0.00604124 0.000563763)
(0.125481 0.00333866 -0.00111327)
(0.12692 0.000768103 -0.00385684)
(0.131236 0.00076427 -0.00591578)
(0.135684 0.00186336 -0.00414296)
(0.136528 0.00111033 0.000416917)
(0.134102 0.000310787 0.00498632)
(0.132336 0.000431706 0.00486741)
(0.135425 0.00159629 0.0017176)
(0.143431 0.00286233 -0.00309194)
(0.150785 0.0029065 -0.00863592)
(0.153427 0.00199066 -0.0131958)
(0.154858 0.00015486 -0.0153771)
(0.159374 -0.00362974 -0.0161968)
(0.163729 -0.00863564 -0.0168419)
(0.16217 -0.0108252 -0.0153387)
(0.15582 -0.00772195 -0.00985981)
(0.149518 -0.00180422 -0.00331541)
(0.14547 0.00217875 0.00105424)
(0.143598 0.00212102 0.00364454)
(0.143868 -2.59338e-05 0.00552658)
(0.145625 -0.00168313 0.00691354)
(0.146463 -0.00264745 0.00763618)
(0.144935 -0.00327239 0.00643004)
(0.141384 -0.00278737 0.00270854)
(0.137127 -0.00137248 -0.000927291)
(0.13425 -0.000667224 -0.0014842)
(0.134193 -0.00123628 0.000158437)
(0.136927 -0.00128594 0.000879695)
(0.140005 0.000377163 -0.000958251)
(0.140236 0.00169924 -0.00376072)
(0.138631 -0.000461222 -0.00462261)
(0.139416 -0.00644704 -0.00269442)
(0.144751 -0.011416 0.000722466)
(0.150673 -0.00998781 0.00369676)
(0.150123 -0.00402853 0.00647656)
(0.143297 0.000863115 0.00992098)
(0.135691 0.00350868 0.0112941)
(0.130134 0.00560112 0.00857984)
(0.1259 0.00724378 0.0048609)
(0.12266 0.00651437 0.00334608)
(0.121846 0.00290014 0.00309422)
(0.124074 -0.00113934 0.00160874)
(0.128758 -0.00266334 -0.000570984)
(0.133872 -0.00151433 -0.000558705)
(0.135917 -4.91041e-05 0.00226291)
(0.133074 0.00201458 0.006134)
(0.131874 0.0038878 0.00652521)
(0.133693 0.00510194 0.00478282)
(0.139069 0.00481176 0.00126227)
(0.145765 0.00362797 -0.00357326)
(0.151663 0.00316835 -0.00829634)
(0.157428 0.00285672 -0.0111132)
(0.164075 0.000142629 -0.0123893)
(0.168643 -0.00487917 -0.0140426)
(0.167084 -0.00799003 -0.0152736)
(0.160533 -0.00582542 -0.0128103)
(0.153443 -0.000657194 -0.0068507)
(0.148319 0.00281035 -0.00122434)
(0.145192 0.00275284 0.00237655)
(0.14372 0.00107935 0.00463764)
(0.143442 -5.51538e-05 0.00600112)
(0.142771 -0.000693878 0.00670342)
(0.140839 -0.00134376 0.00608101)
(0.13878 -0.001135 0.00331228)
(0.138438 6.97419e-05 -0.000191254)
(0.140664 -2.37064e-05 -0.00155425)
(0.143506 -0.00243951 -0.000216695)
(0.143883 -0.00429396 0.00142921)
(0.141344 -0.00260401 0.00129832)
(0.138103 0.00079796 0.000789471)
(0.1371 0.00134069 0.00197119)
(0.139566 -0.00316255 0.00391316)
(0.144571 -0.00922765 0.00520527)
(0.149531 -0.0104913 0.00569097)
(0.150315 -0.00537315 0.0065334)
(0.145829 0.0012096 0.00852438)
(0.138792 0.00530634 0.00922708)
(0.131279 0.0069787 0.00718406)
(0.124613 0.00764415 0.00521464)
(0.120895 0.00707025 0.00593703)
(0.121175 0.00438217 0.00762035)
(0.124277 0.000575242 0.00713653)
(0.128594 -0.00203225 0.00488315)
(0.132576 -0.00202479 0.00362542)
(0.134206 -0.000170892 0.00452895)
(0.136821 0.00371872 0.0056406)
(0.135708 0.00586446 0.00689465)
(0.135849 0.00751367 0.00685238)
(0.138518 0.00714146 0.00446778)
(0.142733 0.00433286 0.000139727)
(0.147864 0.0013054 -0.00421007)
(0.154604 0.000226309 -0.00702353)
(0.162444 0.000251327 -0.00877625)
(0.167658 -0.000886343 -0.0109374)
(0.167182 -0.00286478 -0.0132512)
(0.162943 -0.0026146 -0.0134233)
(0.158789 0.000257469 -0.0101238)
(0.155692 0.00266481 -0.00530664)
(0.152247 0.00297504 -0.00140572)
(0.14788 0.0021173 0.00114262)
(0.143738 0.00102788 0.00283438)
(0.140778 -6.48814e-05 0.00403244)
(0.139186 -0.000840226 0.00482152)
(0.139704 -0.000617297 0.00474722)
(0.143504 0.000329412 0.00316387)
(0.149918 8.88272e-05 0.000778048)
(0.154501 -0.00240095 -8.5012e-05)
(0.152987 -0.00466429 0.0023551)
(0.146696 -0.00348437 0.00624101)
(0.14083 0.000462665 0.0081898)
(0.139127 0.00307926 0.00696408)
(0.14127 0.00109685 0.00422726)
(0.145198 -0.00470497 0.0031227)
(0.149066 -0.00822042 0.00394179)
(0.149736 -0.00481283 0.00441871)
(0.145311 0.00244317 0.00513468)
(0.137532 0.00772726 0.00622585)
(0.129425 0.00941273 0.00633131)
(0.123537 0.00909235 0.0059416)
(0.12128 0.0079327 0.00637983)
(0.122301 0.00589224 0.00720816)
(0.125084 0.00312248 0.00704873)
(0.128676 0.000906727 0.00578659)
(0.132835 0.000484788 0.00458832)
(0.136175 0.00176448 0.00454552)
(0.137167 0.00422438 0.00464047)
(0.135883 0.00562533 0.00557393)
(0.135548 0.00714869 0.00644126)
(0.137716 0.00723561 0.00615262)
(0.141786 0.00458919 0.00366304)
(0.146286 0.000278723 -0.000682541)
(0.151132 -0.00294489 -0.00495274)
(0.157257 -0.00363388 -0.00759943)
(0.163621 -0.00286815 -0.00897634)
(0.166593 -0.0018719 -0.0102084)
(0.164498 -0.00046243 -0.0110162)
(0.160327 0.00172421 -0.0101522)
(0.157393 0.0034387 -0.00751317)
(0.155857 0.00374543 -0.00452618)
(0.154033 0.00352791 -0.00231408)
(0.151012 0.00314008 -0.000948376)
(0.147135 0.00153372 0.000244971)
(0.143535 -0.00158889 0.00201631)
(0.142274 -0.00475287 0.00412044)
(0.145147 -0.00679613 0.0052102)
(0.151118 -0.00770557 0.00423778)
(0.155668 -0.007762 0.00238422)
(0.154796 -0.00686911 0.00282283)
(0.14971 -0.00416558 0.00605781)
(0.144457 0.000902944 0.00791626)
(0.141293 0.00600795 0.00504387)
(0.14001 0.00681302 -0.00044115)
(0.140743 0.00164427 -0.00328913)
(0.143748 -0.00484441 -0.00147527)
(0.146296 -0.00556899 0.00147273)
(0.144645 0.000629082 0.00314925)
(0.138986 0.00787617 0.00439631)
(0.13314 0.0119855 0.00508453)
(0.130117 0.0129866 0.00435492)
(0.130062 0.012024 0.00258951)
(0.131319 0.00965187 0.00105507)
(0.132462 0.0065571 0.000739231)
(0.133615 0.00407179 0.00169992)
(0.135395 0.00313914 0.00303991)
(0.137094 0.00338853 0.00396066)
(0.139258 0.00534093 0.00423062)
(0.136198 0.00490642 0.00735486)
(0.134773 0.00358711 0.0100072)
(0.136626 0.00155405 0.0114793)
(0.141705 -0.000920595 0.0104701)
(0.1484 -0.00329817 0.0065343)
(0.15428 -0.0045616 0.000827883)
(0.157426 -0.00402698 -0.00468775)
(0.157426 -0.00202303 -0.00853468)
(0.155027 0.000630084 -0.0101477)
(0.151582 0.00305502 -0.00970116)
(0.148407 0.0044955 -0.0082928)
(0.146263 0.00453563 -0.00719357)
(0.145783 0.00342467 -0.00650763)
(0.147288 0.00209072 -0.00550768)
(0.15031 0.00119512 -0.00422342)
(0.153261 0.000749475 -0.00323211)
(0.154361 0.000260585 -0.00219019)
(0.153563 -0.00155464 -2.47696e-05)
(0.15253 -0.00528037 0.0032807)
(0.152615 -0.00929338 0.00629704)
(0.153441 -0.0104837 0.00765869)
(0.153091 -0.00747471 0.00763371)
(0.150365 -0.00218869 0.00724717)
(0.146293 0.00254534 0.00597598)
(0.142695 0.00501701 0.00257552)
(0.140693 0.00433642 -0.00208092)
(0.140952 0.000545561 -0.00454465)
(0.143164 -0.00441666 -0.00249332)
(0.145407 -0.00643627 0.00207455)
(0.145301 -0.00270037 0.00570922)
(0.143012 0.00425801 0.00714642)
(0.141224 0.0101518 0.00625754)
(0.141623 0.0131865 0.00285386)
(0.143242 0.0133369 -0.00218626)
(0.144097 0.0109514 -0.00678554)
(0.143607 0.00722388 -0.00894178)
(0.142758 0.00430031 -0.00773005)
(0.142358 0.0037571 -0.00394467)
(0.14159 0.00473624 0.000474288)
(0.147175 0.00628707 -0.00345647)
(0.147178 0.0056237 6.97318e-05)
(0.148808 0.00303395 0.00404134)
(0.150704 -0.000147849 0.00827218)
(0.151686 -0.00258515 0.0118716)
(0.152475 -0.00389472 0.0131841)
(0.154689 -0.00385397 0.010993)