/*--------------------------------*- C++ -*----------------------------------*\
| =========                 |                                                 |
| \\      /  F ield         | OpenFOAM: The Open Source CFD Toolbox           |
|  \\    /   O peration     | Version:  2306                                  |
|   \\  /    A nd           | Website:  www.openfoam.com                      |
|    \\/     M anipulation  |                                                 |
\*---------------------------------------------------------------------------*/
FoamFile
{
    version     2.0;
    format      ascii;
    arch        "LSB;label=32;scalar=64";
    class       volScalarField;
    location    "6.5";
    object      p;
}
// * * * * * * * * * * * * * * * * * * * * * * * * * * * * * * * * * * * * * //

dimensions      [0 2 -2 0 0 0 0];

internalField   nonuniform List<scalar> 
60000
(
-9.59328e-05
-7.48025e-05
-6.98603e-05
-0.00010616
-0.000161616
-0.000195289
-0.000198548
-0.000193319
-0.000189536
-0.000182034
-0.000168471
-0.000155553
-0.000158244
-0.000169505
-0.00016357
-0.000130742
-8.46088e-05
-4.60009e-05
-3.64341e-05
-5.71063e-05
-8.64636e-05
-0.000118435
-0.00016869
-0.000236918
-0.000292761
-0.000305877
-0.000251378
-0.000148978
-6.63511e-05
-3.58299e-05
-6.09154e-05
-0.000107188
-0.00012566
-8.78683e-05
-3.19662e-05
3.86728e-06
6.22725e-06
-2.40995e-05
-6.87726e-05
-9.83351e-05
-9.48779e-05
-7.3507e-05
-6.82189e-05
-0.000104767
-0.0001614
-0.000196337
-0.000199876
-0.000194358
-0.000190074
-0.000182324
-0.000168896
-0.000156325
-0.000159135
-0.000170546
-0.000164651
-0.000131836
-8.56676e-05
-4.68063e-05
-3.66788e-05
-5.68985e-05
-8.59655e-05
-0.000117362
-0.00016766
-0.000236466
-0.000293206
-0.000307433
-0.000253467
-0.000150887
-6.7948e-05
-3.68443e-05
-6.15418e-05
-0.000107908
-0.000126988
-8.95762e-05
-3.27804e-05
3.83763e-06
6.9604e-06
-2.29106e-05
-6.74142e-05
-9.69772e-05
-9.47789e-05
-7.27156e-05
-6.68747e-05
-0.000103971
-0.000162847
-0.000199856
-0.000203534
-0.000197147
-0.000191539
-0.000183049
-0.000169523
-0.000156882
-0.000159808
-0.000171719
-0.000166388
-0.00013382
-8.7477e-05
-4.7808e-05
-3.65065e-05
-5.60234e-05
-8.47894e-05
-0.000116097
-0.00016684
-0.000236365
-0.000294866
-0.000310129
-0.000256021
-0.000152341
-6.91441e-05
-3.76941e-05
-6.24529e-05
-0.000109453
-0.000129725
-9.22953e-05
-3.44747e-05
3.12368e-06
7.19213e-06
-2.17903e-05
-6.62981e-05
-9.62415e-05
-9.56462e-05
-7.20027e-05
-6.56418e-05
-0.000103493
-0.000166227
-0.000206581
-0.000210374
-0.000202624
-0.000194587
-0.000184478
-0.000170399
-0.000157309
-0.000160158
-0.000172816
-0.000168528
-0.000136616
-9.01458e-05
-4.90291e-05
-3.57437e-05
-5.41913e-05
-8.28103e-05
-0.000114423
-0.000166306
-0.000237443
-0.000297837
-0.000313983
-0.000258795
-0.00015269
-6.93282e-05
-3.82545e-05
-6.41517e-05
-0.000112364
-0.00013417
-9.61504e-05
-3.67987e-05
1.70272e-06
6.74379e-06
-2.08869e-05
-6.54771e-05
-9.60477e-05
-9.62815e-05
-7.16521e-05
-6.40824e-05
-0.000102352
-0.000170499
-0.000215982
-0.000220431
-0.000211387
-0.000199845
-0.00018694
-0.000171648
-0.000157582
-0.00015991
-0.000173175
-0.000170217
-0.000139638
-9.37707e-05
-5.09951e-05
-3.47363e-05
-5.13275e-05
-7.97172e-05
-0.000112053
-0.000165736
-0.000239215
-0.000301839
-0.00031955
-0.000263533
-0.0001543
-7.05209e-05
-3.8995e-05
-6.69277e-05
-0.000116949
-0.000140302
-0.000100589
-3.89641e-05
5.71176e-08
5.47369e-06
-2.03638e-05
-6.45856e-05
-9.60547e-05
-9.74333e-05
-7.13183e-05
-5.8555e-05
-9.95958e-05
-0.000176259
-0.000227986
-0.000233024
-0.000223584
-0.000207657
-0.000190821
-0.000173556
-0.000158024
-0.000159144
-0.000172382
-0.000170325
-0.00014152
-9.76326e-05
-5.39233e-05
-3.39866e-05
-4.74856e-05
-7.50575e-05
-0.000108404
-0.00016476
-0.00024139
-0.00030754
-0.000328341
-0.00027311
-0.000159886
-7.81522e-05
-4.5524e-05
-7.25318e-05
-0.000123438
-0.000148081
-0.000105275
-4.0057e-05
-5.84662e-07
3.96055e-06
-2.01585e-05
-6.31548e-05
-9.58824e-05
-0.000101156
-7.36655e-05
-5.09044e-05
-9.11482e-05
-0.000180045
-0.000246389
-0.000251385
-0.000240147
-0.000215845
-0.000195451
-0.000175718
-0.000159087
-0.000158715
-0.000170694
-0.000168553
-0.000140972
-0.000100186
-5.71246e-05
-3.37514e-05
-4.28434e-05
-6.8405e-05
-0.000102676
-0.000162546
-0.000244389
-0.000315044
-0.000340874
-0.000287555
-0.000173666
-8.85553e-05
-5.7481e-05
-8.64909e-05
-0.000134891
-0.000157695
-0.000110726
-4.02629e-05
5.97095e-07
3.46763e-06
-2.00571e-05
-6.0642e-05
-9.53468e-05
-0.00010685
-8.25022e-05
-4.53457e-05
-7.54344e-05
-0.000173449
-0.000258364
-0.000277166
-0.00026795
-0.000233059
-0.000202591
-0.000177494
-0.000159727
-0.000159687
-0.000170771
-0.000165832
-0.000138023
-9.98893e-05
-5.8823e-05
-3.36139e-05
-3.77242e-05
-5.97283e-05
-9.43025e-05
-0.000158776
-0.000246436
-0.000320038
-0.000347979
-0.000295298
-0.000178689
-8.76895e-05
-6.42729e-05
-0.000101442
-0.000153418
-0.000174907
-0.000120148
-4.35594e-05
7.27732e-07
5.12011e-06
-1.3296e-05
-5.52239e-05
-9.29857e-05
-0.000108413
-9.43266e-05
-4.43206e-05
-5.51833e-05
-0.000157739
-0.000263333
-0.000306712
-0.000307799
-0.000258337
-0.000215061
-0.00018221
-0.000160768
-0.000160336
-0.000173426
-0.000167856
-0.000137379
-9.59595e-05
-5.66091e-05
-3.13223e-05
-3.21618e-05
-4.99813e-05
-8.37839e-05
-0.000154075
-0.000247317
-0.000321808
-0.000344034
-0.000283623
-0.000160757
-6.48509e-05
-5.07647e-05
-0.000104998
-0.000173962
-0.000202328
-0.000135928
-4.89406e-05
-1.86413e-06
-1.54217e-06
-1.47447e-05
-4.88613e-05
-8.47568e-05
-9.96897e-05
-0.000100614
-4.5059e-05
-3.08528e-05
-0.000130055
-0.000258643
-0.000329725
-0.000341087
-0.000293262
-0.000232539
-0.000188636
-0.000164672
-0.000163748
-0.000175709
-0.000170485
-0.000142902
-0.000103142
-5.72241e-05
-2.50594e-05
-2.48494e-05
-4.11632e-05
-7.33637e-05
-0.000149348
-0.000243321
-0.000323506
-0.000334703
-0.000258048
-0.00012097
-1.55615e-05
-1.25687e-05
-9.27894e-05
-0.000192095
-0.000236655
-0.000158381
-5.94812e-05
-8.11253e-06
-1.07985e-05
-2.32898e-05
-4.79401e-05
-7.47851e-05
-8.23106e-05
-9.71894e-05
-4.60943e-05
-7.80881e-06
-8.80602e-05
-0.000234198
-0.000336842
-0.000372957
-0.000333485
-0.000258937
-0.000197084
-0.000166806
-0.000166074
-0.000179354
-0.000173835
-0.000148579
-0.000115924
-7.48236e-05
-3.44825e-05
-2.06254e-05
-2.91475e-05
-6.6965e-05
-0.000145462
-0.000249996
-0.000329101
-0.000329309
-0.000236766
-8.34966e-05
4.06345e-05
4.73811e-05
-5.99123e-05
-0.000196695
-0.000263671
-0.000187425
-8.19498e-05
-2.57738e-05
-2.7573e-05
-2.80819e-05
-4.51537e-05
-6.03383e-05
-4.48947e-05
-6.36823e-05
-4.57613e-05
5.23012e-06
-4.48214e-05
-0.000187558
-0.000316074
-0.000385158
-0.000376742
-0.000294907
-0.000211198
-0.000168335
-0.00016541
-0.000179568
-0.000175939
-0.000152822
-0.000126106
-9.40887e-05
-6.05777e-05
-4.16206e-05
-3.92339e-05
-7.13312e-05
-0.000142791
-0.000252974
-0.000327338
-0.000322266
-0.000228456
-7.79128e-05
6.70301e-05
0.000103561
-4.56274e-06
-0.000171374
-0.000265838
-0.000223055
-0.000110669
-5.26e-05
-4.0824e-05
-3.55357e-05
-3.74185e-05
-3.51062e-05
-9.19239e-06
-2.438e-05
-4.33921e-05
3.3367e-06
-1.5367e-05
-0.000132335
-0.000268443
-0.000367028
-0.000397424
-0.000336589
-0.000232874
-0.000172146
-0.000163385
-0.00017768
-0.000176793
-0.000154011
-0.000131024
-0.000106345
-8.04404e-05
-7.14229e-05
-8.27983e-05
-9.92678e-05
-0.000146617
-0.00023836
-0.000307307
-0.000296009
-0.000218435
-9.30231e-05
3.86666e-05
0.000124677
5.42233e-05
-0.00011312
-0.000233499
-0.000243076
-0.000135443
-8.01158e-05
-5.71878e-05
-4.29169e-05
-4.13854e-05
-1.98899e-05
7.73795e-06
-1.11163e-06
-3.86535e-05
-1.3048e-05
-3.17115e-06
-8.03329e-05
-0.000204904
-0.000321127
-0.000387621
-0.00035893
-0.000251682
-0.000175727
-0.000163144
-0.000176912
-0.000180009
-0.000158129
-0.000131801
-0.000111147
-8.6916e-05
-8.72914e-05
-0.00011307
-0.00013382
-0.000151732
-0.000219156
-0.000281089
-0.00027639
-0.000208735
-0.000109895
-2.7699e-06
0.000108061
8.5552e-05
-4.59522e-05
-0.000169721
-0.000196582
-0.000150059
-0.000104364
-7.40061e-05
-5.28617e-05
-4.48254e-05
-1.96253e-05
2.35869e-06
7.13522e-06
-3.37835e-05
-3.0652e-05
-1.47486e-06
-3.71587e-05
-0.000138113
-0.000258135
-0.000349968
-0.000355246
-0.000268941
-0.00017706
-0.00016136
-0.000173954
-0.000184306
-0.000169669
-0.000140901
-0.000114614
-8.63661e-05
-8.48998e-05
-0.000117896
-0.000127864
-0.000146806
-0.000197368
-0.00025224
-0.000257963
-0.000197057
-0.000125192
-4.3363e-05
6.22748e-05
8.59229e-05
-1.66757e-06
-0.000105417
-0.000159712
-0.00015171
-0.000123942
-8.99007e-05
-6.6319e-05
-5.66987e-05
-2.89451e-05
-6.92847e-06
3.91819e-06
-3.09129e-05
-3.27623e-05
-1.13572e-05
-7.37278e-06
-8.25433e-05
-0.000192582
-0.000294272
-0.000325097
-0.000265768
-0.000183157
-0.000161235
-0.000170222
-0.000188072
-0.000178851
-0.0001499
-0.000121653
-9.22933e-05
-8.15727e-05
-0.000109412
-0.000130781
-0.000138906
-0.000168305
-0.000223642
-0.000238123
-0.000175138
-0.000124976
-8.32833e-05
9.88217e-06
5.9959e-05
1.41113e-05
-7.09048e-05
-0.000127485
-0.000144906
-0.000141368
-0.000111968
-8.69623e-05
-6.72058e-05
-3.43672e-05
-2.64803e-05
8.51404e-07
-3.10038e-05
-4.29616e-05
-3.21845e-05
-1.50657e-05
-5.81259e-05
-0.000139115
-0.000228742
-0.000274824
-0.000245615
-0.000182117
-0.00015951
-0.0001757
-0.000193973
-0.000188206
-0.000155256
-0.000125131
-9.80391e-05
-8.94674e-05
-0.000111421
-0.000136191
-0.000138023
-0.000149592
-0.000185258
-0.00022158
-0.000158239
-0.00010983
-9.57419e-05
-3.59193e-05
1.62449e-05
9.54626e-06
-4.32817e-05
-0.000100292
-0.000138214
-0.000145725
-0.00012413
-0.000102297
-7.63248e-05
-4.34619e-05
-6.47098e-06
3.86677e-06
-3.27821e-05
-5.65769e-05
-5.38815e-05
-4.43274e-05
-6.41475e-05
-0.000108399
-0.000161536
-0.000203479
-0.000209834
-0.000182182
-0.000164584
-0.000177033
-0.00019111
-0.000178078
-0.000159444
-0.000133751
-0.000103042
-8.8714e-05
-0.000102633
-0.000138379
-0.000143201
-0.000142865
-0.00018929
-0.000205696
-0.000157679
-9.94923e-05
-8.51731e-05
-5.99748e-05
-1.8288e-05
-1.12669e-05
-4.11375e-05
-9.22194e-05
-0.000138318
-0.000152644
-0.000131822
-9.59667e-05
-6.81036e-05
-4.41833e-05
7.8017e-07
1.97717e-06
-4.37076e-05
-8.27175e-05
-8.55466e-05
-7.22127e-05
-7.70202e-05
-0.000110944
-0.000131614
-0.000137884
-0.000147986
-0.000156014
-0.000173786
-0.000188064
-0.000197911
-0.000187573
-0.000173113
-0.000157645
-0.000130633
-0.000100807
-9.81073e-05
-0.000121275
-0.000131369
-0.000123329
-0.000144022
-0.000172659
-0.000153218
-0.000102803
-8.08762e-05
-7.3686e-05
-3.31534e-05
-1.16013e-05
-4.32714e-05
-0.000108735
-0.000154068
-0.000152213
-0.000125026
-9.36666e-05
-6.17974e-05
-3.24319e-05
-1.96222e-05
-2.34562e-05
-5.96411e-05
-9.4568e-05
-0.000113048
-0.000112321
-0.000109885
-0.000120639
-0.000128288
-0.000132843
-0.000137565
-0.000143908
-0.00015393
-0.000170869
-0.000182173
-0.000184517
-0.000181676
-0.000185236
-0.000179654
-0.000159561
-0.000135796
-0.000131994
-0.000126112
-0.000107077
-0.000108411
-0.000134809
-0.000146121
-0.000124003
-0.000105345
-9.19266e-05
-4.84044e-05
-7.92224e-06
-3.89989e-05
-0.000111474
-0.00016012
-0.000162416
-0.000136425
-0.00010547
-6.98968e-05
-4.04603e-05
-2.07488e-05
-2.6118e-05
-5.72471e-05
-8.82387e-05
-0.000122431
-0.000127745
-0.000156414
-0.000165205
-0.000164871
-0.000139507
-0.00012198
-0.000130245
-0.000153637
-0.000175319
-0.000182544
-0.000180159
-0.000181412
-0.000191971
-0.000196423
-0.000189306
-0.000169027
-0.000155785
-0.000138617
-0.000107363
-9.10502e-05
-0.000113046
-0.00014289
-0.000146286
-0.000124378
-9.92932e-05
-3.41059e-05
-3.06239e-06
-3.58793e-05
-0.000120284
-0.000196147
-0.000230473
-0.000198147
-0.000143132
-9.01438e-05
-4.86158e-05
-2.52094e-05
-4.3855e-05
-7.35835e-05
-8.60681e-05
-5.57524e-05
-7.28622e-05
-0.000109693
-0.000148505
-0.000171485
-0.000156221
-0.000133922
-0.000126024
-0.000146651
-0.000172488
-0.000182597
-0.000181763
-0.000183212
-0.000187589
-0.000190516
-0.000195186
-0.000187693
-0.000171794
-0.000151189
-0.000114478
-8.70605e-05
-9.5349e-05
-0.000124132
-0.000138104
-0.000127871
-9.36518e-05
-3.48796e-05
1.65474e-05
-1.07406e-05
-0.000105418
-0.000210325
-0.000286547
-0.000260264
-0.000197609
-0.000117892
-5.20231e-05
-5.07765e-05
-5.01432e-05
-7.38464e-05
-8.40175e-05
-8.24616e-05
-7.94704e-05
-8.68389e-05
-0.000102074
-0.000118646
-0.000136341
-0.000157198
-0.000153134
-0.000165833
-0.000174117
-0.000172858
-0.000172732
-0.000176568
-0.000181869
-0.000170443
-0.000163649
-0.000157462
-0.000156004
-0.000150811
-0.000118802
-8.86164e-05
-8.61018e-05
-0.000109885
-0.000123348
-0.000112722
-9.27154e-05
-6.26613e-05
-2.02683e-05
-1.61526e-05
-7.72938e-05
-0.000161382
-0.00021829
-0.000230471
-0.000198737
-0.000148544
-9.01565e-05
-8.29518e-05
-7.27211e-05
-8.53274e-05
-9.04598e-05
-7.65921e-05
-7.18253e-05
-8.98922e-05
-0.000123517
-0.000153068
-0.00016864
-0.000182417
-0.00018091
-0.00017306
-0.000157913
-0.00014205
-0.000136778
-0.000148269
-0.000164292
-0.000180052
-0.000178106
-0.000166099
-0.000140722
-0.000119407
-0.000105273
-8.25511e-05
-7.19487e-05
-8.62604e-05
-0.000109163
-0.000123488
-0.000127499
-0.000111358
-7.40717e-05
-5.36293e-05
-7.65314e-05
-0.000132208
-0.000183369
-0.000206672
-0.000199937
-0.000168891
-0.00012233
-0.000109283
-9.0861e-05
-9.22713e-05
-0.000128515
-9.2401e-05
-8.09952e-05
-9.26654e-05
-0.000124275
-0.000160797
-0.000195255
-0.000204142
-0.000206187
-0.000200033
-0.000176689
-0.000153501
-0.000141783
-0.000151881
-0.00016827
-0.000165988
-0.000151595
-0.000141605
-0.000135067
-0.000112258
-7.67943e-05
-4.85326e-05
-3.92828e-05
-6.38646e-05
-0.000108603
-0.000144229
-0.000164946
-0.000161848
-0.000131772
-0.000101654
-9.09763e-05
-0.000116699
-0.000154195
-0.000182495
-0.000197046
-0.000181213
-0.000145075
-4.40945e-05
-3.93247e-08
1.73969e-05
-2.70047e-05
-0.000120015
-0.000207655
-0.000265018
-0.000285881
-0.000277659
-0.000247852
-0.000213052
-0.000194577
-0.000200256
-0.000209141
-0.000195031
-0.00015398
-0.00010409
-6.8676e-05
-6.54883e-05
-8.97955e-05
-0.000110407
-0.000120543
-0.000144257
-0.000200407
-0.000269587
-0.000305669
-0.000261631
-0.000134016
-9.28585e-06
3.62906e-05
2.1836e-05
1.16664e-05
5.57459e-06
6.33516e-06
2.66859e-05
5.78522e-05
7.08212e-05
3.89852e-05
-1.98025e-05
-5.72808e-05
-4.36289e-05
9.01252e-07
2.00528e-05
-2.39817e-05
-0.000116973
-0.000205313
-0.000263834
-0.000285674
-0.00027811
-0.000248512
-0.000213647
-0.00019514
-0.000201013
-0.000210249
-0.000196398
-0.000155328
-0.000105292
-6.95234e-05
-6.59008e-05
-9.00182e-05
-0.000110547
-0.000120503
-0.000143947
-0.000200002
-0.000269808
-0.000307288
-0.000265153
-0.000138574
-1.32085e-05
3.3161e-05
1.86761e-05
8.78201e-06
3.31816e-06
4.01697e-06
2.40908e-05
5.5678e-05
6.98476e-05
3.91799e-05
-1.92704e-05
-5.68691e-05
-4.29297e-05
2.75929e-06
2.35508e-05
-2.0082e-05
-0.000114462
-0.000205003
-0.000265501
-0.000288087
-0.000280538
-0.000250418
-0.000214872
-0.000195945
-0.000202071
-0.00021199
-0.000198566
-0.000157487
-0.000107061
-7.05363e-05
-6.61586e-05
-9.01433e-05
-0.000110819
-0.00012044
-0.000143445
-0.000199536
-0.00027046
-0.000309651
-0.000269259
-0.00014281
-1.5673e-05
3.14396e-05
1.56365e-05
5.78612e-06
1.45523e-06
2.06465e-06
2.12942e-05
5.29026e-05
6.8705e-05
3.99039e-05
-1.83507e-05
-5.65954e-05
-4.21374e-05
5.56577e-06
2.87737e-05
-1.55969e-05
-0.000113655
-0.000208407
-0.000271719
-0.000294366
-0.000285672
-0.000253839
-0.000216686
-0.000196851
-0.000203248
-0.000214166
-0.000201401
-0.000160346
-0.0001093
-7.15688e-05
-6.60382e-05
-8.99526e-05
-0.000110941
-0.000120156
-0.000142726
-0.000199104
-0.000271581
-0.000312454
-0.000273079
-0.00014534
-1.52673e-05
3.22492e-05
1.31218e-05
2.58899e-06
-1.75386e-07
5.83739e-07
1.88054e-05
4.99603e-05
6.72287e-05
4.0614e-05
-1.75189e-05
-5.65734e-05
-4.19657e-05
1.06002e-05
3.60327e-05
-1.08191e-05
-0.000114417
-0.000215898
-0.000283266
-0.000305043
-0.000293753
-0.000258856
-0.000219094
-0.000197711
-0.000204111
-0.000216091
-0.000204111
-0.000163346
-0.000111864
-7.27929e-05
-6.56821e-05
-8.94171e-05
-0.000110793
-0.000119611
-0.000141874
-0.000198981
-0.000273543
-0.000315969
-0.000277511
-0.00014797
-1.39299e-05
3.31218e-05
1.07544e-05
-1.20446e-06
-2.10761e-06
-6.23927e-07
1.7216e-05
4.76265e-05
6.53959e-05
4.03407e-05
-1.80131e-05
-5.81425e-05
-4.43135e-05
1.6937e-05
4.66098e-05
-3.48532e-06
-0.000114832
-0.000226394
-0.000300212
-0.00032043
-0.000304972
-0.000265587
-0.000222371
-0.000198843
-0.000204774
-0.000217321
-0.000205509
-0.000165125
-0.000113888
-7.41108e-05
-6.53658e-05
-8.86996e-05
-0.000110328
-0.000118623
-0.000140581
-0.000199101
-0.000276405
-0.000322676
-0.000287759
-0.000157483
-1.89243e-05
2.96136e-05
4.99261e-06
-7.07148e-06
-5.1777e-06
-2.32419e-06
1.6552e-05
4.67347e-05
6.37024e-05
3.89121e-05
-2.06214e-05
-6.28598e-05
-5.14764e-05
2.25574e-05
6.5247e-05
1.25449e-05
-0.000109344
-0.000235762
-0.000321409
-0.00034063
-0.000319793
-0.000274194
-0.000226847
-0.000200662
-0.00020569
-0.000218278
-0.000205628
-0.000164708
-0.000113628
-7.4369e-05
-6.4885e-05
-8.80774e-05
-0.000109764
-0.000117132
-0.000138606
-0.000199277
-0.000281352
-0.000335437
-0.000309557
-0.000181221
-3.52812e-05
1.60603e-05
-1.16043e-05
-2.17246e-05
-1.28606e-05
-7.28792e-06
1.47404e-05
4.67756e-05
6.24195e-05
3.68576e-05
-2.46167e-05
-7.0484e-05
-6.1748e-05
2.50617e-05
8.84494e-05
4.12338e-05
-9.00035e-05
-0.000234347
-0.000341622
-0.000364451
-0.000339646
-0.000285876
-0.00023311
-0.000202653
-0.000206811
-0.00021943
-0.000206815
-0.000164143
-0.000110947
-7.15917e-05
-6.262e-05
-8.71353e-05
-0.000109448
-0.000115523
-0.000136336
-0.000199757
-0.000287075
-0.000353352
-0.000338869
-0.000216551
-6.27611e-05
-2.18846e-06
-3.64259e-05
-4.91874e-05
-3.03067e-05
-1.9015e-05
5.82536e-06
4.20168e-05
5.94832e-05
3.51171e-05
-2.74011e-05
-7.68639e-05
-6.64559e-05
2.51958e-05
0.000113391
8.13834e-05
-5.47901e-05
-0.000217318
-0.000341708
-0.000387359
-0.000365187
-0.000302218
-0.000243078
-0.000206959
-0.000206812
-0.000218222
-0.000206805
-0.000168002
-0.000113631
-6.89841e-05
-5.70494e-05
-8.38048e-05
-0.000109024
-0.000114482
-0.000134723
-0.000201211
-0.000292893
-0.000362671
-0.000352694
-0.000239346
-9.03507e-05
-2.13141e-05
-5.88227e-05
-8.42266e-05
-5.87905e-05
-3.79993e-05
-7.12954e-06
3.03354e-05
4.62169e-05
2.79672e-05
-1.85996e-05
-7.04527e-05
-5.69383e-05
2.55037e-05
0.000133776
0.000127488
-2.48442e-06
-0.000182891
-0.000330436
-0.00040136
-0.000396315
-0.000324616
-0.000256118
-0.000212928
-0.000208472
-0.000217556
-0.000204319
-0.00017136
-0.000122389
-7.75875e-05
-5.71797e-05
-7.90965e-05
-0.000107527
-0.000114508
-0.000134221
-0.000203874
-0.000300378
-0.000365992
-0.000346549
-0.000232596
-9.59893e-05
-3.4546e-05
-7.49794e-05
-0.000116176
-9.69674e-05
-6.94063e-05
-2.51599e-05
2.36852e-05
3.70734e-05
1.53169e-05
-1.67869e-05
-5.39625e-05
-3.73063e-05
2.55967e-05
0.00014012
0.000163097
5.98093e-05
-0.000128798
-0.000302592
-0.000404152
-0.000430608
-0.000352207
-0.000272259
-0.000218292
-0.000209123
-0.000217357
-0.000202073
-0.000174101
-0.000131233
-8.9655e-05
-6.73701e-05
-8.37616e-05
-0.000109787
-0.000118234
-0.000136297
-0.000208152
-0.000309135
-0.000364288
-0.000327438
-0.000207182
-8.05972e-05
-2.98084e-05
-7.93948e-05
-0.000137124
-0.000134373
-0.00011001
-5.33817e-05
8.03368e-06
3.64377e-05
1.38825e-05
-8.78877e-06
-3.08401e-05
-1.20672e-05
2.24294e-05
0.000131942
0.000171165
0.000112852
-6.08329e-05
-0.000252248
-0.000385153
-0.000436084
-0.000382536
-0.000294434
-0.000224031
-0.000207717
-0.000216438
-0.000209445
-0.000177847
-0.000140269
-0.000102815
-8.11081e-05
-9.65538e-05
-0.000123685
-0.000131043
-0.000144109
-0.000213742
-0.000313941
-0.000364722
-0.000311012
-0.00018997
-7.08604e-05
-1.64169e-05
-6.56157e-05
-0.000135853
-0.000158436
-0.000147424
-8.6268e-05
-1.92536e-05
1.69706e-05
8.5267e-06
-2.78763e-07
-6.2746e-06
8.36505e-06
2.07553e-05
0.000104958
0.000155677
0.000140014
2.77661e-06
-0.000186468
-0.000339576
-0.000423567
-0.00040669
-0.000325465
-0.000235036
-0.000207445
-0.000215081
-0.000209744
-0.000181633
-0.00014683
-0.0001147
-9.6957e-05
-0.00011358
-0.000144341
-0.000153363
-0.00015929
-0.000214656
-0.000302575
-0.000364555
-0.000299284
-0.000189189
-8.08852e-05
-2.04905e-05
-4.49676e-05
-0.000113708
-0.000152314
-0.000162181
-0.000113758
-5.51222e-05
-1.48666e-05
-6.53199e-06
4.72152e-06
1.21938e-05
2.10188e-05
1.08505e-05
7.0671e-05
0.000125933
0.000143148
4.91202e-05
-0.000120446
-0.000278068
-0.000387097
-0.000411597
-0.000363128
-0.000251561
-0.000208321
-0.000213711
-0.000211746
-0.000188429
-0.000151733
-0.000120374
-0.000104095
-0.000122873
-0.000159025
-0.000167378
-0.000164049
-0.000199986
-0.000276162
-0.000335819
-0.000278681
-0.000185099
-0.000101508
-4.18099e-05
-3.31285e-05
-8.4778e-05
-0.000126922
-0.000153329
-0.000122981
-8.52053e-05
-5.18493e-05
-3.29322e-05
2.84217e-06
2.01773e-05
2.08851e-05
6.45974e-06
3.16158e-05
8.6734e-05
0.000126647
7.18793e-05
-6.85071e-05
-0.000217702
-0.000335938
-0.000395069
-0.000363303
-0.000270757
-0.000212239
-0.000209629
-0.000211928
-0.00019972
-0.000158616
-0.000121515
-9.96854e-05
-0.000111605
-0.000145717
-0.000156598
-0.000154531
-0.000182702
-0.000262467
-0.000307476
-0.000256114
-0.000174044
-0.000113655
-5.93148e-05
-2.6525e-05
-5.93159e-05
-9.96838e-05
-0.00013984
-0.000122955
-0.000105185
-7.88397e-05
-5.63354e-05
-4.61098e-05
4.65148e-06
2.12247e-05
1.29497e-05
9.39904e-06
4.51391e-05
8.65031e-05
6.87366e-05
-3.36816e-05
-0.000164332
-0.000277644
-0.000353404
-0.000351442
-0.000273331
-0.000217823
-0.000212988
-0.000212261
-0.000211861
-0.000165195
-0.000117669
-8.87119e-05
-9.86677e-05
-0.000134392
-0.00015194
-0.00014935
-0.000180358
-0.000248728
-0.00028562
-0.000229524
-0.000155933
-0.000121814
-7.79545e-05
-2.6068e-05
-3.2809e-05
-7.59357e-05
-0.000114038
-0.000128219
-0.000115618
-9.65242e-05
-7.18327e-05
-5.46751e-05
-1.25473e-05
2.01001e-05
2.14746e-05
-6.62685e-06
6.63317e-06
3.3223e-05
3.25036e-05
-3.48485e-05
-0.000129955
-0.000210018
-0.0002713
-0.000300346
-0.000271175
-0.000230093
-0.000216754
-0.000218273
-0.000208581
-0.000166014
-0.000114461
-8.19355e-05
-9.07132e-05
-0.000124572
-0.000147107
-0.000148436
-0.000170849
-0.000222655
-0.000258845
-0.000207463
-0.0001342
-0.000108677
-8.49171e-05
-3.83726e-05
-2.30257e-05
-5.4275e-05
-9.8537e-05
-0.000123796
-0.000123509
-0.000107142
-8.1802e-05
-6.20967e-05
-2.10454e-05
1.64203e-05
2.39751e-05
-1.46884e-05
-3.18874e-05
-2.04693e-05
-2.09971e-05
-5.80975e-05
-0.000109741
-0.000141006
-0.000168892
-0.000212764
-0.000237881
-0.000233833
-0.000223946
-0.000231121
-0.000216239
-0.000170766
-0.00011208
-7.74425e-05
-8.03138e-05
-0.000115516
-0.000143737
-0.000151386
-0.000159619
-0.000199645
-0.000234683
-0.000200317
-0.000131132
-9.48185e-05
-7.76916e-05
-3.91766e-05
-2.26065e-05
-4.86489e-05
-8.9652e-05
-0.000115914
-0.000123103
-0.000113225
-8.83579e-05
-5.93474e-05
-2.13308e-05
3.60692e-06
1.07751e-05
-2.96699e-05
-6.45816e-05
-6.90586e-05
-5.54232e-05
-7.43162e-05
-0.000112354
-0.000114395
-8.76228e-05
-0.000107084
-0.000160175
-0.000206446
-0.000226139
-0.000234105
-0.000214914
-0.000187618
-0.000147952
-0.000112738
-9.38534e-05
-0.000101592
-0.000128498
-0.000150643
-0.000150371
-0.000164335
-0.000196396
-0.00019315
-0.000144591
-0.000100823
-7.26517e-05
-3.38409e-05
-1.96458e-05
-4.77901e-05
-9.74423e-05
-0.000123189
-0.000123127
-0.000111103
-9.24528e-05
-6.35507e-05
-3.13639e-05
-2.39861e-05
-2.13485e-05
-4.96034e-05
-7.70741e-05
-9.7425e-05
-9.18325e-05
-8.97842e-05
-9.96479e-05
-9.63741e-05
-9.38153e-05
-0.000101681
-0.000123857
-0.000157613
-0.000190149
-0.000203761
-0.000207734
-0.000194531
-0.000176932
-0.00016167
-0.000146339
-0.00013202
-0.000131282
-0.00013477
-0.000134463
-0.000137113
-0.000159139
-0.000174093
-0.000164239
-0.000130437
-9.05238e-05
-3.94691e-05
-1.54433e-05
-5.18001e-05
-0.000110105
-0.000141038
-0.000135344
-0.000110704
-8.23554e-05
-5.87932e-05
-3.81945e-05
-2.32695e-05
-3.18585e-05
-5.80938e-05
-7.78448e-05
-9.85805e-05
-0.000115033
-0.000127698
-0.000133279
-0.000124814
-0.000105385
-9.17614e-05
-0.000105873
-0.000140439
-0.000174369
-0.000192294
-0.00020007
-0.000204776
-0.000206553
-0.000202892
-0.000192157
-0.000174515
-0.000158837
-0.000141368
-0.000128753
-0.000130195
-0.000148852
-0.000164949
-0.000149588
-0.000125323
-8.75249e-05
-3.66061e-05
-1.68759e-05
-5.52641e-05
-0.000126566
-0.000178023
-0.000178759
-0.000145169
-9.74178e-05
-5.87476e-05
-3.46306e-05
-2.33156e-05
-5.21735e-05
-7.97419e-05
-8.81798e-05
-6.13988e-05
-6.59607e-05
-9.14268e-05
-0.000117593
-0.000130529
-0.0001242
-0.000101926
-0.00010273
-0.000131234
-0.000167522
-0.000187908
-0.000193363
-0.000200146
-0.00019833
-0.000202678
-0.000214323
-0.000216666
-0.000211722
-0.000186703
-0.000154855
-0.000131431
-0.000130616
-0.000140967
-0.000137095
-0.000114961
-8.38768e-05
-4.31069e-05
-1.81696e-05
-4.32586e-05
-0.000111823
-0.000177637
-0.000204618
-0.000187478
-0.000139498
-8.14599e-05
-3.462e-05
-4.79421e-05
-5.3205e-05
-7.73828e-05
-8.70426e-05
-7.97959e-05
-7.33416e-05
-8.2002e-05
-9.74659e-05
-0.000107929
-0.000100956
-9.83921e-05
-0.000113529
-0.000140195
-0.00016688
-0.000177509
-0.000177892
-0.000170453
-0.000167752
-0.000147655
-0.000160594
-0.000168579
-0.00017897
-0.000175751
-0.000151902
-0.000126421
-0.000126651
-0.000145417
-0.000148971
-0.000125464
-9.30961e-05
-6.83459e-05
-4.77956e-05
-5.01198e-05
-9.07274e-05
-0.000146111
-0.0001748
-0.000196988
-0.00016375
-0.000121537
-7.68746e-05
-7.59707e-05
-7.03857e-05
-8.52427e-05
-9.22734e-05
-7.69757e-05
-6.98161e-05
-8.1339e-05
-0.000105866
-0.000128631
-0.000143169
-0.000147032
-0.00015712
-0.000164606
-0.000164601
-0.000153437
-0.000144873
-0.000151097
-0.000166795
-0.00018586
-0.000174155
-0.000159545
-0.000145527
-0.000133291
-0.000123095
-0.000108463
-0.0001019
-0.000110965
-0.000124418
-0.000127627
-0.000120248
-0.000105393
-8.35658e-05
-7.28987e-05
-9.05203e-05
-0.000132501
-0.000174038
-0.000188194
-0.000177487
-0.000146631
-0.000107958
-0.000106168
-9.14153e-05
-8.99053e-05
-0.000114238
-8.139e-05
-7.36736e-05
-8.69554e-05
-0.000117956
-0.000150205
-0.00017231
-0.000187837
-0.000203056
-0.000199367
-0.000184211
-0.000160499
-0.000144203
-0.00014751
-0.000159452
-0.000160094
-0.00014561
-0.000143093
-0.000138059
-0.000119787
-8.9223e-05
-6.55523e-05
-5.8457e-05
-7.66939e-05
-0.000111813
-0.000143503
-0.000153953
-0.000146922
-0.0001296
-0.000102834
-9.53198e-05
-0.000114115
-0.00014526
-0.000168604
-0.000174773
-0.000157088
-0.000131774
8.09039e-06
-9.09139e-06
-2.32679e-05
-4.62471e-05
-8.39639e-05
-0.000132687
-0.000185162
-0.000227397
-0.000248269
-0.000236906
-0.000204848
-0.000184454
-0.000197023
-0.000219577
-0.000214717
-0.000175163
-0.00012763
-9.78776e-05
-9.60179e-05
-0.000113152
-0.000122902
-0.000122766
-0.000138566
-0.00018012
-0.000226151
-0.000255733
-0.000243077
-0.000172155
-7.2852e-05
-8.69314e-06
2.85378e-05
5.30587e-05
5.77129e-05
4.91507e-05
4.78388e-05
6.37273e-05
7.80858e-05
6.8107e-05
4.98257e-05
3.50726e-05
9.24887e-06
-7.64024e-06
-2.04624e-05
-4.29578e-05
-8.07317e-05
-0.000129875
-0.000183241
-0.000226217
-0.000247821
-0.000237212
-0.000205298
-0.000184644
-0.000197023
-0.000219764
-0.000215258
-0.000175789
-0.000128118
-9.82848e-05
-9.64542e-05
-0.000113751
-0.000123582
-0.000123214
-0.000138772
-0.000180174
-0.00022619
-0.000256213
-0.000244172
-0.000174215
-7.52915e-05
-1.12411e-05
2.58203e-05
5.0341e-05
5.47841e-05
4.54512e-05
4.3374e-05
5.9234e-05
7.47937e-05
6.62855e-05
4.90183e-05
3.56942e-05
1.19333e-05
-4.77073e-06
-1.72127e-05
-4.00169e-05
-7.86222e-05
-0.000128821
-0.00018354
-0.000226885
-0.000249082
-0.000238803
-0.00020646
-0.000185044
-0.000197255
-0.000220669
-0.000216815
-0.000177149
-0.00012893
-9.87407e-05
-9.68578e-05
-0.000114403
-0.000124239
-0.000123265
-0.000138585
-0.000180195
-0.000226565
-0.000257412
-0.000245996
-0.000176769
-7.7519e-05
-1.34357e-05
2.35257e-05
4.83779e-05
5.30006e-05
4.28464e-05
3.90289e-05
5.36051e-05
7.04303e-05
6.45054e-05
4.92569e-05
3.78867e-05
1.68778e-05
-2.0147e-07
-1.33099e-05
-3.77835e-05
-7.85074e-05
-0.000130717
-0.000185911
-0.000230591
-0.000252773
-0.000242068
-0.00020852
-0.000185864
-0.000198061
-0.000222737
-0.000219924
-0.000179933
-0.000130609
-9.96309e-05
-9.74766e-05
-0.000115313
-0.000125003
-0.000123012
-0.000137952
-0.000180253
-0.000227399
-0.00025959
-0.000248428
-0.00017935
-7.86377e-05
-1.43506e-05
2.24473e-05
4.78469e-05
5.29409e-05
4.21495e-05
3.6142e-05
4.79826e-05
6.52599e-05
6.23875e-05
5.10815e-05
4.18787e-05
2.45906e-05
6.6298e-06
-8.25493e-06
-3.52546e-05
-8.043e-05
-0.000135815
-0.000191813
-0.000237552
-0.000258899
-0.000246934
-0.000211448
-0.000187169
-0.000199486
-0.00022581
-0.000224564
-0.000184354
-0.000133967
-0.000101922
-9.90462e-05
-0.000117064
-0.000126419
-0.000122807
-0.000137051
-0.000180623
-0.000228972
-0.000261656
-0.000251971
-0.000182778
-7.92138e-05
-1.26028e-05
2.28316e-05
4.86365e-05
5.41549e-05
4.32054e-05
3.58325e-05
4.39257e-05
5.9787e-05
5.89637e-05
5.04691e-05
4.74476e-05
3.55e-05
1.6801e-05
-6.63409e-07
-3.2092e-05
-8.36895e-05
-0.000143724
-0.000200866
-0.000247678
-0.000267326
-0.000253213
-0.000215104
-0.0001889
-0.000201275
-0.000229009
-0.000229239
-0.000189404
-0.000138897
-0.000106307
-0.000102389
-0.000120281
-0.000129041
-0.000123092
-0.000136201
-0.000181539
-0.000231842
-0.000265571
-0.000258942
-0.000190982
-8.34611e-05
-1.26411e-05
2.37897e-05
5.02735e-05
5.53933e-05
4.46364e-05
3.80778e-05
4.304e-05
5.52614e-05
5.40952e-05
4.82824e-05
5.3766e-05
4.93502e-05
3.20539e-05
1.19752e-05
-2.56493e-05
-8.60948e-05
-0.000153363
-0.000210098
-0.000260443
-0.000277984
-0.000261119
-0.000219534
-0.000190852
-0.000202959
-0.000231226
-0.000232421
-0.0001933
-0.000143555
-0.000111539
-0.000107198
-0.000125105
-0.00013305
-0.000123982
-0.000135268
-0.000182789
-0.000236114
-0.000273196
-0.000273496
-0.000211482
-0.000100281
-2.37039e-05
1.81951e-05
5.0041e-05
5.42535e-05
4.2361e-05
3.98387e-05
4.5086e-05
5.29864e-05