/*--------------------------------*- C++ -*----------------------------------*\
| =========                 |                                                 |
| \\      /  F ield         | OpenFOAM: The Open Source CFD Toolbox           |
|  \\    /   O peration     | Version:  2306                                  |
|   \\  /    A nd           | Website:  www.openfoam.com                      |
|    \\/     M anipulation  |                                                 |
\*---------------------------------------------------------------------------*/
FoamFile
{
    version     2.0;
    format      ascii;
    arch        "LSB;label=32;scalar=64";
    class       volScalarField;
    location    "6.5";
    object      pMean;
}
// * * * * * * * * * * * * * * * * * * * * * * * * * * * * * * * * * * * * * //

dimensions      [0 2 -2 0 0 0 0];

internalField   nonuniform List<scalar> 
60000
(
4.10732e-06
3.48608e-06
6.27906e-06
1.35549e-05
2.7086e-05
4.14033e-05
4.76742e-05
4.35452e-05
3.67637e-05
3.8504e-05
5.20044e-05
7.15688e-05
9.02218e-05
0.000104767
0.000113305
0.000111936
9.72507e-05
7.00847e-05
3.65419e-05
4.82173e-06
-1.85341e-05
-3.10127e-05
-3.15005e-05
-1.89197e-05
5.32602e-06
3.61058e-05
6.82749e-05
9.6848e-05
0.000115858
0.000124982
0.000130919
0.000140744
0.00015426
0.000162604
0.000157704
0.00013934
0.000109696
7.22316e-05
3.66747e-05
1.32798e-05
3.85499e-06
2.76095e-06
5.23662e-06
1.23059e-05
2.57529e-05
4.01347e-05
4.64933e-05
4.23398e-05
3.54298e-05
3.70384e-05
5.05712e-05
7.03078e-05
8.91818e-05
0.00010398
0.000112818
0.000111784
9.73904e-05
7.04264e-05
3.69731e-05
5.24163e-06
-1.82129e-05
-3.08792e-05
-3.17254e-05
-1.96388e-05
4.10136e-06
3.4484e-05
6.64671e-05
9.51219e-05
0.000114429
0.000123923
0.000130225
0.000140453
0.000154481
0.000163399
0.000158983
0.000140996
0.00011154
7.39044e-05
3.78193e-05
1.3691e-05
2.00768e-06
5.78106e-07
2.85665e-06
9.83122e-06
2.34196e-05
3.82727e-05
4.51602e-05
4.11835e-05
3.39769e-05
3.52214e-05
4.87382e-05
6.87291e-05
8.78907e-05
0.000103006
0.00011227
0.000111723
9.77216e-05
7.09191e-05
3.73869e-05
5.43144e-06
-1.82974e-05
-3.12656e-05
-3.25171e-05
-2.08387e-05
2.56104e-06
3.26231e-05
6.42403e-05
9.27442e-05
0.000112176
0.000121937
0.000128571
0.000139316
0.000154109
0.000163789
0.000159838
0.000142039
0.000112556
7.44839e-05
3.75448e-05
1.24876e-05
-1.4858e-06
-3.15691e-06
-1.01012e-06
5.91947e-06
1.98131e-05
3.55097e-05
4.34e-05
3.99441e-05
3.24735e-05
3.31353e-05
4.65127e-05
6.68612e-05
8.64525e-05
0.000101976
0.000111767
0.000111842
9.83612e-05
7.16964e-05
3.78907e-05
5.49467e-06
-1.86747e-05
-3.20527e-05
-3.37242e-05
-2.23248e-05
9.60215e-07
3.08254e-05
6.1923e-05
8.99142e-05
0.000109101
0.000118876
0.000125763
0.000137187
0.000153075
0.000163784
0.000160259
0.000142384
0.000112601
7.38297e-05
3.57695e-05
9.60433e-06
-5.85035e-06
-7.92326e-06
-6.14698e-06
6.38556e-07
1.47914e-05
3.14767e-05
4.08742e-05
3.86134e-05
3.13448e-05
3.13516e-05
4.42901e-05
6.49095e-05
8.5033e-05
0.000101021
0.000111337
0.000112091
9.9245e-05
7.28279e-05
3.86824e-05
5.64722e-06
-1.91581e-05
-3.31796e-05
-3.55208e-05
-2.45192e-05
-1.35584e-06
2.83909e-05
5.89487e-05
8.63754e-05
0.000105358
0.000115149
0.000122198
0.000134332
0.000151667
0.000163799
0.000160853
0.000142869
0.000112593
7.29282e-05
3.35163e-05
6.01938e-06
-1.08408e-05
-1.35757e-05
-1.25852e-05
-6.76427e-06
7.90647e-06
2.58073e-05
3.70801e-05
3.68992e-05
3.07775e-05
3.05429e-05
4.28107e-05
6.34168e-05
8.40661e-05
0.000100555
0.000111292
0.0001126
0.000100426
7.43587e-05
3.97922e-05
5.77996e-06
-2.01658e-05
-3.54254e-05
-3.9304e-05
-2.9819e-05
-7.44406e-06
2.21869e-05
5.25729e-05
7.98266e-05
9.94472e-05
0.000110726
0.000118779
0.000131627
0.00015057
0.000164586
0.000162609
0.000144847
0.000114356
7.33683e-05
3.17567e-05
2.29313e-06
-1.55344e-05
-1.92306e-05
-1.93861e-05
-1.59011e-05
-2.85735e-06
1.63839e-05
3.06358e-05
3.36802e-05
3.01685e-05
3.08269e-05
4.26914e-05
6.30939e-05
8.42119e-05
0.000101213
0.000112217
0.000113767
0.000102044
7.63109e-05
4.12408e-05
5.74609e-06
-2.20956e-05
-3.92732e-05
-4.52454e-05
-3.81867e-05
-1.79269e-05
1.07689e-05
4.10342e-05
6.83412e-05
8.92406e-05
0.000103304
0.000114782
0.000129925
0.000150685
0.000166587
0.000165965
0.000149141
0.000119472
7.79484e-05
3.34326e-05
5.81879e-08
-1.96285e-05
-2.4855e-05
-2.57586e-05
-2.51458e-05
-1.57709e-05
2.74943e-06
1.98304e-05
2.72657e-05
2.73281e-05
2.98835e-05
4.27029e-05
6.37083e-05
8.57543e-05
0.000103656
0.00011493
0.000116261
0.000104471
7.87402e-05
4.30578e-05
5.8237e-06
-2.42295e-05
-4.28929e-05
-4.95199e-05
-4.33156e-05
-2.47107e-05
2.01538e-06
3.07682e-05
5.68546e-05
7.7297e-05
9.22731e-05
0.000106554
0.000125861
0.000150413
0.000168867
0.000169549
0.000154091
0.000126788
8.63672e-05
3.90396e-05
3.48048e-07
-2.21269e-05
-3.02923e-05
-3.20259e-05
-3.4309e-05
-2.97241e-05
-1.37423e-05
5.42381e-06
1.75117e-05
2.22611e-05
2.66452e-05
3.94737e-05
6.15574e-05
8.5705e-05
0.000105718
0.000118483
0.00012043
0.000108447
8.20404e-05
4.5466e-05
7.05424e-06
-2.3857e-05
-4.19205e-05
-4.62742e-05
-3.77952e-05
-1.89122e-05
5.55249e-06
3.05263e-05
5.22599e-05
6.87924e-05
8.10845e-05
9.44705e-05
0.000115525
0.000144309
0.000166475
0.000168519
0.000154031
0.000130454
9.48182e-05
4.7929e-05
4.16128e-06
-1.95194e-05
-3.28639e-05
-3.66185e-05
-4.19995e-05
-4.34137e-05
-3.17384e-05
-1.20885e-05
4.88565e-06
1.47703e-05
2.18738e-05
3.36725e-05
5.45154e-05
7.97913e-05
0.000102318
0.000117097
0.000120893
0.000110889
8.57863e-05
4.85094e-05
9.33889e-06
-2.0747e-05
-3.55368e-05
-3.42849e-05
-1.99069e-05
1.942e-06
2.51016e-05
4.51381e-05
5.9476e-05
6.74607e-05
7.17454e-05
8.01101e-05
0.00010074
0.000132875
0.000159493
0.000163765
0.000150022
0.000130137
0.000101521
5.93599e-05
1.35126e-05
-7.97151e-06
-2.85992e-05
-3.58951e-05
-4.43907e-05
-5.21858e-05
-4.73008e-05
-2.97034e-05
-9.57895e-06
6.03789e-06
1.67943e-05
2.76332e-05
4.5066e-05
6.78476e-05
9.02852e-05
0.000106744
0.000112734
0.000105849
8.48329e-05
5.04163e-05
1.21538e-05
-1.64359e-05
-2.70014e-05
-1.80843e-05
4.77688e-06
3.26202e-05
5.66564e-05
7.26438e-05
7.89121e-05
7.5799e-05
6.73595e-05
6.56664e-05
8.23913e-05
0.000116248
0.00014825
0.000157191
0.000146971
0.000131968
0.000111716
7.65847e-05
3.15436e-05
1.56874e-05
-1.53763e-05
-2.85258e-05
-3.96247e-05
-5.23962e-05
-5.52732e-05
-4.35609e-05
-2.35007e-05
-3.11626e-06
1.2667e-05
2.46747e-05
3.89109e-05
5.69924e-05
7.5045e-05
8.87378e-05
9.45037e-05
9.035e-05
7.41952e-05
4.56614e-05
1.26219e-05
-1.1597e-05
-1.69515e-05
-9.02648e-07
3.05931e-05
6.52215e-05
9.11639e-05
0.000104366
0.000105371
9.36577e-05
7.30687e-05
5.89742e-05
6.81035e-05
0.000100961
0.000136522
0.00015167
0.000147796
0.000139183
0.000127704
0.000101919
6.01335e-05
4.4095e-05
4.92561e-06
-1.59745e-05
-2.87355e-05
-4.41324e-05
-5.38276e-05
-4.98784e-05
-3.37867e-05
-1.2546e-05
7.62079e-06
2.23778e-05
3.59408e-05
5.06356e-05
6.36246e-05
7.17737e-05
7.35868e-05
6.92854e-05
5.66911e-05
3.4561e-05
9.21194e-06
-6.35186e-06
-4.67796e-06
1.68152e-05
5.37781e-05
9.22365e-05
0.000119176
0.000130759
0.000129476
0.000115898
8.95545e-05
6.63677e-05
6.6093e-05
9.27211e-05
0.000127315
0.000148275
0.00015162
0.000148439
0.000142293
0.000125803
9.0713e-05
6.88109e-05
2.76291e-05
1.69381e-06
-1.12655e-05
-2.6629e-05
-4.13464e-05
-4.56705e-05
-3.65213e-05
-1.82582e-05
2.80826e-06
2.00436e-05
3.39331e-05
4.70659e-05
5.71013e-05
6.15052e-05
6.07877e-05
5.53041e-05
4.37788e-05
2.58091e-05
6.03892e-06
-4.53088e-06
2.28835e-06
2.48921e-05
6.25102e-05
0.000103453
0.000132672
0.000145201
0.000143521
0.000130817
0.000106702
8.23103e-05
7.56818e-05
9.38666e-05
0.000123084
0.000144957
0.000153574
0.000154229
0.00015035
0.000138872
0.000110913
8.91522e-05
5.28913e-05
2.75594e-05
1.46708e-05
3.58709e-07
-1.85534e-05
-3.10736e-05
-3.0423e-05
-1.7911e-05
6.23593e-07
1.80695e-05
3.22119e-05
4.47233e-05
5.49392e-05
6.01026e-05
6.00163e-05
5.53491e-05
4.49585e-05
2.7791e-05
9.24154e-06
-8.95028e-08
5.74699e-06
2.49395e-05
5.90093e-05
0.000100729
0.000134021
0.000148055
0.000146094
0.000134729
0.000114944
9.28564e-05
8.43027e-05
9.61054e-05
0.000118487
0.000139207
0.00015095
0.000153352
0.000149126
0.000140487
0.000121772
0.000105301
7.6546e-05
5.43159e-05
4.15345e-05
2.89673e-05
8.67732e-06
-1.05435e-05
-1.8578e-05
-1.30417e-05
9.60548e-07
1.62508e-05
2.95518e-05
4.15005e-05
5.28903e-05
6.05056e-05
6.26537e-05
5.92531e-05
4.96885e-05
3.32588e-05
1.58408e-05
7.76222e-06
1.36154e-05
2.99955e-05
5.76673e-05
9.54097e-05
0.000129754
0.00014501
0.000141477
0.000130034
0.000114027
9.53392e-05
8.53764e-05
9.16555e-05
0.000109369
0.000129033
0.000142598
0.000147411
0.000145186
0.000139694
0.00012819
0.000115777
9.20562e-05
7.21006e-05
6.02551e-05
4.92355e-05
3.18772e-05
1.16713e-05
-2.50608e-06
-4.72866e-06
2.51575e-06
1.38996e-05
2.54701e-05
3.7114e-05
4.91584e-05
5.88033e-05
6.33846e-05
6.13547e-05
5.26366e-05
3.78257e-05
2.31168e-05
1.92031e-05
2.78144e-05
4.3244e-05
6.38751e-05
9.20921e-05
0.000122017
0.00013785
0.000134942
0.000122949
0.000110135
9.63408e-05
8.73871e-05
8.92697e-05
0.000100496
0.000117129
0.000131546
0.000138556
0.000139346
0.000137329
0.000131839
0.000114501
9.55431e-05
7.86895e-05
6.94148e-05
6.27472e-05
5.0215e-05
3.20994e-05
1.53078e-05
5.12849e-06
3.25312e-06
8.50065e-06
1.87994e-05
3.27215e-05
4.77462e-05
5.95774e-05
6.52376e-05
6.3894e-05
5.68143e-05
4.47598e-05
3.16605e-05
2.69147e-05
3.468e-05
4.94296e-05
6.64789e-05
8.77156e-05
0.00011274
0.000128794
0.00012673
0.000113946
0.000101549
9.15194e-05
8.6875e-05
8.98125e-05
0.000100082
0.00011541
0.000129992
0.000137094
0.000135344
0.000130988
0.000125589
0.000103203
8.62923e-05
7.24069e-05
6.66933e-05
6.51101e-05
5.94608e-05
4.62687e-05
2.99247e-05
1.59026e-05
5.53026e-06
4.37884e-07
3.74552e-06
1.6816e-05
3.50703e-05
5.14122e-05
6.11321e-05
6.41752e-05
6.2723e-05
5.77672e-05
5.01931e-05
4.43158e-05
4.72812e-05
5.81888e-05
7.20221e-05
8.84775e-05
0.000108539
0.000122552
0.000121628
0.000109137
9.7445e-05
8.80852e-05
8.27155e-05
8.41313e-05
9.50254e-05
0.000112485
0.000127806
0.000133694
0.000130129
0.000122508
0.000114751
8.32022e-05
6.9091e-05
5.74021e-05
5.17604e-05
5.04748e-05
4.87966e-05
4.25496e-05
3.25271e-05
2.05878e-05
8.90643e-06
3.90743e-07
-2.44922e-06
2.43798e-06
1.4342e-05
2.77604e-05
3.78724e-05
4.39093e-05
4.84015e-05
5.21762e-05
5.30495e-05
5.2188e-05
5.45738e-05
6.23592e-05
7.30648e-05
8.48014e-05
9.77242e-05
0.000106492
0.000104568
9.58862e-05
8.63814e-05
7.98274e-05
7.29565e-05
7.15761e-05
8.07064e-05
9.70945e-05
0.00011223
0.000119099
0.000116532
0.000107278
9.56234e-05
7.59816e-05
5.97896e-05
4.69674e-05
3.96768e-05
3.52349e-05
3.26596e-05
3.04504e-05
2.67961e-05
2.0466e-05
1.1319e-05
4.77211e-07
-7.68148e-06
-9.13024e-06
-3.14126e-06
7.23352e-06
1.71045e-05
2.44207e-05
3.1016e-05
3.86845e-05
4.45313e-05
4.68844e-05
5.09401e-05
6.00002e-05
7.17005e-05
8.26869e-05
9.20739e-05
9.6328e-05
9.2077e-05
8.02451e-05
6.71259e-05
5.71304e-05
4.79327e-05
4.4284e-05
5.20225e-05
6.96974e-05
9.08348e-05
0.000105994
0.000110483
0.000104473
9.20315e-05
9.00784e-05
7.36293e-05
6.15569e-05
5.52494e-05
4.88766e-05
4.02227e-05
3.15284e-05
2.48305e-05
1.92141e-05
1.33158e-05
5.5048e-06
-2.72399e-06
-7.68655e-06
-6.6362e-06
-7.62007e-07
7.44169e-06
1.49893e-05
2.20038e-05
2.96952e-05
3.74493e-05
4.48892e-05
5.28725e-05
6.36881e-05
7.63091e-05
8.75342e-05
9.5779e-05
9.93441e-05
9.377e-05
7.98038e-05
6.36278e-05
5.12652e-05
3.80801e-05
2.93294e-05
3.2117e-05
4.75719e-05
7.04836e-05
9.37178e-05
0.000109262
0.000113514
0.00010568
9.17605e-05
7.74223e-05
6.43282e-05
5.61858e-05
5.07307e-05
4.35919e-05
3.59711e-05
2.81959e-05
2.01731e-05
1.2647e-05
7.1841e-06
3.69455e-06
2.94454e-06
5.40723e-06
1.01853e-05
1.68229e-05
2.47928e-05
3.31006e-05
4.06828e-05
4.73718e-05
5.36191e-05
6.02873e-05
6.94056e-05
7.98823e-05
8.85161e-05
9.40209e-05
9.62305e-05
9.25841e-05
8.12104e-05
6.72654e-05
5.75031e-05
5.00684e-05
4.3483e-05
4.33326e-05
5.1747e-05
6.63752e-05
8.2565e-05
9.55139e-05
0.000102682
0.000101567
8.35717e-05
6.86133e-05
5.38055e-05
4.28338e-05
3.52679e-05
2.8023e-05
2.17629e-05
1.75049e-05
1.5702e-05
1.55685e-05
1.62109e-05
1.73049e-05
1.86675e-05
2.0255e-05
2.24105e-05
2.51918e-05
3.03416e-05
3.77892e-05
4.67999e-05
5.63191e-05
6.52668e-05
7.11234e-05
7.47931e-05
7.88218e-05
8.20977e-05
8.30483e-05
8.16548e-05
7.70867e-05
6.84803e-05
5.84233e-05
5.0899e-05
4.623e-05
4.31772e-05
4.2537e-05
4.69126e-05
5.65065e-05
6.91328e-05
8.15251e-05
9.05541e-05
9.1948e-05
7.40401e-05
5.90952e-05
4.24862e-05
2.96222e-05
2.21526e-05
1.64866e-05
1.12191e-05
7.49607e-06
7.01331e-06
8.22716e-06
1.12766e-05
1.57438e-05
2.09593e-05
2.58355e-05
2.98402e-05
3.40741e-05
4.07495e-05
5.18603e-05
6.47984e-05
7.55162e-05
8.19184e-05
8.44039e-05
8.38442e-05
8.02105e-05
7.4271e-05
6.70773e-05
6.02246e-05
5.45621e-05
4.9524e-05
4.5299e-05
4.20624e-05
4.16096e-05
4.29134e-05
4.30488e-05
4.58796e-05
5.2581e-05
6.23881e-05
7.36603e-05
8.12778e-05
8.17957e-05
3.01061e-05
1.47574e-08
-2.49776e-05
-3.93854e-05
-3.87653e-05
-2.70364e-05
-1.37988e-05
-5.29439e-06
-2.10435e-07
7.64745e-06
2.0879e-05
3.66402e-05
5.16448e-05
6.47395e-05
7.50576e-05
7.92002e-05
7.30891e-05
5.60584e-05
3.19027e-05
8.61068e-06
-6.53539e-06
-1.05978e-05
-3.25097e-06
1.70716e-05
5.16106e-05
9.70183e-05
0.000144722
0.00018236
0.000201086
0.000205488
0.000207857
0.000214172
0.000222309
0.000226854
0.000223642
0.000211508
0.000187479
0.000150109
0.000105957
6.46729e-05
3.1667e-05
1.11201e-06
-2.44958e-05
-3.95523e-05
-3.94083e-05
-2.79866e-05
-1.49033e-05
-6.49792e-06
-1.48676e-06
6.36982e-06
1.96898e-05
3.5543e-05
5.06342e-05
6.38399e-05
7.43323e-05
7.86794e-05
7.28011e-05
5.59746e-05
3.18968e-05
8.48494e-06
-6.99491e-06
-1.15932e-05
-4.91302e-06
1.46702e-05
4.85418e-05
9.35857e-05
0.000141362
0.000179421
0.000198598
0.000203275
0.000205862
0.000212497
0.000221036
0.000226083
0.000223497
0.000212086
0.000188805
0.000151957
0.000107976
6.65472e-05
3.25124e-05
1.30897e-06
-2.51703e-05
-4.10413e-05
-4.13721e-05
-2.99961e-05
-1.67453e-05
-8.21797e-06
-3.2455e-06
4.57533e-06
1.79699e-05
3.3938e-05
4.91146e-05
6.24528e-05
7.31902e-05
7.7888e-05
7.23966e-05
5.5888e-05
3.19073e-05
8.32154e-06
-7.52514e-06
-1.26468e-05
-6.5433e-06
1.24004e-05
4.5716e-05
9.05559e-05
0.00013858
0.000177118
0.000196542
0.000201113
0.000203611
0.000210538
0.000219607
0.000225235
0.000223315
0.000212809
0.000190474
0.000154062
0.000109866
6.79327e-05
3.2174e-05
1.09023e-07
-2.75608e-05
-4.45547e-05
-4.5432e-05
-3.37758e-05
-1.9782e-05
-1.06237e-05
-5.45244e-06
2.3499e-06
1.57877e-05
3.18452e-05
4.70798e-05
6.05444e-05
7.1602e-05
7.67998e-05
7.18415e-05
5.57773e-05
3.19452e-05
8.22753e-06
-7.85377e-06
-1.32917e-05
-7.46985e-06
1.11549e-05
4.41752e-05
8.89758e-05
0.000137294
0.000176168
0.000195427
0.000199323
0.000201241
0.000208267
0.000217909
0.000224204
0.000222928
0.000213413
0.000192175
0.000156093
0.000111246
6.83671e-05
3.06924e-05
-2.44753e-06
-3.17095e-05
-5.0389e-05
-5.20971e-05
-3.98865e-05
-2.43486e-05
-1.35903e-05
-7.58186e-06
2.70964e-07
1.35598e-05
2.95727e-05
4.48127e-05
5.83272e-05
6.96318e-05
7.53361e-05
7.09974e-05
5.54665e-05
3.18751e-05
8.11082e-06
-8.08329e-06
-1.3679e-05
-7.9676e-06
1.05593e-05
4.35028e-05
8.83085e-05
0.000136872
0.000175994
0.000194959
0.000197958
0.000199016
0.0002058
0.000215755
0.000222658
0.000221937
0.000213342
0.000193368
0.000157716
0.000112046
6.78668e-05
2.88605e-05
-5.56731e-06
-3.71731e-05
-5.84062e-05
-6.1808e-05
-4.91722e-05
-3.12985e-05
-1.75472e-05
-9.41589e-06
-8.86332e-07
1.21656e-05
2.78696e-05
4.30327e-05
5.65512e-05
6.78977e-05
7.38352e-05
6.99772e-05
5.50008e-05
3.16837e-05
7.80629e-06
-8.68293e-06
-1.48066e-05
-9.79909e-06
7.91145e-06
3.99563e-05
8.43049e-05
0.000133205
0.000173184
0.000192806
0.000195928
0.000196952
0.000203606
0.000213378
0.0002204
0.00022
0.000212176
0.000193638
0.000158891
0.000112555
6.6968e-05
2.91463e-05
-6.23461e-06
-4.07958e-05
-6.6473e-05
-7.35987e-05
-6.20257e-05
-4.18537e-05
-2.40238e-05
-1.22312e-05
-1.70748e-06
1.17745e-05
2.72516e-05
4.23722e-05
5.60441e-05
6.73737e-05
7.31912e-05
6.9359e-05
5.46314e-05
3.13555e-05
6.82353e-06
-1.09999e-05
-1.8988e-05
-1.62602e-05
-1.14316e-06
2.82884e-05
7.08943e-05
0.000120036
0.000162097
0.000184161
0.000189453
0.0001926
0.000200847
0.000210689
0.000217239
0.000216514
0.000209354
0.000192835
0.000160122
0.000114349
6.79389e-05
3.50546e-05
-7.00718e-07
-3.81518e-05
-6.96541e-05
-8.32156e-05
-7.57142e-05
-5.53759e-05
-3.35827e-05
-1.74629e-05
-4.55956e-06
9.89077e-06
2.58052e-05
4.14782e-05
5.59452e-05
6.78697e-05
7.38809e-05
6.98536e-05
5.48275e-05
3.09288e-05
4.71391e-06
-1.60897e-05
-2.78426e-05
-2.90265e-05
-1.79382e-05
7.65742e-06
4.80689e-05
9.69817e-05
0.000141336
0.000167125
0.000175636
0.000182267
0.000194216
0.000205689
0.000212012
0.000210606
0.000204154
0.000190896
0.000162353
0.000119444
7.38525e-05
4.81494e-05
1.22601e-05
-2.75068e-05
-6.5525e-05
-8.75605e-05
-8.71168e-05
-6.93312e-05
-4.53273e-05
-2.48076e-05
-9.18928e-06
5.9316e-06
2.21571e-05
3.851e-05
5.38107e-05
6.6563e-05
7.34939e-05
7.04912e-05
5.56664e-05
3.0734e-05
2.00654e-06
-2.25931e-05
-3.86331e-05
-4.35139e-05
-3.52519e-05
-1.22892e-05
2.58629e-05
7.29205e-05
0.00011681
0.000144688
0.000156535
0.000166019
0.000181496
0.00019595
0.000203571
0.000201822
0.000195951
0.000187924
0.000167561
0.000130703
8.70231e-05
6.73061e-05
3.0193e-05
-1.10589e-05
-5.4904e-05
-8.64143e-05
-9.49731e-05
-8.20531e-05
-5.84698e-05
-3.43986e-05
-1.54242e-05
7.43335e-07
1.68101e-05
3.29202e-05
4.85945e-05
6.1728e-05
6.93339e-05
6.79038e-05
5.46975e-05
3.02344e-05
2.77447e-07
-2.67928e-05
-4.56288e-05
-5.25507e-05
-4.50319e-05
-2.25796e-05
1.40543e-05
5.78209e-05
9.69159e-05
0.000122026
0.000134778
0.000146396
0.00016458
0.000182995
0.000194407
0.000194985
0.000189924
0.000185896
0.000175007
0.000147186
0.000107034
8.95407e-05
4.92302e-05
6.90669e-06
-3.97863e-05
-7.92372e-05
-9.75015e-05
-9.14767e-05
-7.00085e-05
-4.42637e-05
-2.17181e-05
-4.05195e-06
1.13426e-05
2.59838e-05
4.02645e-05
5.25174e-05
6.02779e-05
6.04561e-05
4.92024e-05
2.62427e-05
-2.49533e-06
-2.85695e-05
-4.6916e-05
-5.30287e-05
-4.34955e-05
-1.93407e-05
1.64006e-05
5.58591e-05
8.72543e-05
0.000105352
0.00011466
0.000125937
0.00014575
0.000168702
0.000186968
0.000194202
0.000192966
0.000192531
0.000189122
0.000169377
0.000132003
0.000112507
6.77935e-05
2.4304e-05
-2.25762e-05
-6.59828e-05
-9.28638e-05
-9.51377e-05
-7.88837e-05
-5.36864e-05
-2.90148e-05
-9.15637e-06
6.40038e-06
1.91072e-05
3.06082e-05
4.03395e-05
4.71437e-05
4.8371e-05
3.92465e-05
1.80727e-05
-8.83731e-06
-3.13291e-05
-4.51885e-05
-4.76014e-05
-3.45708e-05
-7.64041e-06
2.77077e-05
6.30178e-05
8.66926e-05
9.73836e-05
0.000101619
0.00010937
0.000127507
0.000152308
0.000176468
0.000191854
0.000197561
0.000202311
0.000205613
0.000193566
0.000158679
0.000131999
8.43593e-05
4.10024e-05
-4.03946e-06
-4.76119e-05
-8.04619e-05
-9.17804e-05
-8.32613e-05
-6.29283e-05
-3.84065e-05
-1.55164e-05
1.88827e-06
1.44537e-05
2.40083e-05
3.08324e-05
3.50921e-05
3.56579e-05
2.76645e-05
8.09824e-06
-1.69464e-05
-3.57872e-05
-4.45907e-05
-4.20482e-05
-2.64029e-05
2.03118e-06
3.8509e-05
7.01566e-05
8.8623e-05
9.48388e-05
9.66162e-05
0.000100197
0.000114271
0.000137103
0.000163181
0.000184135
0.000196582
0.000206767
0.000215871
0.000210681
0.000179507
0.000144062
9.80193e-05
5.77321e-05
1.6812e-05
-2.46046e-05
-6.11226e-05
-8.03472e-05
-8.02242e-05
-6.67305e-05
-4.54461e-05
-2.12266e-05
-3.89243e-07
1.36121e-05
2.28228e-05
2.81332e-05
3.06865e-05
3.03536e-05
2.3127e-05
5.93084e-06
-1.59875e-05
-3.08945e-05
-3.60487e-05
-3.22269e-05
-1.70552e-05
1.09248e-05
4.77561e-05
7.67442e-05
9.2047e-05
9.61754e-05
9.7013e-05
9.75184e-05
0.000106382
0.000124613
0.000148353
0.00017026
0.000186191
0.000199784
0.000212953
0.000213688
0.000188221
0.00014972
0.0001098
7.41571e-05
3.89555e-05
5.99013e-07
-3.78817e-05
-6.34809e-05
-7.09411e-05
-6.42919e-05
-4.71559e-05
-2.35624e-05
-2.33264e-07
1.6279e-05
2.7025e-05
3.39666e-05
3.73503e-05
3.63701e-05
2.85261e-05
1.22115e-05
-7.29072e-06
-1.99244e-05
-2.34218e-05
-2.01001e-05
-6.6654e-06
2.15197e-05
5.80927e-05
8.66935e-05
9.94888e-05
0.000101194
9.98879e-05
9.7717e-05
0.000102032
0.000115052
0.000133983
0.000154053
0.000170754
0.000184121
0.000196003
0.000200058
0.000184855
0.000154991
0.000122394
9.10169e-05
6.063e-05
2.63858e-05
-1.13953e-05
-4.21228e-05
-5.7114e-05
-5.70451e-05
-4.4676e-05
-2.29291e-05
7.67598e-07
1.91434e-05
3.23096e-05
4.1128e-05
4.53419e-05
4.41097e-05
3.34505e-05
1.47072e-05
-4.93181e-06
-1.49955e-05
-1.46997e-05
-8.71519e-06
4.52335e-06
3.21552e-05
6.96565e-05
9.81392e-05
0.00010724
0.000105424
0.000102429
9.88983e-05
9.8926e-05
0.000107234
0.000123214
0.000142889
0.000160645
0.000173773
0.000182901
0.000186825
0.000179384
0.000157744
0.000131069
0.000104257
7.87239e-05
4.99054e-05
1.69358e-05
-1.31595e-05
-3.35333e-05
-4.10193e-05
-3.82975e-05
-2.49907e-05
-3.87563e-06
1.70684e-05
3.43639e-05
4.68538e-05
5.31968e-05
5.25953e-05
4.27035e-05
2.3746e-05
4.7276e-06
-4.03001e-06
-9.51058e-07
7.87008e-06
2.12127e-05
4.5407e-05
7.96091e-05
0.000106012
0.000112852
0.000107436
0.000102304
9.91411e-05
9.88091e-05
0.000104613
0.000117772
0.000136414
0.000154117
0.000166103
0.000173051
0.000177471
0.000174769
0.000151089
0.000130817
0.000109045
8.97521e-05
6.82269e-05
4.38863e-05
1.92978e-05
-2.52772e-07
-1.4243e-05
-2.23583e-05
-2.11461e-05
-7.82673e-06
1.31666e-05
3.36378e-05
4.9995e-05
5.89843e-05
6.00675e-05
5.14704e-05
3.4733e-05
1.66076e-05
7.41949e-06
1.1034e-05
2.18661e-05
3.60374e-05
5.67355e-05
8.57941e-05
0.000110159
0.000117108
0.000110592
0.000102796
9.7726e-05
9.68909e-05
0.000102739
0.000115715
0.0001324
0.000147586
0.000157466
0.000161813
0.000163742
0.000162075
0.000131582
0.000117042
0.000102349
9.16892e-05
8.08262e-05
6.55754e-05
4.67453e-05
2.96356e-05
1.48837e-05
4.34301e-08
-1.15223e-05
-1.1161e-05
3.2704e-06
2.51999e-05
4.47731e-05
5.60997e-05
5.91065e-05
5.56112e-05
4.626e-05
3.2966e-05
2.21268e-05
2.16165e-05
3.15443e-05
4.69031e-05
6.51791e-05
8.75437e-05
0.000107874
0.000116039
0.000111875
0.000103855
9.67749e-05
9.293e-05
9.574e-05
0.000107601
0.000123984
0.000137441
0.000143824
0.000143646
0.000141504
0.000139151
0.000106079
9.67168e-05
8.70768e-05
7.97146e-05
7.35753e-05
6.64872e-05
5.47242e-05
3.98297e-05
2.39368e-05
7.62014e-06
-5.50779e-06
-1.17495e-05
-7.98308e-06
5.14796e-06
2.22415e-05
3.62835e-05
4.42446e-05
4.72852e-05
4.6588e-05
4.18618e-05
3.43594e-05
3.03508e-05
3.50976e-05
4.69694e-05
6.2121e-05
7.88553e-05
9.35165e-05
0.000101633
0.000102686
9.89394e-05
9.33007e-05
8.7749e-05
8.75066e-05
9.69574e-05
0.000112142
0.000124896
0.000130231
0.000127597
0.000120793
0.000113615
9.38313e-05
8.3126e-05
7.44171e-05
6.84274e-05
6.29916e-05
5.66677e-05
4.90352e-05
3.91944e-05
2.71429e-05
1.18165e-05
-4.94554e-06
-1.79327e-05
-2.30856e-05
-1.86833e-05
-7.9368e-06
4.25439e-06
1.49458e-05
2.3845e-05
3.12224e-05
3.516e-05
3.49258e-05
3.50618e-05
4.06242e-05
5.09454e-05
6.30763e-05
7.61577e-05
8.73747e-05
9.29207e-05
9.15381e-05
8.59365e-05
7.85123e-05
7.25165e-05
7.16296e-05
7.93143e-05
9.5136e-05
0.000111194
0.000121846
0.000123024
0.000115746
0.00010494
9.91937e-05
8.81867e-05
8.21664e-05
7.89488e-05
7.31816e-05
6.28353e-05
5.1345e-05
4.05281e-05
3.00794e-05
1.897e-05
5.6926e-06
-8.92214e-06
-2.00144e-05
-2.40331e-05
-2.13479e-05
-1.52666e-05
-7.50485e-06
7.01148e-07
8.23932e-06
1.57658e-05
2.37355e-05
3.31051e-05
4.502e-05
5.88718e-05
7.19826e-05
8.28776e-05
9.05031e-05
9.26105e-05
8.73648e-05
7.86404e-05
6.98633e-05
6.3479e-05
6.08812e-05
6.58939e-05
7.85785e-05
9.47885e-05
0.000110036
0.000119757
0.000120386
0.00011172
9.74191e-05
8.64577e-05
7.78183e-05
7.23174e-05
6.7204e-05
5.96086e-05
5.07973e-05
4.20691e-05
3.40196e-05
2.64539e-05
1.87436e-05
1.09723e-05
5.49896e-06
3.83742e-06
5.22277e-06
8.55816e-06
1.35281e-05
1.84081e-05
2.21089e-05
2.47106e-05
2.87991e-05
3.52955e-05
4.46652e-05
5.61959e-05
6.62669e-05
7.40853e-05
8.02549e-05
8.26136e-05
7.80096e-05
6.91763e-05
6.1602e-05
5.7561e-05
5.66013e-05
5.98617e-05
6.82182e-05
8.02417e-05
9.27608e-05
0.000103152
0.00010799
0.000105955
8.96514e-05
7.76137e-05
6.60745e-05
5.67712e-05
4.9834e-05
4.22116e-05
3.47265e-05
2.91585e-05
2.52517e-05
2.18876e-05
1.86042e-05
1.63643e-05
1.63094e-05
1.80365e-05
2.0349e-05
2.2581e-05
2.56852e-05
3.07711e-05
3.72769e-05
4.40168e-05
4.96195e-05
5.39458e-05
5.74803e-05
6.22562e-05
6.74936e-05
7.11437e-05
7.28444e-05
7.17539e-05
6.65308e-05
5.87671e-05
5.2519e-05
4.96939e-05
4.93439e-05
5.11129e-05
5.65631e-05
6.59952e-05
7.75803e-05
8.83086e-05
9.57947e-05
9.68225e-05
7.94476e-05
6.54557e-05
4.96748e-05
3.63608e-05
2.73199e-05
2.02366e-05
1.43675e-05
1.09208e-05
1.03882e-05
1.08801e-05
1.2386e-05
1.54978e-05
2.0514e-05
2.60889e-05
3.09712e-05
3.53032e-05
4.10071e-05
4.95755e-05
5.9413e-05
6.74738e-05
7.20937e-05
7.38028e-05
7.36026e-05
7.23103e-05
6.95921e-05
6.56291e-05
6.18642e-05
5.86889e-05
5.57349e-05
5.26842e-05
5.1502e-05
5.18336e-05
5.24451e-05
5.30532e-05
5.57362e-05
6.1865e-05
7.07479e-05
8.00016e-05
8.67908e-05
8.72038e-05
7.2732e-05
3.47049e-05
3.75788e-06
-1.75525e-05
-2.62743e-05
-2.35539e-05
-1.51916e-05
-7.27664e-06
-1.81046e-06
3.00106e-06
7.78933e-06
1.16675e-05
1.60763e-05
2.41745e-05
3.56973e-05
4.4748e-05
4.53827e-05
3.72699e-05
2.48525e-05
1.39916e-05
8.95933e-06
1.11307e-05
2.11549e-05
3.95496e-05
6.56045e-05
9.77297e-05
0.000133796
0.000169527
0.000197586
0.000216876
0.000233619
0.000250896
0.000263778
0.00026726
0.000262728
0.000251159
0.000229265
0.000197355
0.00015943
0.000116364
7.47499e-05
3.66297e-05
5.41989e-06
-1.6304e-05
-2.55161e-05
-2.31978e-05
-1.50882e-05
-7.283e-06
-1.85832e-06
2.98484e-06
7.85316e-06
1.17764e-05
1.61397e-05
2.41255e-05
3.55321e-05
4.45478e-05
4.513e-05
3.68934e-05
2.43117e-05
1.33026e-05
8.14978e-06
1.02005e-05
2.00883e-05
3.82461e-05
6.39652e-05
9.56892e-05
0.000131317
0.000166616
0.000194313
0.000213272
0.000229832
0.000247276
0.000260666
0.000264813
0.000261121
0.000250596
0.000229712
0.00019856
0.000161167
0.000118365
7.65351e-05
3.77955e-05
5.93832e-06
-1.64679e-05
-2.62467e-05
-2.41875e-05
-1.60127e-05
-8.01743e-06
-2.4641e-06
2.45024e-06
7.38505e-06
1.12915e-05
1.55133e-05
2.33796e-05
3.48859e-05
4.41038e-05
4.48293e-05
3.65527e-05
2.38249e-05
1.26669e-05
7.36512e-06
9.23854e-06
1.89653e-05
3.69505e-05
6.24602e-05
9.39688e-05
0.000129316
0.000164238
0.000191405
0.000209647
0.000225758
0.000243453
0.000257627
0.000262634
0.00025993
0.000250705
0.000231126
0.000200779
0.000163691
0.000120656
7.79435e-05
3.78274e-05
4.67457e-06
-1.88936e-05
-2.94208e-05
-2.7453e-05
-1.87695e-05
-1.01415e-05
-4.17641e-06
8.53851e-07
5.78193e-06
9.5721e-06
1.35639e-05
2.13418e-05
3.31676e-05
4.29986e-05
4.42575e-05
3.61816e-05
2.34183e-05
1.22005e-05
6.86228e-06
8.64688e-06
1.82876e-05
3.62417e-05
6.17369e-05
9.32657e-05
0.000128577
0.000163307
0.000189889
0.00020702
0.000222244
0.000240043
0.000255194
0.000261242
0.000259572
0.000251779
0.000233696
0.000204167
0.000167112
0.000123338
7.94329e-05
3.70486e-05
1.8253e-06
-2.35636e-05
-3.52664e-05
-3.3401e-05
-2.38436e-05
-1.40237e-05
-7.25116e-06
-2.0668e-06
2.66729e-06
6.14409e-06
9.76487e-06
1.74309e-05
2.96219e-05
4.04589e-05
4.27271e-05
3.52968e-05
2.27105e-05
1.15504e-05
6.36328e-06
8.24799e-06
1.79861e-05
3.61594e-05
6.18823e-05
9.36286e-05
0.000129025
0.00016386
0.000190171
0.000206197
0.000220039
0.000237422
0.000253497
0.000260776
0.000260177
0.000253789
0.000237297
0.00020867
0.000171558
0.000126809
8.18054e-05
3.62693e-05
-1.99873e-06
-3.00707e-05
-4.36724e-05
-4.21927e-05
-3.14989e-05
-1.98251e-05
-1.15955e-05
-6.065e-06
-1.78488e-06
1.03596e-06
4.02885e-06
1.1294e-05
2.39385e-05
3.5863e-05
3.95512e-05
3.33189e-05
2.12932e-05
1.026e-05
5.09239e-06
6.79113e-06
1.64183e-05
3.49715e-05
6.12926e-05
9.3359e-05
0.000128913
0.000164252
0.00019124
0.000207211
0.000219845
0.000236085
0.000252573
0.000261208
0.000261861
0.000256856
0.000241947
0.000214373
0.000177339
0.00013174
8.64904e-05
3.68606e-05
-5.47237e-06
-3.74778e-05
-5.42809e-05
-5.39457e-05
-4.21698e-05
-2.79509e-05
-1.71558e-05
-1.04804e-05
-6.53454e-06
-4.66969e-06
-2.66819e-06
3.93712e-06
1.65727e-05
2.94726e-05
3.48386e-05
3.0311e-05
1.92715e-05
8.35926e-06
2.64363e-06
2.97047e-06
1.08814e-05
2.83964e-05
5.46208e-05
8.69006e-05
0.000122801
0.000159288
0.000188435
0.000206848
0.000220283
0.000235456
0.000251558
0.000261587
0.000264116
0.000261002
0.00024801
0.000221735
0.000185102
0.000139112
9.49613e-05
4.09484e-05
-6.39657e-06
-4.35494e-05
-6.53867e-05
-6.81412e-05
-5.61312e-05
-3.9513e-05
-2.52604e-05
-1.59834e-05
-1.12725e-05
-9.92938e-06
-8.83347e-06
-3.2281e-06
8.65334e-06
2.20668e-05
2.92873e-05
2.70845e-05
1.73331e-05
6.2355e-06
-1.0125e-06
-3.70601e-06
3.31676e-07
1.45048e-05
3.86836e-05
7.0081e-05
0.000106452
0.000144586
0.000176416
0.000198425
0.000215452
0.000231569
0.000247111
0.000258269
0.000263901
0.000264921
0.000255484
0.000231407
0.000195681
0.000149642
0.00010745
4.99565e-05
-2.39793e-06
-4.53095e-05
-7.33788e-05
-8.10855e-05
-7.125e-05
-5.38289e-05
-3.7276e-05
-2.57612e-05
-1.97488e-05
-1.80891e-05
-1.73386e-05
-1.23802e-05
-1.49799e-06
1.12009e-05
2.00186e-05
2.12012e-05
1.42706e-05
3.4745e-06
-6.19395e-06
-1.35863e-05
-1.49047e-05
-4.97225e-06
1.65259e-05
4.65791e-05
8.31325e-05
0.00012234
0.0001563
0.000180628
0.000200417
0.00021883
0.000234829
0.000246768
0.000255553
0.00026321
0.000262088
0.000243368
0.00020945
0.000163532
0.000123101
6.35227e-05
7.95257e-06
-4.01881e-05
-7.49599e-05
-8.89862e-05
-8.30847e-05
-6.70117e-05
-5.05592e-05
-3.87211e-05
-3.22072e-05
-3.08989e-05
-3.13347e-05
-2.75729e-05
-1.80358e-05
-5.8884e-06
4.58248e-06
9.59545e-06
6.39715e-06
-2.50681e-06
-1.31025e-05
-2.43366e-05
-3.09085e-05
-2.47067e-05
-4.88217e-06
2.44484e-05
6.0761e-05
9.95878e-05
0.000133745
0.000158923
0.000178905
0.000197478
0.000214336
0.000227404
0.000239178
0.00025306
0.000262889
0.000254679
0.00022594
0.000180491
0.000141406
7.99927e-05
2.35615e-05
-2.76249e-05
-6.81468e-05
-8.82284e-05
-8.68033e-05
-7.38036e-05
-5.90677e-05
-4.83982e-05