/*--------------------------------*- C++ -*----------------------------------*\
| =========                 |                                                 |
| \\      /  F ield         | OpenFOAM: The Open Source CFD Toolbox           |
|  \\    /   O peration     | Version:  2306                                  |
|   \\  /    A nd           | Website:  www.openfoam.com                      |
|    \\/     M anipulation  |                                                 |
\*---------------------------------------------------------------------------*/
FoamFile
{
    version     2.0;
    format      ascii;
    arch        "LSB;label=32;scalar=64";
    class       volScalarField;
    location    "8.5";
    object      p;
}
// * * * * * * * * * * * * * * * * * * * * * * * * * * * * * * * * * * * * * //

dimensions      [0 2 -2 0 0 0 0];

internalField   nonuniform List<scalar> 
60000
(
-7.41707e-06
-3.73685e-05
-3.14804e-05
-4.24801e-06
1.95419e-05
1.41827e-05
-2.00621e-05
-5.9434e-05
-8.90908e-05
-0.000108806
-0.000122031
-0.000124395
-0.000114656
-9.93937e-05
-9.36429e-05
-9.60858e-05
-8.47949e-05
-5.26709e-05
-1.59758e-05
7.33242e-06
1.68141e-05
1.86261e-05
8.32053e-06
-2.95612e-05
-8.90454e-05
-0.000157046
-0.000214393
-0.000232699
-0.000177265
-6.45204e-05
2.72776e-05
5.35367e-05
2.54114e-05
-1.87222e-05
-4.28055e-05
-1.96314e-05
3.43081e-05
7.86681e-05
8.26731e-05
4.39735e-05
-6.34828e-06
-3.63757e-05
-3.0811e-05
-3.31248e-06
2.07317e-05
1.52302e-05
-1.9611e-05
-5.96448e-05
-8.96671e-05
-0.000109311
-0.000122391
-0.00012468
-0.000115064
-0.000100102
-9.43562e-05
-9.69023e-05
-8.5686e-05
-5.35208e-05
-1.67586e-05
6.59908e-06
1.63533e-05
1.8686e-05
8.91093e-06
-2.8231e-05
-8.79319e-05
-0.000156538
-0.000214946
-0.000234709
-0.000180127
-6.72431e-05
2.54945e-05
5.26038e-05
2.4934e-05
-1.92926e-05
-4.39833e-05
-2.10029e-05
3.34447e-05
7.86899e-05
8.36041e-05
4.50937e-05
-5.68826e-06
-3.58534e-05
-3.08622e-05
-2.65166e-06
2.20394e-05
1.62055e-05
-2.01954e-05
-6.17985e-05
-9.25275e-05
-0.000111729
-0.00012406
-0.000125725
-0.000115913
-0.00010081
-9.50421e-05
-9.79432e-05
-8.71494e-05
-5.4996e-05
-1.8047e-05
5.53267e-06
1.59173e-05
1.92352e-05
1.00512e-05
-2.65508e-05
-8.69438e-05
-0.000156689
-0.000216632
-0.000237979
-0.000183576
-6.97812e-05
2.42135e-05
5.19241e-05
2.42455e-05
-2.05714e-05
-4.65039e-05
-2.38196e-05
3.15238e-05
7.80765e-05
8.41683e-05
4.60586e-05
-5.6017e-06
-3.61897e-05
-3.14726e-05
-1.95141e-06
2.38372e-05
1.74967e-05
-2.19537e-05
-6.66819e-05
-9.88646e-05
-0.000117267
-0.000127939
-0.000128006
-0.000117329
-0.000101592
-9.55484e-05
-9.89876e-05
-8.89798e-05
-5.70292e-05
-1.99123e-05
4.04951e-06
1.55425e-05
2.05266e-05
1.23437e-05
-2.41927e-05
-8.61652e-05
-0.000157578
-0.000219394
-0.000242459
-0.000187574
-7.17452e-05
2.39728e-05
5.15797e-05
2.28192e-05
-2.31487e-05
-5.0762e-05
-2.8191e-05
2.86614e-05
7.67516e-05
8.4314e-05
4.6692e-05
-5.9668e-06
-3.71985e-05
-3.25299e-05
-1.37946e-06
2.65368e-05
1.96394e-05
-2.40596e-05
-7.36938e-05
-0.000108827
-0.000126583
-0.000134793
-0.000132018
-0.000119516
-0.000102362
-9.54839e-05
-9.93853e-05
-9.04743e-05
-5.91897e-05
-2.24264e-05
1.70164e-06
1.48196e-05
2.2563e-05
1.59498e-05
-2.13594e-05
-8.54162e-05
-0.000158755
-0.000223171
-0.000249089
-0.000194324
-7.62175e-05
2.25479e-05
5.09436e-05
2.03281e-05
-2.74128e-05
-5.69491e-05
-3.34573e-05
2.55472e-05
7.50367e-05
8.30455e-05
4.69057e-05
-6.42137e-06
-3.85468e-05
-3.51657e-05
-1.60891e-06
2.94964e-05
2.2629e-05
-2.76168e-05
-8.24675e-05
-0.000121534
-0.000139382
-0.00014494
-0.000138168
-0.000122788
-0.000103345
-9.4771e-05
-9.85919e-05
-9.06066e-05
-6.0389e-05
-2.50215e-05
-1.65496e-06
1.32485e-05
2.52009e-05
2.13822e-05
-1.70863e-05
-8.42049e-05
-0.000159996
-0.000227728
-0.000258328
-0.000206983
-8.70028e-05
1.62459e-05
4.48722e-05
1.50526e-05
-3.36379e-05
-6.53608e-05
-3.95054e-05
2.30339e-05
7.38197e-05
8.25888e-05
4.70523e-05
-5.96566e-06
-4.08057e-05
-4.15337e-05
-6.37411e-06
3.21119e-05
2.94089e-05
-2.90304e-05
-9.77043e-05
-0.000139418
-0.000155855
-0.000158116
-0.000146241
-0.000127263
-0.000105085
-9.40198e-05
-9.68121e-05
-8.90252e-05
-5.95544e-05
-2.64364e-05
-5.40536e-06
1.0692e-05
2.82166e-05
2.9184e-05
-1.03877e-05
-8.17642e-05
-0.000161357
-0.000232665
-0.000268983
-0.000222519
-9.97775e-05
6.6566e-06
3.99062e-05
2.06264e-06
-4.44635e-05
-7.74561e-05
-4.67587e-05
2.10466e-05
7.37325e-05
8.25134e-05
4.78788e-05
-1.85734e-06
-4.08077e-05
-4.90662e-05
-1.73548e-05
2.93499e-05
3.88841e-05
-2.11052e-05
-0.000107927
-0.000164789
-0.000180568
-0.000176803
-0.000156771
-0.000131883
-0.000106748
-9.43058e-05
-9.62246e-05
-8.67871e-05
-5.69465e-05
-2.55039e-05
-8.02406e-06
7.80665e-06
3.13491e-05
3.94522e-05
-5.85192e-07
-7.7785e-05
-0.000161269
-0.000234151
-0.000271406
-0.000227054
-0.000101964
8.29463e-06
3.44118e-05
-8.52723e-06
-6.13775e-05
-9.69e-05
-5.93858e-05
1.56409e-05
7.30797e-05
8.56473e-05
5.13077e-05
6.27092e-06
-3.18015e-05
-4.91044e-05
-2.73761e-05
2.23435e-05
4.85033e-05
-5.56505e-06
-0.00010655
-0.000188276
-0.000212723
-0.000204998
-0.00017324
-0.000139485
-0.000108518
-9.38769e-05
-9.82201e-05
-8.97165e-05
-5.65474e-05
-2.14204e-05
-7.00503e-06
7.17596e-06
3.47352e-05
5.09789e-05
1.16329e-05
-7.29439e-05
-0.000159421
-0.000232896
-0.000262931
-0.000210995
-8.07383e-05
3.26394e-05
4.8865e-05
-7.5488e-06
-7.81071e-05
-0.000126747
-7.9423e-05
5.92886e-06
6.707e-05
8.16258e-05
5.30938e-05
1.13025e-05
-2.15423e-05
-3.86069e-05
-2.7908e-05
1.76526e-05
5.98203e-05
1.93841e-05
-9.10274e-05
-0.000199143
-0.000249897
-0.000244712
-0.000196463
-0.000150656
-0.000114444
-9.61042e-05
-9.9406e-05
-9.48595e-05
-6.34829e-05
-2.57608e-05
-3.24805e-06
1.2731e-05
4.06356e-05
6.15274e-05
2.36386e-05
-6.8329e-05
-0.000158778
-0.000233178
-0.000251125
-0.000183421
-4.15116e-05
8.03025e-05
8.64018e-05
8.83368e-06
-8.99415e-05
-0.000166108
-0.000108115
-9.54982e-06
5.86136e-05
7.56121e-05
5.08322e-05
1.6536e-05
-3.68495e-06
-1.36035e-05
-1.68728e-05
1.59951e-05
7.04537e-05
5.32808e-05
-5.58004e-05
-0.000188502
-0.000273715
-0.000285547
-0.000231769
-0.000166858
-0.000120271
-9.99524e-05
-0.000103069
-9.91931e-05
-7.08689e-05
-3.66245e-05
-1.49891e-05
8.3982e-06
4.58811e-05
6.87104e-05
2.86228e-05
-6.58098e-05
-0.000159511
-0.000236955
-0.000245553
-0.000166326
-1.36065e-05
0.000127904
0.000139546
4.3453e-05
-8.71244e-05
-0.000176903
-0.000139522
-3.33281e-05
4.13783e-05
6.46055e-05
4.57584e-05
1.93157e-05
1.96481e-05
2.57019e-05
1.68286e-05
2.34427e-05
7.33867e-05
8.50967e-05
-4.1297e-06
-0.000149128
-0.000269235
-0.000317777
-0.000272671
-0.000194475
-0.000129806
-0.000101154
-0.000104197
-0.000102955
-7.73155e-05
-4.50165e-05
-2.71263e-05
-1.06604e-05
2.66717e-05
5.84803e-05
2.15976e-05
-6.62749e-05
-0.000176318
-0.000233193
-0.00023478
-0.000167279
-1.81237e-05
0.000141745
0.000180756
9.41822e-05
-5.7468e-05
-0.000170827
-0.000161707
-6.00162e-05
1.62781e-05
4.58784e-05
3.60948e-05
1.47135e-05
2.92969e-05
6.12426e-05
5.85078e-05
5.1631e-05
6.75178e-05
0.000103424
4.71698e-05
-8.91822e-05
-0.000230633
-0.000320758
-0.000314545
-0.000229695
-0.000146177
-0.000101582
-0.000103077
-0.000105966
-8.1881e-05
-5.2199e-05
-3.48447e-05
-2.27e-05
-4.17884e-06
1.77142e-06
-7.59434e-06
-7.19857e-05
-0.000159135
-0.000212122
-0.000196484
-0.000159804
-4.16397e-05
0.000100011
0.000186572
0.000139987
-2.47044e-07
-0.000131924
-0.000155312
-8.24936e-05
-9.20744e-06
2.53624e-05
2.50548e-05
5.46685e-06
2.57861e-05
7.53471e-05
8.4297e-05
6.96934e-05
5.32387e-05
0.000106129
8.67522e-05
-2.52585e-05
-0.000168989
-0.000289821
-0.000329994
-0.000262551
-0.000158649
-0.000102014
-0.00010022
-0.000110168
-8.97133e-05
-5.58563e-05
-3.86723e-05
-2.52504e-05
-1.73442e-05
-2.69722e-05
-4.03477e-05
-7.80292e-05
-0.000136476
-0.000185162
-0.000180755
-0.000146125
-5.81789e-05
5.37319e-05
0.000156585
0.000156228
6.09977e-05
-6.35357e-05
-0.0001241
-9.87112e-05
-3.18463e-05
1.58019e-06
1.08716e-05
-3.11013e-06
1.97664e-05
6.58556e-05
8.78653e-05
7.01594e-05
4.17818e-05
9.79801e-05
0.000111023
2.93169e-05
-0.00010057
-0.000232243
-0.000310758
-0.00027723
-0.000172327
-0.00010112
-9.59031e-05
-0.000112438
-0.000102858
-6.77047e-05
-4.04678e-05
-2.2389e-05
-1.46862e-05
-3.30197e-05
-5.41901e-05
-7.87414e-05
-0.000114663
-0.000156517
-0.000160445
-0.000128588
-6.66486e-05
9.3345e-06
0.000110118
0.000144064
9.56258e-05
2.5165e-06
-4.61646e-05
-7.17212e-05
-4.63458e-05
-2.08212e-05
-8.41111e-06
-1.11222e-05
1.9968e-05
6.14152e-05
7.87161e-05
6.65464e-05
4.7839e-05
8.20037e-05
0.000114578
6.45965e-05
-4.43623e-05
-0.000167204
-0.000259355
-0.000261641
-0.000179511
-0.000106614
-9.62816e-05
-0.000110267
-0.000110916
-8.04125e-05
-4.65884e-05
-2.48401e-05
-1.39444e-05
-2.81185e-05
-5.53486e-05
-7.51358e-05
-9.31675e-05
-0.000120688
-0.000137032
-0.000105005
-6.08755e-05
-2.29008e-05
5.76758e-05
0.000110722
0.000100517
3.79626e-05
-1.29407e-05
-4.65415e-05
-5.07263e-05
-4.59039e-05
-3.44421e-05
-2.07161e-05
1.98706e-05
5.56279e-05
7.04755e-05
4.5379e-05
3.67171e-05
6.34979e-05
9.47457e-05
6.81121e-05
-7.9011e-06
-0.0001078
-0.000193103
-0.000219733
-0.000169847
-0.00010762
-9.74258e-05
-0.000111818
-0.000114675
-8.91781e-05
-5.11075e-05
-2.7982e-05
-2.25989e-05
-3.68741e-05
-6.63831e-05
-8.08303e-05
-7.75482e-05
-9.3228e-05
-0.000114574
-8.91852e-05
-5.11485e-05
-2.53241e-05
2.17564e-05
7.29218e-05
9.76953e-05
5.4124e-05
8.35148e-06
-3.1202e-05
-5.22831e-05
-5.8226e-05
-5.53203e-05
-1.49944e-05
2.29427e-05
5.83975e-05
7.29042e-05
4.60431e-05
2.45532e-05
2.04778e-05
6.06982e-05
4.57819e-05
-6.88132e-07
-5.11542e-05
-0.000111265
-0.000153517
-0.000149564
-0.000113711
-9.51373e-05
-0.000105916
-0.000110798
-8.89794e-05
-5.70709e-05
-3.29625e-05
-2.4543e-05
-3.31055e-05
-7.79968e-05
-8.32196e-05
-7.29158e-05
-6.93967e-05
-8.79037e-05
-8.43151e-05
-4.46652e-05
-1.14055e-05
6.83679e-06
3.62312e-05
4.40787e-05
5.05558e-05
1.75827e-05
-2.75967e-05
-5.87865e-05
-6.56181e-05
-4.49102e-05
-3.07712e-06
3.58992e-05
6.66345e-05
7.39324e-05
4.08782e-05
2.32643e-06
1.13522e-06
2.83798e-05
3.93076e-05
-3.91619e-06
-4.23972e-05
-5.49015e-05
-7.40788e-05
-9.56054e-05
-9.86408e-05
-0.000105414
-0.000108469
-0.000110963
-9.63878e-05
-7.60576e-05
-5.71816e-05
-3.52162e-05
-3.51978e-05
-4.0964e-05
-7.0124e-05
-6.38056e-05
-4.57612e-05
-5.50941e-05
-6.41243e-05
-4.11196e-05
-5.02645e-06
-1.25736e-06
1.5578e-05
3.2241e-05
4.89219e-05
6.1195e-06
-4.90341e-05
-6.94694e-05
-6.12885e-05
-3.7714e-05
-1.65365e-06
2.95231e-05
5.08349e-05
5.05935e-05
2.45064e-05
-8.80854e-06
-1.85685e-05
-1.2759e-05
-1.04618e-05
-1.63531e-05
-3.23366e-05
-4.13155e-05
-5.56785e-05
-7.28697e-05
-7.87097e-05
-8.19643e-05
-9.20293e-05
-9.94688e-05
-9.77895e-05
-9.08035e-05
-8.86408e-05
-9.30411e-05
-8.38829e-05
-7.03557e-05
-6.45241e-05
-5.08144e-05
-2.99141e-05
-2.20827e-05
-3.55453e-05
-3.94889e-05
-3.41469e-05
-1.84914e-05
-4.1311e-06
5.34038e-05
5.92596e-05
6.74408e-06
-5.6885e-05
-7.78138e-05
-6.43501e-05
-3.52085e-05
-3.49499e-05
1.62555e-05
6.04848e-05
5.37772e-05
2.84607e-05
-9.62502e-07
-1.62901e-05
-3.31719e-05
-3.8922e-05
-6.81096e-05
-7.92715e-05
-7.15348e-05
-5.61111e-05
-5.19738e-05
-6.41247e-05
-8.11414e-05
-9.55154e-05
-9.73766e-05
-9.34879e-05
-9.52132e-05
-9.83609e-05
-0.000102592
-0.000109441
-0.00010306
-8.35706e-05
-5.41597e-05
-2.00603e-05
-1.54494e-05
-2.02147e-05
-5.23832e-05
-5.88455e-05
-2.82255e-05
3.22221e-06
6.48482e-05
6.72283e-05
1.3711e-05
-6.75984e-05
-0.00012332
-0.000132764
-9.23777e-05
-8.05592e-05
-5.37936e-06
4.01038e-05
3.93949e-05
1.10752e-05
-7.83069e-06
-6.00987e-06
1.90423e-05
6.02946e-06
-3.03435e-05
-6.60449e-05
-8.50223e-05
-7.11018e-05
-5.28178e-05
-5.47737e-05
-7.67608e-05
-9.48613e-05
-9.6192e-05
-9.25285e-05
-9.58403e-05
-9.90776e-05
-0.000102622
-0.000113385
-0.000113192
-9.2631e-05
-6.25854e-05
-1.83613e-05
2.10792e-05
1.70875e-06
-4.08202e-05
-6.17016e-05
-3.89548e-05
5.84086e-08
7.79477e-05
0.000100137
4.04088e-05
-6.41229e-05
-0.000151807
-0.000190524
-0.000153486
-0.000102167
-4.66807e-05
4.94793e-06
2.48955e-05
1.25257e-05
-5.80362e-06
-9.4706e-06
-1.50412e-06
2.99795e-06
-5.2943e-07
-1.65372e-05
-3.91466e-05
-5.69113e-05
-6.93027e-05
-7.58491e-05
-9.08683e-05
-9.59515e-05
-9.03954e-05
-8.7601e-05
-9.16152e-05
-9.362e-05
-7.76174e-05
-7.54893e-05
-7.93095e-05
-7.92484e-05
-6.88306e-05
-2.43713e-05
1.08117e-05
1.35529e-05
-1.6173e-05
-4.14563e-05
-3.54392e-05
-1.06102e-05
4.35853e-05
9.49163e-05
5.64414e-05
-2.5676e-05
-0.000105932
-0.000148523
-0.000140517
-0.000110811
-7.28437e-05
-2.82105e-05
-3.24238e-06
-2.0438e-06
-9.23093e-06
-5.06679e-06
8.68541e-06
9.77855e-06
-7.95861e-06
-3.92092e-05
-7.12708e-05
-8.98615e-05
-9.94777e-05
-9.99247e-05
-9.42288e-05
-7.85854e-05
-6.08407e-05
-5.35893e-05
-6.43249e-05
-8.14814e-05
-9.56002e-05
-9.42746e-05
-8.04933e-05
-6.05897e-05
-3.57979e-05
-1.13504e-05
1.43299e-05
2.54153e-05
6.53263e-06
-3.12555e-05
-5.8245e-05
-5.32596e-05
-2.01991e-05
2.78013e-05
2.36787e-05
-1.46534e-05
-7.00821e-05
-0.000112308
-0.000115522
-0.000115454
-9.35667e-05
-5.79876e-05
-2.86555e-05
-1.65444e-05
-1.28355e-05
-1.83853e-05
-2.99203e-06
8.51907e-07
-9.44318e-06
-3.92241e-05
-7.75288e-05
-0.00011014
-0.000117985
-0.000124901
-0.000127829
-9.86894e-05
-7.59446e-05
-6.3675e-05
-7.17959e-05
-8.56736e-05
-7.79777e-05
-6.14277e-05
-5.62827e-05
-5.07717e-05
-2.15071e-05
1.37256e-05
4.14983e-05
4.55531e-05
1.29734e-05
-4.91115e-05
-0.000121678
-0.000104981
-8.5373e-05
-7.29015e-05
-2.42521e-05
-2.13212e-05
-4.97779e-05
-8.56111e-05
-0.000117094
2.63189e-05
-2.02753e-08
2.52168e-05
7.01865e-05
9.21048e-05
6.96987e-05
5.67101e-06
-7.11957e-05
-0.000134737
-0.000172116
-0.000184354
-0.000177648
-0.000161558
-0.000146958
-0.000142341
-0.000141118
-0.000124889
-8.69005e-05
-4.07847e-05
-8.88513e-06
5.06546e-07
-6.04891e-06
-1.42704e-05
-2.92402e-05
-6.04638e-05
-0.000120851
-0.000193699
-0.000238985
-0.000196535
-5.53427e-05
8.37684e-05
0.000126859
9.96073e-05
8.31218e-05
8.1302e-05
8.37172e-05
0.000108972
0.000144302
0.000144858
9.20635e-05
2.65176e-05
-1.73551e-07
2.52634e-05
7.08645e-05
9.37008e-05
7.24134e-05
8.6312e-06
-6.85953e-05
-0.000132963
-0.000171163
-0.000184051
-0.000177702
-0.000161778
-0.000147304
-0.000142874
-0.000141881
-0.000125885
-8.80329e-05
-4.18994e-05
-9.75593e-06
-9.64526e-09
-6.35427e-06
-1.44518e-05
-2.91995e-05
-6.00257e-05
-0.00012031
-0.000193917
-0.000240865
-0.000200623
-6.04256e-05
7.97345e-05
0.000123966
9.69098e-05
8.03188e-05
7.88133e-05
8.10117e-05
0.000106102
0.000142209
0.000144187
9.22836e-05
2.67537e-05
-5.21804e-07
2.58803e-05
7.26618e-05
9.67787e-05
7.60323e-05
1.12491e-05
-6.77465e-05
-0.000133819
-0.000172737
-0.000185746
-0.000179122
-0.000162852
-0.000148236
-0.00014394
-0.000143302
-0.000127642
-8.99824e-05
-4.36343e-05
-1.08856e-05
-4.75837e-07
-6.546e-06
-1.44795e-05
-2.92614e-05
-5.9376e-05
-0.000119685
-0.000194467
-0.00024346
-0.000205494
-6.53353e-05
7.72321e-05
0.000122618
9.44375e-05
7.72099e-05
7.65629e-05
7.85005e-05
0.000102917
0.000139699
0.000143616
9.29317e-05
2.65813e-05
-1.37563e-06
2.70936e-05
7.57502e-05
0.000101479
8.02614e-05
1.2247e-05
-7.05533e-05
-0.000139295
-0.000178341
-0.000190378
-0.000182396
-0.000164942
-0.000149677
-0.000145388
-0.000145242
-0.000130035
-9.26107e-05
-4.58578e-05
-1.21012e-05
-6.00109e-07
-6.27904e-06
-1.4244e-05
-2.93858e-05
-5.84993e-05
-0.000119055
-0.000195453
-0.000246613
-0.000210423
-6.89278e-05
7.76131e-05
0.000123605
9.24837e-05
7.35666e-05
7.43962e-05
7.6316e-05
9.98753e-05
0.000137073
0.000142912
9.34607e-05
2.49143e-05
-3.84358e-06
2.79636e-05
8.11968e-05
0.000108087
8.5613e-05
1.14834e-05
-7.77843e-05
-0.000150429
-0.000188698
-0.000198303
-0.000187686
-0.000168112
-0.000151529
-0.000146974
-0.000147176
-0.000132484
-9.54605e-05
-4.83841e-05
-1.35004e-05
-4.86966e-07
-5.46244e-06
-1.33584e-05
-2.7305e-05
-5.7414e-05
-0.00011863
-0.000196575
-0.000250762
-0.000217138
-7.39999e-05
7.84831e-05
0.00012646
9.06973e-05
6.88291e-05
7.17456e-05
7.42877e-05
9.74941e-05
0.000134795
0.000141859
9.30244e-05
2.1396e-05
-9.29894e-06
2.64069e-05
8.75802e-05
0.000118805
9.25389e-05
1.06868e-05
-8.86578e-05
-0.000167371
-0.000204121
-0.0002097
-0.000195143
-0.000172577
-0.000153929
-0.000148426
-0.000148617
-0.00013414
-9.75608e-05
-5.04634e-05
-1.48882e-05
-4.27774e-07
-4.3797e-06
-1.18177e-05
-2.48951e-05
-5.59512e-05
-0.000118167
-0.000198428
-0.000258021
-0.000230981
-8.83364e-05
7.00581e-05
0.000125403
8.60293e-05
6.15004e-05
6.76575e-05
7.15032e-05
9.56918e-05
0.000133224
0.000140689
9.16134e-05
1.74431e-05
-1.66529e-05
2.10863e-05
9.30691e-05
0.000134309
0.000106053
1.51812e-05
-9.94842e-05
-0.000188781
-0.000224349
-0.000224681
-0.000204846
-0.000178474
-0.000157104
-0.000149714
-0.000149595
-0.00013489
-9.82056e-05
-5.07931e-05
-1.51511e-05
-1.18936e-07
-3.53239e-06
-1.00926e-05
-2.20124e-05
-5.38651e-05
-0.000117579
-0.00020144
-0.000269353
-0.000254249
-0.000116474
4.85276e-05
0.000108803
7.20134e-05
4.55884e-05
5.88896e-05
6.46948e-05
9.2068e-05
0.000131349
0.000139329
9.01731e-05
1.85835e-05
-1.96037e-05
1.4965e-05
9.6998e-05
0.00015341
0.000132382
3.3373e-05
-9.86399e-05
-0.000209365
-0.000248021
-0.000243919
-0.000217688
-0.000186028
-0.000160592
-0.000151249
-0.000150801
-0.000136066
-9.83344e-05
-4.90941e-05
-1.26404e-05
2.0423e-06
-2.52541e-06
-8.90303e-06
-1.90747e-05
-5.13591e-05
-0.000117292
-0.000204748
-0.000281107
-0.000277461
-0.000149014
1.82301e-05
8.74791e-05
4.82971e-05
2.20196e-05
4.17538e-05
5.01003e-05
7.98979e-05
0.000123221
0.000135876
9.01172e-05
2.85195e-05
-8.40717e-06
1.63282e-05
0.000101008
0.000174351
0.000169954
6.97889e-05
-8.00041e-05
-0.000210421
-0.000270702
-0.000267204
-0.00023494
-0.000197199
-0.000165836
-0.000152016
-0.000150972
-0.000137219
-0.000101377
-5.01041e-05
-9.45639e-06
7.16509e-06
6.09103e-07
-8.11613e-06
-1.70737e-05
-4.94879e-05
-0.000118039
-0.000208735
-0.000285636
-0.000281821
-0.000160863
-5.09418e-06
6.71379e-05
2.85502e-05
-8.16077e-06
1.61502e-05
2.86502e-05
6.19492e-05
0.000104904
0.000121861
8.68624e-05
3.59637e-05
1.00606e-05
2.93076e-05
0.0001065
0.000190929
0.000213508
0.000125283
-3.89159e-05
-0.000194748
-0.00028052
-0.00029327
-0.000257873
-0.00021147
-0.000173008
-0.000154922
-0.00015173
-0.000139895
-0.00010399
-5.51402e-05
-1.38079e-05
8.33805e-06
4.90169e-06
-7.01332e-06
-1.6907e-05
-4.95106e-05
-0.000120258
-0.000215212
-0.000287329
-0.000271941
-0.000147871
-5.27469e-06
5.51891e-05
1.57693e-05
-3.34355e-05
-1.11436e-05
-5.4756e-06
3.90386e-05
8.92803e-05
0.000110231
7.96812e-05
4.71503e-05
3.05421e-05
4.4108e-05
0.000107949
0.000191902
0.000246569
0.000189377
2.48997e-05
-0.000156028
-0.000273845
-0.000311493
-0.000286607
-0.000230408
-0.000179451
-0.000156611
-0.000153118
-0.000140701
-0.000105707
-5.94888e-05
-1.9631e-05
2.31657e-06
1.58128e-06
-9.8128e-06
-2.13963e-05
-5.33942e-05
-0.000123769
-0.000222059
-0.000289202
-0.000258396
-0.000127906
5.9752e-06
5.93107e-05
1.36417e-05
-4.80568e-05
-5.28569e-05
-4.82911e-05
6.94021e-06
6.94587e-05
0.000104701
8.07682e-05
5.43331e-05
5.18082e-05
6.21384e-05
0.000101509
0.000171593
0.00025512
0.000238713
9.94874e-05
-9.37448e-05
-0.000240562
-0.000314533
-0.000313891
-0.000256773
-0.000188495
-0.000155872
-0.000153116
-0.000141618
-0.000108873
-6.49896e-05
-2.83644e-05
-8.44061e-06
-1.0501e-05
-2.43978e-05
-3.55491e-05
-6.27834e-05
-0.000128414
-0.000223756
-0.000293245
-0.000249096
-0.00012308
3.70726e-06
6.56258e-05
2.66103e-05
-4.33179e-05
-7.39724e-05
-8.5576e-05
-2.73643e-05
3.90121e-05
8.8013e-05
7.49432e-05
5.45752e-05
6.79833e-05
7.71144e-05
9.87183e-05
0.000138861
0.000245933
0.000258494
0.00015947
-2.39105e-05
-0.00018166
-0.000288778
-0.000327573
-0.000289323
-0.000205479
-0.000157678
-0.000152125
-0.000143543
-0.000112641
-7.20635e-05
-4.11503e-05
-2.48417e-05
-2.93437e-05
-4.90726e-05
-6.19483e-05
-8.12584e-05
-0.000129466
-0.000210264
-0.000296549
-0.000238352
-0.000128697
-1.43856e-05
5.16177e-05
4.39921e-05
-2.10488e-05
-6.66188e-05
-9.63713e-05
-5.18069e-05
2.26532e-06
5.79838e-05
5.7188e-05
4.736e-05
7.11536e-05
8.57555e-05
9.54139e-05
0.000112405
0.000207889
0.000254696
0.000192551
3.37295e-05
-0.000117309
-0.000237071
-0.00031594
-0.000306571
-0.000230394
-0.000162663
-0.000150043
-0.000145043
-0.000120338
-8.0591e-05
-4.85404e-05
-3.16378e-05
-3.92329e-05
-6.70399e-05
-8.45726e-05
-9.30285e-05
-0.000118312
-0.000180322
-0.000257352
-0.000212057
-0.000122556
-3.71236e-05
2.01147e-05
5.08952e-05
7.7027e-06
-3.91963e-05
-7.09097e-05
-5.44179e-05
-2.54592e-05
-2.55378e-06
2.99615e-05
2.99532e-05
5.54618e-05
8.47095e-05
9.04742e-05
9.30669e-05
0.000156236
0.000229082
0.000198785
6.79258e-05
-6.5777e-05
-0.000178369
-0.000277145
-0.000308187
-0.000245342
-0.000170849
-0.000145327
-0.00014588
-0.000131424
-9.10217e-05
-4.95799e-05
-2.64961e-05
-3.09277e-05
-5.70088e-05
-7.98247e-05
-8.54313e-05
-9.99822e-05
-0.000160444
-0.000213742
-0.000182049
-0.000106666
-4.9755e-05
-4.87952e-06
4.6843e-05
3.1561e-05
-7.16803e-06
-2.90461e-05
-4.21761e-05
-3.76333e-05
-2.2185e-05
7.44209e-06
1.3875e-05
3.88499e-05
8.24714e-05
9.2006e-05
8.25751e-05
0.000114527
0.000182347
0.000180485
8.60158e-05
-2.61875e-05
-0.000126486
-0.000220865
-0.00028106
-0.000249885
-0.000176632
-0.000141959
-0.00014462
-0.000136386
-0.000102342
-4.88552e-05
-1.51054e-05
-2.04238e-05
-4.80448e-05
-7.24804e-05
-8.0133e-05
-8.95261e-05
-0.000141858
-0.000184538
-0.000151239
-8.57241e-05
-5.32598e-05
-1.63687e-05
3.7014e-05
5.12135e-05
2.02292e-05
-1.16596e-05
-2.84141e-05
-4.0506e-05
-3.6025e-05
-1.24461e-05
4.05042e-06
4.33492e-05
8.1659e-05
9.53873e-05
7.49261e-05
7.99921e-05
0.000126579
0.000133947
7.61476e-05
-1.92872e-05
-8.63418e-05
-0.000148424
-0.000215682
-0.000226781
-0.000181445
-0.000151585
-0.00014355
-0.000137189
-0.000104317
-5.07858e-05
-9.27309e-06
-1.49479e-05
-4.15145e-05
-6.84975e-05
-8.19367e-05
-9.01949e-05
-0.000116405
-0.000166349
-0.000129682
-6.97706e-05
-4.1251e-05
-2.3619e-05
2.45425e-05
5.70117e-05
4.22317e-05
7.6622e-07
-2.03051e-05
-3.99198e-05
-4.52259e-05
-2.76738e-05
4.04658e-06
3.81004e-05
7.59374e-05
9.45662e-05
7.23364e-05
5.47748e-05
8.866e-05
6.91169e-05
3.55736e-05
-1.3368e-05
-3.44545e-05
-6.29057e-05
-0.000119948
-0.000171933
-0.000181405
-0.000161621
-0.000153146
-0.000147806
-0.000110127
-4.14432e-05
-3.62722e-06
-1.32061e-05
-3.89382e-05
-6.61597e-05
-8.52554e-05
-9.76779e-05
-9.98407e-05
-0.000124038
-0.000117054
-7.26044e-05
-3.1169e-05
-1.01932e-05
2.25954e-05
4.83739e-05
4.7471e-05
2.70307e-05
-9.69015e-06
-3.36272e-05
-4.54276e-05
-3.31717e-05
-5.66431e-06
3.17764e-05
6.49847e-05
7.8622e-05
5.69155e-05
2.66254e-05
2.75482e-05
3.2486e-05
2.48626e-05
-2.14789e-05
-3.30188e-05
-9.75968e-07
-6.73925e-06
-7.29683e-05
-0.000130955
-0.000151286
-0.000146579
-0.000141071
-0.000115687
-7.4732e-05
-4.01435e-05
-3.03347e-05
-3.63142e-05
-5.14148e-05
-8.25924e-05
-9.18431e-05
-8.13506e-05
-8.18968e-05
-8.91244e-05
-7.60392e-05
-3.70169e-05
-6.80173e-06
2.54849e-05
4.92811e-05
4.18472e-05
8.91843e-06
-2.17642e-05
-3.23887e-05
-3.80966e-05
-3.20621e-05
1.14529e-05
3.41549e-05
4.44772e-05
4.72727e-05
3.0998e-05
9.81321e-06
-1.81124e-06
-7.0998e-06
-1.53984e-06
-7.06576e-06
-7.6105e-06
3.15546e-06
-1.4068e-06
-3.28598e-05
-7.07633e-05
-0.000102549
-0.000121316
-0.00012815
-0.000116099
-9.21253e-05
-7.49673e-05
-7.23957e-05
-7.59139e-05
-7.35271e-05
-7.00638e-05
-7.25771e-05
-6.29818e-05
-5.61029e-05
-6.19149e-05
-6.86875e-05
-6.43568e-05
-2.54625e-05
2.25261e-05
5.15844e-05
3.8317e-05
-4.47919e-06
-4.40272e-05
-5.3007e-05
-4.13044e-05
-1.64214e-05
2.30136e-06
3.77414e-05
4.66741e-05
4.91309e-05
2.48301e-05
5.12269e-06
-1.83057e-06
-1.64233e-05
-3.2246e-05
-4.44956e-05
-3.82654e-05
-2.50851e-05
-1.54557e-05
-1.93443e-05
-4.53135e-05
-7.61688e-05
-9.94193e-05
-0.000111388
-0.000112671
-0.00011255
-0.000108074
-0.00010567
-0.000110072
-0.000109707
-8.98771e-05
-6.87326e-05
-5.71872e-05
-5.44031e-05
-5.74889e-05
-6.86844e-05
-5.79571e-05
-1.77635e-05
3.67104e-05
6.09508e-05
3.4038e-05
-1.07948e-05
-7.30409e-05
-9.93757e-05
-8.63258e-05
-4.48654e-05
-3.11183e-05
2.35572e-05
4.76727e-05
4.19119e-05
4.95444e-07
-1.04244e-05
-7.31776e-06
2.00165e-05
1.14751e-05
-1.40144e-05
-3.47716e-05
-4.21553e-05
-3.58182e-05
-2.56228e-05
-3.59965e-05
-6.40823e-05
-9.26666e-05
-0.000105894
-0.000104996
-0.000108333
-0.000107093
-0.000110197
-0.000130606
-0.000144599
-0.000139949
-0.000105476
-6.83066e-05
-3.86067e-05
-3.46869e-05
-4.89278e-05
-5.00996e-05
-2.39826e-05
2.31342e-05
6.25768e-05
7.77279e-05
1.17861e-05
-6.40544e-05
-0.000115568
-0.000122661
-8.75001e-05
-6.79396e-05
-2.78055e-05
1.32558e-05
2.73476e-05
1.27237e-05
-5.79746e-06
-8.52225e-06
-1.13417e-06
4.07659e-06
-1.15306e-06
-1.27542e-05
-2.53293e-05
-2.87251e-05
-2.6232e-05
-4.09693e-05
-6.76858e-05
-9.03173e-05
-9.69436e-05
-9.38356e-05
-8.44747e-05
-7.78811e-05
-5.44894e-05
-7.55636e-05
-9.2639e-05
-0.000104795
-9.18301e-05
-5.88876e-05
-3.22631e-05
-3.08876e-05
-4.93478e-05
-5.85042e-05
-3.94909e-05
-6.8549e-06
2.92973e-05
6.74167e-05
2.51337e-05
-3.01174e-05
-8.36032e-05
-0.000110208
-0.000102697
-8.60156e-05
-5.15622e-05
-1.57225e-05
4.16484e-06
2.05378e-06
-8.5298e-06
-7.02314e-06
4.92116e-06
1.1268e-05
8.64871e-07
-2.20669e-05
-4.79478e-05
-6.27393e-05
-6.82901e-05
-7.74771e-05
-8.45582e-05
-8.3147e-05
-7.22529e-05
-6.34596e-05
-6.80996e-05
-8.25081e-05
-0.000103693
-8.33857e-05
-7.71611e-05
-7.02494e-05
-5.37249e-05
-3.2307e-05
-1.39276e-05
-5.30417e-06
-1.4831e-05
-3.73784e-05
-4.59788e-05
-4.008e-05
-1.84668e-05
-5.33488e-06
4.03505e-06
-2.35375e-05
-6.66126e-05
-0.00010045
-0.000103823
-9.53102e-05
-7.38039e-05
-4.57696e-05
-2.42414e-05
-1.43451e-05
-8.21865e-06
-4.63213e-06
4.3917e-06
6.4542e-06
-5.86885e-06
-3.32934e-05
-6.41078e-05
-8.52906e-05
-9.92714e-05
-0.000122479
-0.000123141
-0.000108004
-8.46175e-05
-6.69614e-05
-6.54524e-05
-7.32291e-05
-7.27911e-05
-6.17696e-05
-6.06621e-05
-5.72144e-05
-3.42305e-05
8.06067e-07
2.4e-05
2.77262e-05
5.99838e-06
-3.80824e-05
-4.79498e-05
-7.96772e-05
-6.63197e-05
-5.37945e-05
-2.62152e-05
-2.37117e-05
-4.48786e-05
-7.46094e-05
-9.43412e-05
0.000100298
9.81544e-05
7.74033e-05
5.49354e-05
4.70146e-05
4.071e-05
1.88029e-05
-1.80367e-05
-6.0217e-05
-0.000102988
-0.000133045
-0.000143794
-0.000137812
-0.000132523
-0.000144732
-0.000160262
-0.000147522
-0.000101475
-5.11967e-05
-1.84787e-05
-7.17654e-06
-1.16739e-05
-1.65953e-05
-2.01096e-05
-4.80357e-05
-9.84037e-05
-0.000151353
-0.000195129
-0.000192331
-0.000114479
-4.19533e-06
6.22851e-05
9.99955e-05
0.000139569
0.000158495
0.00014773
0.000136331
0.000140654
0.000138214
0.000115755
9.91085e-05
9.86375e-05
7.8988e-05
5.69781e-05
4.96445e-05
4.39033e-05
2.22141e-05
-1.48735e-05
-5.76248e-05
-0.000101441
-0.000132298
-0.000143688
-0.000138022
-0.000132622
-0.000144722
-0.000160608
-0.000148404
-0.000102558
-5.21904e-05
-1.94124e-05
-8.05036e-06
-1.25125e-05
-1.72159e-05
-2.03131e-05
-4.79603e-05
-9.80959e-05
-0.000151043
-0.000195466
-0.0001934
-0.000116671
-6.60726e-06
5.99799e-05
9.71241e-05
0.000136614
0.000155468
0.000144103
0.00013203
0.000136529
0.000135185
0.000113825
9.84656e-05
0.000101105
8.16228e-05
6.02408e-05
5.25461e-05
4.66239e-05
2.45328e-05
-1.33868e-05
-5.68304e-05
-0.000101758
-0.000132912
-0.000144801
-0.00013901
-0.000133102
-0.000145134
-0.000161833
-0.000150425
-0.000104419
-5.34866e-05
-2.03994e-05
-8.84721e-06
-1.3253e-05
-1.75741e-05
-1.98081e-05
-4.74255e-05
-9.77917e-05
-0.000150983
-0.000196254
-0.000195576
-0.00011973
-8.92947e-06
5.81003e-05
9.44484e-05
0.000134339
0.000153746
0.000141776
0.00012804
0.000131553
0.00013122
0.000111651
9.81557e-05
0.000104962
8.66139e-05
6.49664e-05
5.57303e-05
4.82071e-05
2.46176e-05
-1.4996e-05
-5.91319e-05
-0.000104309
-0.00013559
-0.000147448
-0.000140959
-0.000134156
-0.000146244
-0.000164264
-0.000154029
-0.000107478
-5.54619e-05
-2.16867e-05
-9.69853e-06
-1.4002e-05
-1.78791e-05
-1.85583e-05
-4.64115e-05
-9.75276e-05
-0.000151474
-0.000197878
-0.000198979
-0.00012349
-1.0544e-05
5.77928e-05
9.27712e-05
0.000133481
0.000153952
0.00014159
0.000125594
0.000126762
0.000126556
0.000108801
9.73506e-05
0.000110175
9.46897e-05
7.17812e-05
5.94429e-05
4.85255e-05
2.20137e-05
-2.03037e-05
-6.49594e-05
-0.000109675
-0.000140177
-0.000151381
-0.000143697
-0.000135703
-0.000147903
-0.000167608
-0.000158803
-0.000111727
-5.86009e-05
-2.39965e-05
-1.12536e-05
-1.53066e-05
-1.87252e-05
-1.87949e-05
-4.57355e-05
-9.78632e-05
-0.000153051
-0.000200717
-0.000204376
-0.000129301
-1.2631e-05
5.82038e-05
9.2278e-05
0.000134011
0.000155552
0.000143316
0.000125577
0.000123439
0.000121662
0.000104475
9.54548e-05
0.000115733
0.000106477
8.19746e-05
6.51366e-05
4.95881e-05
1.71719e-05
-2.92517e-05
-7.42555e-05
-0.000117754
-0.000146333
-0.00015621
-0.000146905
-0.000137506
-0.000149592
-0.000170954
-0.000163398
-0.000116091
-6.23552e-05
-2.73971e-05
-1.40334e-05
-1.7761e-05
-2.07072e-05
-1.94109e-05
-4.52132e-05
-9.89398e-05
-0.000156205
-0.000205876
-0.000214148
-0.00014163
-2.02735e-05
5.58147e-05
9.15959e-05
0.000135361
0.000157095
0.000145403
0.000127724
0.000122756
0.000117687
9.88532e-05
9.14819e-05
0.000119181
0.00012166
9.72438e-05
7.55075e-05
5.35183e-05
1.21125e-05
-4.08495e-05
-8.61906e-05
-0.000128044
-0.000153696
-0.000161636
-0.000150198
-0.00013917
-0.000150657
-0.00017272
-0.000166561
-0.000119668
-6.55419e-05
-3.02459e-05
-1.70123e-05
-2.13003e-05
-2.40995e-05
-2.07284e-05
-4.49122e-05
-0.000100713
-0.000160955
-0.00021386
-0.000230083
-0.000165431
-4.1707e-05
4.10523e-05
8.29061e-05
0.000134036
0.000155682
0.000143602
0.000128815
0.000124176
0.000115829
9.3111e-05
8.6376e-05
0.000119888
0.000137067
0.000116395
9.236e-05
6.48221e-05
1.21009e-05
-5.358e-05
-9.8696e-05
-0.000139409
-0.000161691
-0.000167829
-0.000153995
-0.000140746
-0.000150171
-0.000171619
-0.000166311
-0.000122753
-7.16856e-05
-3.55421e-05
-1.97788e-05
-2.49403e-05
-2.87913e-05
-2.28611e-05
-4.48525e-05
-0.000103212
-0.00016786
-0.000223342
-0.00024994
-0.000196869
-7.5816e-05
1.17254e-05
5.70887e-05
0.000116935
0.000148794