/*--------------------------------*- C++ -*----------------------------------*\
| =========                 |                                                 |
| \\      /  F ield         | OpenFOAM: The Open Source CFD Toolbox           |
|  \\    /   O peration     | Version:  2306                                  |
|   \\  /    A nd           | Website:  www.openfoam.com                      |
|    \\/     M anipulation  |                                                 |
\*---------------------------------------------------------------------------*/
FoamFile
{
    version     2.0;
    format      ascii;
    arch        "LSB;label=32;scalar=64";
    class       surfaceScalarField;
    location    "8.5";
    object      phi_0;
}
// * * * * * * * * * * * * * * * * * * * * * * * * * * * * * * * * * * * * * //

dimensions      [0 3 -1 0 0 0 0];

oriented        oriented;

internalField   nonuniform List<scalar> 
175300
(
4.35534e-06
4.3292e-07
-7.58682e-07
4.60832e-06
4.63123e-07
-5.15519e-07
4.95731e-06
3.51821e-07
-2.12523e-07
5.34509e-06
3.00566e-07
1.55614e-07
5.67354e-06
4.16042e-07
5.55771e-07
5.7942e-06
6.51201e-07
1.02685e-06
5.66864e-06
8.60957e-07
1.50038e-06
5.40749e-06
8.83442e-07
1.86655e-06
5.1655e-06
7.06025e-07
2.00045e-06
4.99402e-06
4.98529e-07
1.86775e-06
4.867e-06
3.40818e-07
1.59031e-06
4.7361e-06
2.29824e-07
1.33655e-06
4.56736e-06
1.15133e-07
1.22306e-06
4.3364e-06
-5.7339e-09
1.24317e-06
4.02355e-06
-7.69332e-08
1.31235e-06
3.68689e-06
-1.38385e-07
1.35173e-06
3.45566e-06
-2.49247e-07
1.31754e-06
3.38546e-06
-3.58384e-07
1.17863e-06
3.4332e-06
-4.23401e-07
9.39668e-07
3.52429e-06
-4.58521e-07
6.61994e-07
3.63519e-06
-4.93615e-07
4.22034e-07
3.79485e-06
-4.16662e-07
1.81372e-07
4.00965e-06
-2.46025e-07
-7.45493e-08
4.22937e-06
3.73619e-08
-3.00012e-07
4.43294e-06
2.71758e-07
-3.8793e-07
4.61625e-06
3.13299e-07
-3.24134e-07
4.77094e-06
9.79174e-08
-2.18388e-07
4.92339e-06
-3.98425e-07
-2.14239e-07
5.11602e-06
-9.22415e-07
-4.79551e-07
5.31282e-06
-1.08105e-06
-9.78903e-07
5.34838e-06
-7.26771e-07
-1.43666e-06
5.17973e-06
-2.04822e-07
-1.72704e-06
4.85928e-06
2.39639e-07
-1.96788e-06
4.45465e-06
4.78404e-07
-2.14731e-06
4.05671e-06
4.13503e-07
-2.10296e-06
3.79001e-06
1.18344e-07
-1.91099e-06
3.71676e-06
-1.02656e-07
-1.75438e-06
3.8202e-06
-1.1735e-07
-1.60589e-06
3.99837e-06
5.68511e-08
-1.36455e-06
2.96776e-07
-1.04907e-06
1.43746e-05
1.31291e-06
-2.14521e-06
1.53736e-05
1.22713e-06
-1.36605e-06
1.65992e-05
7.69648e-07
-4.05659e-07
1.78859e-05
6.59315e-07
6.86759e-07
1.89515e-05
1.07407e-06
1.99464e-06
1.94054e-05
1.85252e-06
3.46176e-06
1.90941e-05
2.53138e-06
4.85485e-06
1.82879e-05
2.64461e-06
5.83227e-06
1.7458e-05
2.15912e-06
6.07277e-06
1.68536e-05
1.51162e-06
5.58133e-06
1.64448e-05
9.85379e-07
4.72988e-06
1.60597e-05
6.17176e-07
3.98182e-06
1.55307e-05
2.76517e-07
3.61508e-06
1.47531e-05
-4.51252e-08
3.60231e-06
1.3738e-05
-2.78724e-07
3.75714e-06
1.27052e-05
-5.73928e-07
3.88794e-06
1.19629e-05
-1.04997e-06
3.83648e-06
1.16345e-05
-1.51186e-06
3.48951e-06
1.16302e-05
-1.75467e-06
2.8469e-06
1.17923e-05
-1.78745e-06
2.07067e-06
1.20709e-05
-1.70159e-06
1.32638e-06
1.25124e-05
-1.31606e-06
5.75137e-07
1.31031e-05
-6.14264e-07
-1.6798e-07
1.37591e-05
2.90627e-07
-7.45222e-07
1.44577e-05
8.30981e-07
-9.05345e-07
1.52086e-05
5.96641e-07
-6.96169e-07
1.59986e-05
-5.37449e-07
-4.20144e-07
1.68442e-05
-2.43406e-06
-4.95113e-07
1.76857e-05
-4.10745e-06
-1.2814e-06
1.82533e-05
-4.28569e-06
-2.63085e-06
1.8183e-05
-2.75574e-06
-3.91305e-06
1.74898e-05
-7.70967e-07
-4.83666e-06
1.64339e-05
7.50619e-07
-5.52069e-06
1.52531e-05
1.37875e-06
-5.83234e-06
1.41224e-05
9.94829e-07
-5.61156e-06
1.32246e-05
7.83687e-08
-5.21063e-06
1.27311e-05
-4.84044e-07
-4.94251e-06
1.27287e-05
-4.05377e-07
-4.58774e-06
1.30832e-05
2.0983e-07
-3.89558e-06
9.64336e-07
-2.99152e-06
2.62889e-05
2.19783e-06
-4.02088e-06
2.82233e-05
1.66372e-06
-2.74656e-06
3.0558e-05
6.21106e-07
-1.19914e-06
3.3018e-05
2.33619e-07
7.53602e-07
3.51747e-05
1.05255e-06
3.06539e-06
3.63756e-05
2.61484e-06
5.68867e-06
3.61897e-05
4.05643e-06
8.16945e-06
3.48672e-05
4.54491e-06
9.92663e-06
3.32303e-05
3.92499e-06
1.04497e-05
3.19413e-05
2.82208e-06
9.72556e-06
3.11162e-05
1.78281e-06
8.34111e-06
3.04594e-05
1.02152e-06
7.04997e-06
2.96044e-05
3.80349e-07
6.29068e-06
2.83148e-05
-1.65675e-07
6.04875e-06
2.65934e-05
-5.82153e-07
6.12828e-06
2.47542e-05
-1.18398e-06
6.32431e-06
2.32391e-05
-2.16718e-06
6.37227e-06
2.23007e-05
-3.16485e-06
5.9904e-06
2.19259e-05
-3.74832e-06
5.10228e-06
2.19507e-05
-3.84883e-06
3.93096e-06
2.22906e-05
-3.60053e-06
2.72817e-06
2.29629e-05
-2.72717e-06
1.47224e-06
2.39196e-05
-1.09581e-06
1.33999e-07
2.50644e-05
6.43921e-07
-7.85232e-07
2.64012e-05
1.42005e-06
-1.02578e-06
2.79522e-05
4.08964e-07
-5.77465e-07
2.96756e-05
-2.50313e-06
5.20779e-08
3.15462e-05
-6.75218e-06
8.2352e-08
3.33663e-05
-1.03425e-05
-9.64516e-07
3.45597e-05
-1.04292e-05
-3.15307e-06
3.45108e-05
-6.83288e-06
-5.47494e-06
3.33191e-05
-2.3237e-06
-7.31642e-06
3.1527e-05
1.03383e-06
-8.61405e-06
2.95844e-05
2.32298e-06
-9.10334e-06
2.76758e-05
1.50604e-06
-8.71782e-06
2.58979e-05
-2.30753e-07
-8.15844e-06
2.44898e-05
-1.1827e-06
-7.92972e-06
2.38347e-05
-9.22135e-07
-7.63558e-06
2.40261e-05
2.62427e-07
-6.74395e-06
1.64755e-06
-5.38002e-06
3.97472e-05
2.59964e-06
-6.97997e-06
4.26573e-05
1.36061e-06
-5.44884e-06
4.62751e-05
-9.55126e-07
-3.52502e-06
5.02298e-05
-2.36945e-06
-5.83627e-07
5.39997e-05
-1.11712e-06
2.6736e-06
5.66741e-05
1.52724e-06
6.64338e-06
5.73278e-05
4.20931e-06
1.05727e-05
5.58365e-05
5.66351e-06
1.35804e-05
5.32446e-05
5.4698e-06
1.48804e-05
5.08947e-05
4.21773e-06
1.43077e-05
4.93873e-05
2.64625e-06
1.2581e-05
4.84119e-05
1.35587e-06
1.07709e-05
4.73467e-05
3.25948e-07
9.50969e-06
4.57345e-05
-4.47583e-07
8.79169e-06
4.34664e-05
-9.75034e-07
8.48036e-06
4.08105e-05
-1.76782e-06
8.54056e-06
3.82149e-05
-3.14446e-06
8.74143e-06
3.60895e-05
-4.66385e-06
8.57628e-06
3.47135e-05
-5.79217e-06
7.73795e-06
3.41218e-05
-6.3211e-06
6.42376e-06
3.42393e-05
-6.21994e-06
4.95685e-06
3.49992e-05
-4.89244e-06
3.30646e-06
3.62643e-05
-2.08858e-06
1.46533e-06
3.7916e-05
8.54813e-07
-2.94772e-09
3.99847e-05
1.82818e-06
-3.37374e-07
4.24804e-05
-4.2755e-07
4.64554e-07
4.52612e-05
-6.02146e-06
1.86468e-06
4.82942e-05
-1.39586e-05
2.76617e-06
5.14396e-05
-2.05939e-05
1.79787e-06
5.38458e-05
-2.09667e-05
-1.20101e-06
5.44099e-05
-1.44972e-05
-5.00618e-06
5.31287e-05
-6.13601e-06
-8.37875e-06
5.08303e-05
2.50042e-07
-1.08554e-05
4.8264e-05
2.92864e-06
-1.18949e-05
4.56516e-05
1.88733e-06
-1.14142e-05
4.28782e-05
-7.55863e-07
-1.05845e-05
4.00338e-05
-2.13517e-06
-1.03987e-05
3.78598e-05
-1.67416e-06
-1.04763e-05
3.70918e-05
1.25339e-08
-9.90819e-06
1.94053e-06
-8.54268e-06
5.43176e-05
2.2832e-06
-1.12097e-05
5.77396e-05
-1.12236e-07
-1.00802e-05
6.24404e-05
-4.63668e-06
-8.34637e-06
6.80112e-05
-8.27825e-06
-5.28282e-06
7.39292e-05
-8.11565e-06
-4.32053e-07
7.91128e-05
-3.77005e-06
4.70711e-06
8.19283e-05
1.04018e-06
1.06281e-05
8.13197e-05
4.54677e-06
1.57096e-05
7.80737e-05
5.87103e-06
1.86607e-05
7.43198e-05
5.26882e-06
1.896e-05
7.16921e-05
3.44819e-06
1.7297e-05
7.02278e-05
1.56128e-06
1.51573e-05
6.90704e-05
7.93735e-09
1.35102e-05
6.74302e-05
-1.03519e-06
1.2262e-05
6.49717e-05
-1.55796e-06
1.12031e-05
6.17717e-05
-2.25988e-06
1.06462e-05
5.80497e-05
-3.63248e-06
1.07621e-05
5.41745e-05
-5.29314e-06
1.09584e-05
5.08394e-05
-6.91373e-06
1.05135e-05
4.86685e-05
-8.38709e-06
9.41742e-06
4.7884e-05
-9.2569e-06
8.0452e-06
4.83594e-05
-7.99172e-06
6.30475e-06
4.97505e-05
-3.89375e-06
4.02693e-06
5.18076e-05
7.38038e-07
1.96753e-06
5.45426e-05
2.15593e-06
1.45774e-06
5.78803e-05
-1.66104e-06
2.84572e-06
6.13903e-05
-1.08549e-05
5.69802e-06
6.50352e-05
-2.36658e-05
8.30176e-06
6.9402e-05
-3.51863e-05
8.40585e-06
7.39545e-05
-3.76116e-05
5.05182e-06
7.66224e-05
-2.82741e-05
-6.37763e-07
7.65153e-05
-1.4435e-05
-6.66305e-06
7.44935e-05
-3.11203e-06
-1.14979e-05
7.17234e-05
2.47071e-06
-1.40014e-05
6.86704e-05
2.01639e-06
-1.37528e-05
6.50903e-05
-1.3454e-06
-1.24715e-05
6.06769e-05
-3.1264e-06
-1.20716e-05
5.61957e-05
-2.42739e-06
-1.25543e-05
5.32078e-05
-3.98591e-07
-1.27984e-05
1.76919e-06
-1.22101e-05
7.08219e-05
1.75849e-06
-1.55968e-05
7.32448e-05
-2.32049e-06
-1.59084e-05
7.76648e-05
-1.02168e-05
-1.54915e-05
8.37595e-05
-1.79287e-05
-1.33555e-05
9.14005e-05
-2.07095e-05
-9.02896e-06
9.99542e-05
-1.70407e-05
-2.1413e-06
0.000107126
-9.1091e-06
5.70606e-06
0.000109796
-1.55886e-06
1.41353e-05
0.000107378
3.32475e-06
2.02612e-05
0.000102431
4.96181e-06
2.2755e-05
9.82295e-05
3.77143e-06
2.19166e-05
9.594e-05
1.5036e-06
1.97613e-05
9.47066e-05
-6.97425e-07
1.81008e-05
9.33103e-05
-2.15167e-06
1.67935e-05
9.11108e-05
-2.61254e-06
1.50221e-05
8.7976e-05
-2.89186e-06
1.32438e-05
8.37038e-05
-3.71516e-06
1.25609e-05
7.81369e-05
-4.81164e-06
1.28639e-05
7.20243e-05
-6.27598e-06
1.30106e-05
6.68231e-05
-8.70739e-06
1.24666e-05
6.37121e-05
-1.15539e-05
1.15692e-05
6.2959e-05
-1.1569e-05
1.01906e-05
6.39734e-05
-6.55197e-06
7.80064e-06
6.61107e-05
2.35992e-07
5.2727e-06
6.92256e-05
2.61908e-06
4.62787e-06
7.31474e-05
-2.85137e-06
6.77059e-06
7.6916e-05
-1.60658e-05
1.11766e-05
7.98116e-05
-3.40626e-05
1.57484e-05
8.34195e-05
-5.15409e-05
1.78773e-05
8.97356e-05
-5.88229e-05
1.58001e-05
9.6766e-05
-5.01669e-05
9.3824e-06
0.000100907
-3.07791e-05
1.8912e-07
0.000101346
-1.1781e-05
-8.94888e-06
9.95342e-05
-5.82021e-07
-1.47025e-05
9.66169e-05
1.35193e-06
-1.56992e-05
9.26956e-05
-1.94271e-06
-1.40354e-05
8.71958e-05
-3.88083e-06
-1.30086e-05
8.04395e-05
-2.7725e-06
-1.3501e-05
7.43656e-05
-4.12174e-07
-1.44978e-05
1.71877e-06
-1.51659e-05
9.29598e-05
1.95736e-06
-1.80755e-05
9.28144e-05
-3.72636e-06
-2.02083e-05
9.44551e-05
-1.53092e-05
-2.20873e-05
9.79884e-05
-2.82626e-05
-2.24836e-05
0.00010385
-3.58422e-05
-2.03925e-05
0.000113001
-3.53946e-05
-1.53571e-05
0.000125199
-2.85404e-05
-6.59645e-06
0.000135425
-1.78492e-05
5.08662e-06
0.000138129
-6.16099e-06
1.65917e-05
0.000134014
9.42977e-07
2.37899e-05
0.000128401
2.38905e-06
2.54223e-05
0.000124976
6.6277e-07
2.36874e-05
0.000123641
-2.03986e-06
2.22185e-05
0.000122651
-4.04681e-06
2.17611e-05
0.000120999
-4.5172e-06
2.03202e-05
0.0001186
-4.1365e-06
1.73157e-05
0.000114985
-3.95875e-06
1.48535e-05
0.000108994
-3.81939e-06
1.43814e-05
0.000100495
-4.11921e-06
1.49258e-05
9.12109e-05
-6.47736e-06
1.51305e-05
8.3712e-05
-1.13671e-05
1.49329e-05
7.97659e-05
-1.40714e-05
1.42588e-05
7.92118e-05
-9.35065e-06
1.21732e-05
8.08399e-05
-4.01256e-07
9.36831e-06
8.403e-05
3.57562e-06
8.56218e-06
8.85847e-05
-3.18866e-06
1.11508e-05
9.33074e-05
-2.01852e-05
1.61605e-05
9.60426e-05
-4.20879e-05
2.11025e-05
9.67849e-05
-6.34168e-05
2.44908e-05
0.000100063
-7.70624e-05
2.58324e-05
0.000109031
-7.44708e-05
2.26843e-05
0.000119994
-5.49711e-05
1.31619e-05
0.000127296
-2.91768e-05
-6.42918e-07
0.000129489
-9.04086e-06
-1.22043e-05
0.000128051
-1.44906e-06
-1.66002e-05
0.000124381
-2.76039e-06
-1.54465e-05
0.000118621
-4.18875e-06
-1.35835e-05
0.000110671
-2.45677e-06
-1.34613e-05
0.000102134
3.80105e-07
-1.46023e-05
2.39455e-06
-1.61765e-05
0.000123408
3.30651e-06
-1.75821e-05
0.000121709
-2.879e-06
-2.08085e-05
0.000119549
-1.62806e-05
-2.46367e-05
0.000117375
-3.35846e-05
-2.86008e-05
0.000117513
-4.67717e-05
-3.07121e-05
0.000121849
-5.10795e-05
-2.912e-05
0.000132862
-4.87569e-05
-2.28791e-05
0.000149351
-4.09132e-05
-1.14255e-05
0.000162211
-2.67292e-05
4.51867e-06
0.000164274
-1.09957e-05
1.89838e-05
0.000159387
-3.34795e-06
2.61617e-05
0.0001552
-2.56435e-06
2.60553e-05
0.000154179
-4.90196e-06
2.42983e-05
0.000154062
-7.14642e-06
2.49087e-05
0.000152951
-7.50856e-06
2.56107e-05
0.000151377
-6.34285e-06
2.30215e-05
0.000149604
-5.059e-06
1.85705e-05
0.000145568
-3.56633e-06
1.60562e-05
0.000137142
-2.12998e-06
1.62342e-05
0.000124785
-2.91807e-06
1.71792e-05
0.000111638
-8.15677e-06
1.78122e-05
0.000101787
-1.35411e-05
1.79468e-05
9.73603e-05
-1.07119e-05
1.65048e-05
9.74136e-05
-6.53604e-07
1.36148e-05
0.000100398
5.31704e-06
1.23668e-05
0.000105639
-1.66472e-06
1.47039e-05
0.00011219
-2.13947e-05
1.91245e-05
0.000117555
-4.58638e-05
2.2443e-05
0.000118354
-6.74732e-05
2.46844e-05
0.000116116
-8.29567e-05
2.87221e-05
0.000118991
-8.81766e-05
3.2486e-05
0.000131013
-7.72611e-05
2.84021e-05
0.000146188
-5.22467e-05
1.38909e-05
0.000156652
-2.48175e-05
-4.04637e-06
0.00015962
-8.25151e-06
-1.47178e-05
0.000157117
-4.1752e-06
-1.62696e-05
0.000151728
-3.7724e-06
-1.41057e-05
0.000144083
-1.52758e-06
-1.27466e-05
0.00013499
1.75929e-06
-1.31615e-05
3.87039e-06
-1.49091e-05
0.000157991
4.72494e-06
-1.35256e-05
0.000158478
-2.23503e-07
-1.69947e-05
0.000155684
-1.20902e-05
-2.16436e-05
0.000147854
-2.99655e-05
-2.86407e-05
0.000139931
-4.77718e-05
-3.65875e-05
0.000136788
-5.78264e-05
-4.09781e-05
0.000141264
-6.06827e-05
-3.85459e-05
0.000155748
-5.97888e-05
-2.90109e-05
0.000175549
-5.05879e-05
-1.29616e-05
0.000187528
-3.22237e-05
7.49183e-06
0.000186682
-1.51952e-05
2.25808e-05
0.000182008
-9.19517e-06
2.6373e-05
0.000181944
-1.08723e-05
2.37104e-05
0.000184662
-1.30819e-05
2.36337e-05
0.000184867
-1.1922e-05
2.68551e-05
0.000182989
-8.64449e-06
2.71919e-05
0.00018267
-6.43232e-06
2.26472e-05
0.000182999
-5.01035e-06
1.78463e-05
0.000179064
-2.83557e-06
1.67376e-05
0.000167869
-1.47205e-06
1.82793e-05
0.000150856
-4.38293e-06
1.99893e-05
0.000133478
-9.56068e-06
2.0934e-05
0.000121899
-8.58867e-06
2.03838e-05
0.000117977
5.93324e-07
1.7969e-05
0.00011985
7.54446e-06
1.6331e-05
0.000125569
9.24464e-07
1.75953e-05
0.000133603
-2.00205e-05
2.01267e-05
0.000141927
-4.56215e-05
2.08361e-05
0.000146525
-6.59347e-05
2.06693e-05
0.000143865
-7.8098e-05
2.50055e-05
0.000138865
-8.52353e-05
3.47652e-05
0.000143082
-8.56793e-05
3.96932e-05
0.000159376
-7.21421e-05
2.97599e-05
0.00017791
-4.61323e-05
9.66846e-06
0.00018683
-1.91972e-05
-8.31723e-06
0.000183453
-3.79964e-06
-1.52278e-05
0.000175358
6.61281e-07
-1.44674e-05
0.000168949
3.44458e-07
-1.15151e-05
0.000163839
1.37645e-06
-9.95527e-06
4.03019e-06
-1.08529e-05
0.000182913
2.57531e-06
-4.06892e-06
0.000191318
-4.53699e-07
-6.71755e-06
0.000195248
-7.32848e-06
-1.18319e-05
0.000187777
-1.94627e-05
-2.12327e-05
0.00017315
-3.71864e-05
-3.47695e-05
0.000161787
-5.32805e-05
-4.77091e-05
0.000158934
-6.18103e-05
-5.27461e-05
0.000166087
-6.65673e-05
-4.67604e-05
0.000183991
-6.71958e-05
-3.15286e-05
0.000204479
-5.59894e-05
-9.1706e-06
0.00021314
-3.47895e-05
1.362e-05
0.000208743
-1.87862e-05
2.45637e-05
0.000205159
-1.76122e-05
2.27272e-05
0.000209991
-2.2772e-05
1.93719e-05
0.000215145
-2.08045e-05
2.20044e-05
0.000212908
-1.05992e-05
2.5291e-05
0.00020879
-3.21474e-06
2.29626e-05
0.000210625
-4.11693e-06
1.73875e-05
0.000215489
-7.38054e-06
1.48773e-05
0.000213823
-7.56099e-06
1.71496e-05
0.000200116
-6.21301e-06
2.05963e-05
0.000177878
-5.37783e-06
2.26095e-05
0.000157048
-1.87158e-06
2.30323e-05
0.000145581
5.67382e-06
2.20588e-05
0.000144244
1.01172e-05
2.10757e-05
0.000150095
1.23e-06
2.10056e-05
0.000159735
-2.13672e-05
2.00983e-05
0.000170314
-4.63695e-05
1.61579e-05
0.000178157
-6.28073e-05
1.18072e-05
0.00017852
-6.88295e-05
1.55431e-05
0.000170726
-7.11975e-05
2.97421e-05
0.00016517
-7.72045e-05
4.34594e-05
0.000174106
-7.96575e-05
4.08248e-05
0.000193574
-6.51386e-05
2.16106e-05
0.000205909
-3.29298e-05
4.1038e-08
0.000200925
-2.29055e-06
-1.26933e-05
0.000186903
1.12698e-05
-1.48893e-05
0.000177345
7.98022e-06
-1.06671e-05
0.000175254
2.35118e-06
-5.62171e-06
1.89253e-06
-3.39311e-06
0.000194486
2.34765e-06
7.83498e-06
0.000208195
-2.89506e-06
1.00444e-05
0.000223958
-8.19483e-06
6.57296e-06
0.00022732
-1.10208e-05
-5.48112e-06
0.000213735
-1.94481e-05
-2.44766e-05
0.000195329
-3.72565e-05
-4.53015e-05
0.000185247
-5.333e-05
-6.08974e-05
0.000186192
-6.32247e-05
-6.32458e-05
0.000196769
-7.01208e-05
-5.17125e-05
0.000216275
-7.16286e-05
-2.95791e-05
0.000236122
-5.95946e-05
-2.90924e-06
0.000242367
-3.77729e-05
1.7688e-05
0.00023562
-2.47858e-05
2.21395e-05
0.000231809
-2.78106e-05
1.69563e-05
0.000238023
-3.10536e-05
1.49653e-05
0.000243071
-1.88655e-05
1.82434e-05
0.000239091
-9.55319e-07
1.97428e-05
0.00023411
3.81824e-06
1.63214e-05
0.000238027
-6.74519e-06
1.25093e-05
0.000247628
-1.96965e-05
1.39962e-05
0.000248438
-2.14198e-05
1.90346e-05
0.000231708
-9.80467e-06
2.22334e-05
0.000205359
5.63242e-06
2.31659e-05
0.000184483
1.62718e-05
2.43032e-05
0.000176736
1.55765e-05
2.627e-05
0.000180317
1.1064e-07
2.63862e-05
0.000190325
-2.69534e-05
2.15004e-05
0.000203067
-5.25952e-05
1.08284e-05
0.000214184
-6.39578e-05
-8.04937e-07
0.000217608
-6.05887e-05
-1.40338e-06
0.00020984
-5.44141e-05
1.70711e-05
0.000197162
-5.76352e-05
3.99658e-05
0.000194845
-7.16348e-05
4.69081e-05
0.0002078
-7.39232e-05
3.1189e-05
0.000220335
-4.59474e-05
7.97346e-06
0.00021763
-3.32782e-06
-9.10602e-06
0.000203463
2.1238e-05
-1.52853e-05
0.000191376
1.88942e-05
-1.22895e-05
0.000187095
7.85467e-06
-4.10129e-06
3.78255e-06
2.91685e-06
0.000209998
8.05397e-06
8.14686e-06
0.00021916
-3.01089e-06
1.79091e-05
0.000239878
-1.27592e-05
2.25127e-05
0.000257553
-1.00938e-05
1.40797e-05
0.000255516
-4.02385e-06
-8.15372e-06
0.000237165
-1.43357e-05
-3.49594e-05
0.000219585
-3.51804e-05
-5.90386e-05
0.000214282
-5.2238e-05
-7.28514e-05
0.000220037
-6.34569e-05
-7.03959e-05
0.000233271
-7.34798e-05
-5.24354e-05
0.00025325
-7.69067e-05
-2.46507e-05
0.000270837
-6.44956e-05
3.70105e-06
0.000273165
-4.15901e-05
1.77853e-05
0.000263363
-2.94662e-05
1.56283e-05
0.000258797
-3.10859e-05
9.86467e-06
0.000265217
-2.67442e-05
1.08469e-05
0.000271329
-9.29879e-06
1.58468e-05
0.000269102
5.30394e-06
1.72019e-05
0.000264632
1.25856e-06
1.36101e-05
0.000269163
-2.16511e-05
1.19614e-05
0.000280705
-4.09724e-05
1.61617e-05
0.000281132
-3.01701e-05
2.00835e-05
0.000261964
2.29983e-06
2.07475e-05
0.000237142
2.53727e-05
2.36418e-05
0.000221788
2.46017e-05
3.04411e-05
0.000218111
5.04689e-06
3.25909e-05
0.000222352
-2.57238e-05
2.34635e-05
0.000233737
-5.60651e-05
5.83542e-06
0.000249293
-7.13844e-05
-1.04817e-05
0.000258538
-6.21817e-05
-1.67083e-05
0.000253259
-4.32174e-05
-1.44239e-06
0.000236855
-3.63291e-05
2.97412e-05
0.000224001
-5.15183e-05
4.86358e-05
0.000225827
-6.75201e-05
4.01663e-05
0.000234687
-5.10259e-05
1.69898e-05
0.000236585
-6.83129e-06
-3.25336e-06
0.000229763
2.45673e-05
-1.47346e-05
0.000221105
2.6994e-05
-1.71576e-05
0.000214715
1.64154e-05
-1.08318e-05
1.12555e-05
-9.37267e-07
0.000240209
1.78077e-05
-4.82183e-06
0.000241389
2.09215e-06
5.90109e-06
0.000257699
-1.63756e-05
1.88968e-05
0.000282173
-1.54847e-05
2.1495e-05
0.0002941
1.32057e-06
5.98639e-06
0.000284346
5.6211e-06
-2.27709e-05
0.000263805
-1.24596e-05
-5.02766e-05
0.000250425
-3.44726e-05
-7.24365e-05
0.000251524
-5.07294e-05
-8.17988e-05
0.000261805
-6.58256e-05
-7.32705e-05
0.000276742
-8.13385e-05
-4.82898e-05
0.000293948
-8.42205e-05
-1.62059e-05
0.000303876
-6.39298e-05
7.63249e-06
0.000299224
-3.66755e-05
1.20651e-05
0.000289118
-2.55863e-05
6.35262e-06
0.000287915
-2.48134e-05
5.28185e-06
0.000296622
-1.77346e-05
1.23391e-05
0.000304576
-4.17725e-06
1.90588e-05
0.000304167
2.05095e-06
1.8252e-05
0.000299834
-1.32404e-05
1.32511e-05
0.000302848
-4.22442e-05
1.21827e-05
0.000311582
-4.84856e-05
1.492e-05
0.000310549
-1.80996e-05
1.71084e-05
0.000295412
1.66026e-05
2.28073e-05
0.00027725
2.70201e-05
3.37917e-05
0.000264339
1.64455e-05
3.73112e-05
0.000257444
-7.84584e-06
2.32535e-05
0.000260268
-4.14995e-05
-1.18728e-08
0.000276531
-7.14701e-05
-1.82915e-05
0.000294724
-7.23057e-05
-2.59879e-05
0.000297078
-4.5858e-05
-1.54148e-05
0.000281411
-2.45932e-05
1.67161e-05
0.000261608
-2.89018e-05
4.61236e-05
0.00025209
-4.79802e-05
4.87082e-05
0.00025389
-4.32375e-05
2.81397e-05
0.000257629
-7.9993e-06
5.09669e-06
0.000259318
2.30823e-05
-1.25812e-05
0.000258722
2.82928e-05
-2.14213e-05
0.000254812
2.21702e-05
-1.98757e-05
2.07868e-05
-1.24789e-05
0.000289017
2.55271e-05
-2.09559e-05
0.000283319
1.00434e-05
-1.45287e-05
0.000289333
-1.3254e-05
-5.77273e-07
0.000310513
-2.04577e-05
1.09041e-05
0.000332145
-2.87271e-06
6.42157e-06
0.000334649
1.38817e-05
-1.4862e-05
0.000316714
6.98986e-06
-4.10466e-05
0.00029632
-1.23295e-05
-6.67602e-05
0.000290259
-3.15702e-05
-8.50228e-05
0.000298673
-5.16842e-05
-8.72582e-05
0.000311817
-7.54845e-05
-6.99433e-05
0.000324636
-9.16339e-05
-3.83996e-05
0.000333885
-8.02899e-05
-8.51029e-06
0.000333341
-4.71199e-05
5.47156e-06
0.00032486
-2.17628e-05
3.15571e-06
0.000319259
-1.62904e-05
6.1271e-07
0.000323526
-1.68424e-05
7.67874e-06
0.000334556
-1.21156e-05
1.99073e-05
0.000343735
-5.50052e-06
2.56189e-05
0.000343758
-9.66124e-06
2.01293e-05
0.00033695
-2.9798e-05
1.12157e-05
0.000333459
-4.57589e-05
9.39197e-06
0.000333683
-3.46053e-05
1.57274e-05
0.000328081
-6.29118e-06
2.7258e-05
0.000315853
1.54679e-05
3.81589e-05
0.000304757
2.14496e-05
3.65945e-05
0.000297388
1.04274e-05
1.71681e-05
0.0002949
-1.81225e-05
-8.12427e-06
0.000305756
-5.71765e-05
-2.60003e-05
0.000327307
-7.64688e-05
-3.04493e-05
0.00033864
-5.73333e-05
-2.08017e-05
0.000327705
-2.58406e-05
6.8714e-06
0.000305164
-1.55316e-05
4.07813e-05
0.000287819
-2.51111e-05
5.45641e-05
0.000282278
-2.40676e-05
4.07769e-05
0.000284757
2.88505e-07
1.57493e-05
0.000291101
2.33144e-05
-7.22622e-06
0.000298302
2.55224e-05
-2.22139e-05
0.000301362
2.07348e-05
-2.64894e-05
2.39684e-05
-2.38226e-05
0.000343853
2.09734e-05
-3.24802e-05
0.000337503
1.35544e-05
-2.78732e-05
0.000332441
-4.57577e-06
-1.52644e-05
0.000341876
-1.57855e-05
-3.01486e-06
0.00036499
-6.39796e-06
-1.43124e-06
0.000380698
1.21766e-05
-1.35395e-05
0.000373154
1.77513e-05
-3.371e-05
0.000351768
8.90295e-06
-5.85883e-05
0.000338838
-6.63039e-06
-8.24311e-05
0.00034337
-2.94309e-05
-9.44212e-05
0.000356532
-6.08063e-05
-8.70828e-05
0.000367541
-8.80152e-05
-6.12275e-05
0.000373199
-8.75223e-05
-2.8244e-05
0.000372104
-5.56404e-05
-6.07009e-06
0.000364854
-2.07917e-05
-1.19376e-06
0.000357931
-6.43177e-06
-2.94121e-06
0.000358149
-8.11553e-06
3.37204e-06
0.000367226
-1.18581e-05
1.88551e-05
0.000380284
-1.1991e-05
3.11532e-05
0.0003865
-1.26548e-05
2.90241e-05
0.000377889
-2.00758e-05
1.65634e-05
0.000360126
-3.01529e-05
9.46019e-06
0.000345439
-3.04e-05
1.48748e-05
0.000338002
-1.74999e-05
2.45685e-05
0.000336802
-5.60586e-07
2.84417e-05
0.000340241
1.30532e-05
2.05048e-05
0.000342498
1.65742e-05
1.54238e-06
0.000341174
3.86208e-07
-1.87478e-05
0.000346167
-3.68184e-05
-3.24672e-05
0.000364309
-7.09465e-05
-3.29768e-05
0.000380167
-6.75678e-05
-2.1233e-05
0.00037398
-3.52347e-05
3.70048e-06
0.000350523
-1.27879e-05
3.57522e-05
0.000329137
-9.6913e-06
5.47887e-05
0.000320515
-4.99296e-06
4.76315e-05
0.000321824
1.3804e-05
2.53553e-05
0.000326669
3.06411e-05
2.42224e-06
0.000332528
2.92946e-05
-1.53799e-05
0.000338912
1.87443e-05
-2.57727e-05
1.72212e-05
-3.07139e-05
0.000379635
4.42496e-06
-2.85189e-05
0.000380977
4.44059e-06
-2.28986e-05
0.000373094
-4.95168e-07
-1.134e-05
0.000371094
-4.5189e-06
-3.08721e-06
0.000387583
1.54335e-07
-3.30652e-06
0.000412064
1.20254e-05
-1.21169e-05
0.000420869
2.31372e-05
-2.79984e-05
0.000408771
2.55599e-05
-4.99625e-05
0.000395732
1.86398e-05
-7.50455e-05
0.000397786
-1.7716e-06
-9.41072e-05
0.000410261
-3.74849e-05
-9.76473e-05
0.000420439
-7.45289e-05
-8.15815e-05
0.000422953
-8.52123e-05
-5.17019e-05
0.000419014
-5.96941e-05
-2.3328e-05
0.000411037
-2.15655e-05
-8.5717e-06
0.000403759
7.44855e-07
-4.43183e-06
0.000401886
2.93138e-06
9.99158e-07
0.000406826
-3.54864e-06
1.37021e-05
0.000416025
-9.91582e-06
2.83976e-05
0.00042213
-1.47657e-05
3.37544e-05
0.000416512
-1.76917e-05
2.4844e-05
0.00039825
-1.67488e-05
1.13015e-05
0.00037776
-1.33052e-05
5.71673e-06
0.000367556
-1.13168e-05
7.90873e-06
0.000372105
-1.12303e-05
9.7504e-06
0.000383939
-5.29568e-06
5.79839e-06
0.000390096
6.76918e-06
-4.78644e-06
0.000387766
8.97172e-06
-1.75965e-05
0.000388447
-1.64812e-05
-2.5725e-05
0.000401767
-5.7645e-05
-2.53291e-05
0.000418897
-7.21882e-05
-1.53909e-05
0.000419342
-4.80163e-05
5.46704e-06
0.000400133
-1.89835e-05
3.41116e-05
0.000378043
-3.58709e-06
5.37076e-05
0.000365372
1.01724e-05
4.89881e-05
0.000360633
3.00945e-05
3.01266e-05
0.000357532
4.32961e-05
1.43705e-05
0.000355417
3.6234e-05
2.90728e-06
0.000358703
1.71896e-05
-1.02662e-05
4.82171e-06
-2.30369e-05
0.00040954
-9.97774e-06
-1.39403e-05
0.000417387
-8.18807e-06
-1.41195e-05
0.000413123
-2.68192e-06
-3.82852e-06
0.00040637
6.56688e-06
6.84376e-06
0.000412318
1.71327e-05
7.39407e-06
0.000434422
2.48476e-05
-4.15431e-06
0.000456887
2.94067e-05
-2.14278e-05
0.000464703
3.41337e-05
-3.89482e-05
0.00046311
3.61372e-05
-5.97876e-05
0.000467599
2.51442e-05
-8.25631e-05
0.000479179
-7.61096e-06
-9.80979e-05
0.000486584
-5.00054e-05
-9.53901e-05
0.000484348
-7.05504e-05
-7.36633e-05
0.000475253
-5.30022e-05
-4.45609e-05
0.000463439
-1.80284e-05
-2.17705e-05
0.00045409
4.81252e-06
-8.50594e-06
0.000451097
8.91974e-06
4.52323e-07
0.000452896
4.78958e-06
1.08228e-05
0.000455154
-1.55576e-06
2.42288e-05
0.000454098
-9.17466e-06
3.28766e-05
0.000447562
-1.34263e-05
2.76491e-05
0.000435936
-8.29944e-06
1.16329e-05
0.000424755
-3.51605e-07
-2.25012e-06
0.000421238
-3.22305e-06
-5.339e-06
0.000427438
-1.77734e-05
-1.04004e-07
0.000435763
-2.41158e-05
5.12586e-06
0.000435997
-9.05106e-06
2.58142e-06
0.000429209
9.32555e-06
-4.45614e-06
0.000427131
6.09359e-07
-1.02511e-05
0.000437329
-3.67896e-05
-1.14772e-05
0.000454909
-6.67173e-05
-4.97541e-06
0.000464448
-5.91912e-05
1.08552e-05
0.000455903
-2.88237e-05
3.33771e-05
0.000436006
-6.90046e-07
5.06211e-05
0.000415948
2.22804e-05
4.97283e-05
0.00039961
4.38608e-05
3.49896e-05
0.000387121
5.55851e-05
2.12218e-05
0.000380691
4.57545e-05
1.39644e-05
0.000382916
2.03271e-05
7.58679e-06
-2.33353e-06
-3.65595e-06
0.000447727
-2.7781e-06
7.71269e-06
0.000454604
-4.10113e-06
2.37089e-06
0.000452275
3.3371e-06
5.48071e-06
0.000446309
1.85267e-05
1.32181e-05
0.00044766
3.58874e-05
1.74658e-05
0.000461887
4.53052e-05
1.2613e-05
0.000483538
4.27663e-05
-8.73991e-07
0.000504031
3.58384e-05
-1.8148e-05
0.000522199
3.32331e-05
-3.67995e-05
0.000541219
3.03387e-05
-5.86135e-05
0.000557757
1.22394e-05
-8.1491e-05
0.000563358
-2.15777e-05
-9.44573e-05
0.000555585
-4.5142e-05
-8.65228e-05
0.000540535
-3.75742e-05
-6.10603e-05
0.000524188
-1.16141e-05
-3.36817e-05
0.000510519
7.68592e-06
-1.52143e-05
0.000502149
1.29931e-05
-3.60239e-06
0.00049792
1.19566e-05
7.6578e-06
0.0004945
7.92988e-06
2.0633e-05
0.000488568
1.12921e-06
2.98457e-05
0.000480465
-2.69105e-06
2.52681e-05
0.000475809
1.5778e-06
7.25405e-06
0.000480325
7.18681e-06
-1.07329e-05
0.000491795
-1.05157e-06
-1.29305e-05
0.000499482
-2.40242e-05
-2.75223e-07
0.000495141
-3.83381e-05
1.33657e-05
0.000481702
-2.41453e-05
1.75826e-05
0.000471131
3.35088e-06
1.78774e-05
0.000472185
1.17082e-05
1.76485e-05
0.000484362
-1.20722e-05
1.1443e-05
0.00050162
-4.67695e-05
4.65523e-06
0.000514305
-5.7192e-05
1.11729e-05
0.000512193
-3.36919e-05
3.13398e-05
0.000494603
2.55026e-06
4.75309e-05
0.000468393
3.28213e-05
4.46005e-05
0.000441956
5.34659e-05
3.01297e-05
0.000423473
6.16079e-05
2.28519e-05
0.000417491
5.31192e-05
2.61804e-05
0.000422744
3.18644e-05
2.76539e-05
9.78036e-06
1.92382e-05
0.000494959
1.98119e-05
2.08471e-05
0.000508094
1.53818e-05
7.9631e-06
0.00051222
1.77153e-05
6.61091e-06
0.000508183
2.71377e-05
1.76705e-05
0.000505099
4.27182e-05
3.07747e-05
0.000510525
5.67749e-05
3.30631e-05
0.000523389
5.78057e-05
2.02922e-05
0.000540439
4.27988e-05
1.8763e-06
0.000563037
2.20746e-05
-1.17354e-05
0.000591981
8.45582e-06
-2.48564e-05
0.000618907
1.0699e-06
-4.79739e-05
0.00062973
-8.87727e-06
-7.51533e-05
0.000622801
-1.97016e-05
-8.7306e-05
0.000610124
-1.84714e-05
-7.72804e-05
0.00059923
-4.78349e-06
-5.44e-05
0.000588665
6.76115e-06
-3.0395e-05
0.000575406
1.33847e-05
-1.15061e-05
0.00056029
1.77626e-05
1.04439e-06
0.000545976
1.75616e-05
1.05775e-05
0.000534513
1.11086e-05
2.05345e-05
0.000528597
2.45924e-06
2.71875e-05
0.000533168
-2.59061e-06
2.25819e-05
0.000551434
-8.23865e-06
9.01462e-06
0.000575392
-2.14426e-05
-1.23475e-06
0.000586524
-4.07645e-05
4.95786e-06
0.000574323
-5.12867e-05
2.61671e-05
0.000549234
-3.6136e-05
4.72106e-05
0.000531666
-6.23353e-07
5.66559e-05
0.000530699
2.74711e-05
4.98188e-05
0.000540932
2.32595e-05
2.72117e-05
0.000554812
-9.49919e-06
4.81913e-06
0.000565932
-3.90873e-05
8.01719e-07
0.000563747
-3.31018e-05
1.61968e-05
0.000543384
2.42168e-06
3.51767e-05
0.000511364
3.99182e-05
3.92688e-05
0.000480834
6.36258e-05
2.93993e-05
0.000462903
7.27845e-05
2.36583e-05
0.000459765
6.79316e-05
2.95618e-05
0.000466628
5.16557e-05
3.71075e-05
3.26483e-05
3.43904e-05
0.000556596
3.61102e-05
1.06702e-05
0.000566806
2.78375e-05
1.34977e-05
0.000569954
2.64699e-05
1.81662e-05
0.000565838
3.02376e-05
2.54e-05
0.000561401
3.81199e-05
3.43745e-05
0.000564243
4.54185e-05
4.15363e-05
0.000575816
4.34166e-05
4.0414e-05
0.00059181
2.86438e-05
2.68617e-05
0.000609656
7.03065e-06
5.64256e-06
0.00063152
-9.38359e-06
-1.60843e-05
0.00065923
-1.73147e-05
-3.63191e-05
0.000684111
-1.85173e-05
-5.56546e-05
0.000693509
-1.43363e-05
-7.06642e-05
0.000686693
-3.35183e-06
-7.57853e-05
0.000674482
1.04491e-05
-6.94168e-05
0.000664058
1.81544e-05
-5.44691e-05
0.00065545
1.95064e-05
-3.53212e-05
0.000645078
1.86582e-05
-1.88537e-05
0.000630544
1.65344e-05
-9.17496e-06
0.000613759
1.24885e-05
-5.92056e-07
0.00060231
6.69653e-06
1.16238e-05
0.000603965
-4.21951e-06
2.44441e-05
0.000619197
-2.38424e-05
2.91516e-05
0.000638344
-4.69057e-05
2.40777e-05
0.000647025
-6.14356e-05
2.02392e-05
0.000638043
-5.86258e-05
3.12463e-05
0.000618035
-3.5427e-05
5.35293e-05
0.000599307
3.87462e-06
6.54136e-05
0.000588791
3.76215e-05
5.17444e-05
0.000586524
4.12775e-05
1.84773e-05
0.000593344
1.04262e-05
-1.09528e-05
0.000605112
-2.98697e-05
-1.70708e-05
0.000609459
-4.09564e-05
-1.05088e-07
0.000595392
-1.18923e-05
2.34393e-05
0.000567173
3.37937e-05
3.67847e-05
0.00054118
6.99607e-05
3.48349e-05
0.000528825
9.03952e-05