/*--------------------------------*- C++ -*----------------------------------*\
| =========                 |                                                 |
| \\      /  F ield         | OpenFOAM: The Open Source CFD Toolbox           |
|  \\    /   O peration     | Version:  2306                                  |
|   \\  /    A nd           | Website:  www.openfoam.com                      |
|    \\/     M anipulation  |                                                 |
\*---------------------------------------------------------------------------*/
FoamFile
{
    version     2.0;
    format      ascii;
    arch        "LSB;label=32;scalar=64";
    class       volScalarField;
    location    "8.5";
    object      pMean;
}
// * * * * * * * * * * * * * * * * * * * * * * * * * * * * * * * * * * * * * //

dimensions      [0 2 -2 0 0 0 0];

internalField   nonuniform List<scalar> 
60000
(
-9.80804e-06
-1.02294e-05
-3.66993e-06
4.0778e-06
1.03809e-05
1.32497e-05
1.08908e-05
3.46477e-06
-4.24407e-06
-4.46356e-06
6.07161e-06
2.31651e-05
3.99178e-05
5.15988e-05
5.74839e-05
5.87232e-05
5.46411e-05
4.31769e-05
2.44076e-05
1.91055e-06
-1.8054e-05
-3.15498e-05
-3.93548e-05
-4.23603e-05
-3.91518e-05
-2.79938e-05
-6.40489e-06
2.65291e-05
6.30708e-05
9.03827e-05
0.000102578
0.000105473
0.000106721
0.00010916
0.000110791
0.00010748
9.37174e-05
6.66726e-05
3.25804e-05
4.14881e-06
-9.73673e-06
-1.0563e-05
-4.21742e-06
3.41619e-06
9.59855e-06
1.23444e-05
9.87031e-06
2.35033e-06
-5.4245e-06
-5.68626e-06
4.90026e-06
2.20999e-05
3.89697e-05
5.08058e-05
5.6901e-05
5.83814e-05
5.452e-05
4.32273e-05
2.45761e-05
2.15338e-06
-1.77817e-05
-3.13175e-05
-3.92929e-05
-4.26675e-05
-3.99709e-05
-2.93449e-05
-8.16129e-06
2.46594e-05
6.14245e-05
8.91544e-05
0.000101786
0.000105095
0.000106721
0.000109503
0.000111469
0.000108549
9.51037e-05
6.81151e-05
3.37234e-05
4.75521e-06
-1.10215e-05
-1.21646e-05
-5.88372e-06
1.75475e-06
7.92546e-06
1.06891e-05
8.26835e-06
7.64804e-07
-7.11201e-06
-7.45373e-06
3.26219e-06
2.07158e-05
3.78254e-05
4.98844e-05
5.62212e-05
5.79734e-05
5.43747e-05
4.32594e-05
2.46841e-05
2.26364e-06
-1.77067e-05
-3.13514e-05
-3.95844e-05
-4.3379e-05
-4.11905e-05
-3.11255e-05
-1.04822e-05
2.21558e-05
5.91744e-05
8.73104e-05
0.000100321
0.000104033
0.000106086
0.000109241
0.000111517
0.000108901
9.56935e-05
6.86301e-05
3.37374e-05
4.05525e-06
-1.37134e-05
-1.50757e-05
-8.72254e-06
-1.00056e-06
5.19421e-06
8.0134e-06
5.72796e-06
-1.62023e-06
-9.495e-06
-9.88855e-06
1.06171e-06
1.89954e-05
3.65608e-05
4.89606e-05
5.55759e-05
5.76163e-05
5.43118e-05
4.33645e-05
2.48082e-05
2.3442e-06
-1.76942e-05
-3.1506e-05
-4.0093e-05
-4.43578e-05
-4.26529e-05
-3.31117e-05
-1.3116e-05
1.91871e-05
5.64213e-05
8.4856e-05
9.80355e-05
0.000102068
0.00010464
0.000108309
0.000110928
0.000108511
9.5361e-05
6.8078e-05
3.25297e-05
1.97218e-06
-1.71856e-05
-1.88426e-05
-1.24539e-05
-4.63869e-06
1.43786e-06
4.21576e-06
2.12876e-06
-4.81832e-06
-1.23687e-05
-1.27012e-05
-1.49931e-06
1.70557e-05
3.53206e-05
4.82146e-05
5.51385e-05
5.74417e-05
5.43894e-05
4.35847e-05
2.50093e-05
2.4856e-06
-1.76031e-05
-3.16688e-05
-4.08691e-05
-4.5866e-05
-4.47459e-05
-3.5841e-05
-1.66729e-05
1.51383e-05
5.26682e-05
8.16244e-05
9.50342e-05
9.93309e-05
0.000102534
0.000107017
0.000110274
0.000108174
9.48994e-05
6.71958e-05
3.08574e-05
-7.14734e-07
-2.11838e-05
-2.34965e-05
-1.72599e-05
-9.45967e-06
-3.62005e-06
-1.20639e-06
-2.89969e-06
-8.93429e-06
-1.5546e-05
-1.54325e-05
-3.94599e-06
1.52175e-05
3.43641e-05
4.7969e-05
5.52674e-05
5.77901e-05
5.49087e-05
4.4094e-05
2.52898e-05
2.52199e-06
-1.77733e-05
-3.2345e-05
-4.28653e-05
-4.96239e-05
-4.98231e-05
-4.17695e-05
-2.35488e-05
7.67705e-06
4.59475e-05
7.64265e-05
9.09227e-05
9.60399e-05
0.000100231
0.000105941
0.000110368
0.000109114
9.59236e-05
6.73379e-05
2.95718e-05
-3.48183e-06
-2.50845e-05
-2.87741e-05
-2.30102e-05
-1.54938e-05
-1.03608e-05
-8.96219e-06
-1.0952e-05
-1.54406e-05
-1.97219e-05
-1.79603e-05
-5.71213e-06
1.40352e-05
3.40937e-05
4.85695e-05
5.63544e-05
5.90552e-05
5.62296e-05
4.51926e-05
2.58054e-05
2.33282e-06
-1.85266e-05
-3.38227e-05
-4.60075e-05
-5.54892e-05
-5.83486e-05
-5.20003e-05
-3.49648e-05
-4.28228e-06
3.51592e-05
6.8098e-05
8.50956e-05
9.19792e-05
9.76813e-05
0.000105178
0.000111436
0.00011195
9.98052e-05
7.07824e-05
3.09673e-05
-4.91617e-06
-2.81562e-05
-3.44305e-05
-2.9555e-05
-2.22595e-05
-1.79425e-05
-1.81164e-05
-2.13896e-05
-2.54954e-05
-2.76165e-05
-2.28404e-05
-7.90076e-06
1.36041e-05
3.48732e-05
5.02982e-05
5.85924e-05
6.14862e-05
5.86337e-05
4.71755e-05
2.68807e-05
2.25576e-06
-1.93271e-05
-3.46844e-05
-4.72377e-05
-5.84198e-05
-6.37063e-05
-5.94701e-05
-4.39487e-05
-1.42286e-05
2.54378e-05
5.95715e-05
7.77702e-05
8.59878e-05
9.34777e-05
0.000103002
0.000111453
0.000114514
0.000105168
7.7616e-05
3.61824e-05
-3.8044e-06
-2.8482e-05
-3.87475e-05
-3.59969e-05
-2.94551e-05
-2.59596e-05
-2.78896e-05
-3.30294e-05
-3.77111e-05
-3.84068e-05
-3.14909e-05
-1.40852e-05
1.02067e-05
3.42825e-05
5.1721e-05
6.09744e-05
6.42405e-05
6.17661e-05
5.0342e-05
2.91987e-05
3.54866e-06
-1.80119e-05
-3.17668e-05
-4.22547e-05
-5.28116e-05
-5.91639e-05
-5.66335e-05
-4.2731e-05
-1.45354e-05
2.37078e-05
5.62397e-05
7.20065e-05
7.77833e-05
8.4726e-05
9.54518e-05
0.000106293
0.000112366
0.000106625
8.27972e-05
4.29628e-05
5.8088e-07
-2.43944e-05
-3.89395e-05
-3.94936e-05
-3.49078e-05
-3.2877e-05
-3.68098e-05
-4.45029e-05
-5.08009e-05
-5.15092e-05
-4.29595e-05
-2.37506e-05
2.25682e-06
2.8425e-05
4.83767e-05
5.95264e-05
6.3818e-05
6.21977e-05
5.19495e-05
3.17428e-05
6.66357e-06
-1.40453e-05
-2.47361e-05
-3.07651e-05
-3.79866e-05
-4.34213e-05
-4.14907e-05
-2.90511e-05
-2.9218e-06
3.20841e-05
5.99772e-05
6.97748e-05
6.97745e-05
7.32981e-05
8.35637e-05
9.63902e-05
0.000105933
0.000104362
8.62003e-05
5.06128e-05
8.33397e-06
-1.19534e-05
-3.10824e-05
-3.6601e-05
-3.56918e-05
-3.55965e-05
-4.14586e-05
-5.20482e-05
-6.13545e-05
-6.36932e-05
-5.54875e-05
-3.54631e-05
-8.63195e-06
1.79749e-05
3.83563e-05
5.07832e-05
5.66169e-05
5.67084e-05
4.83085e-05
2.99858e-05
7.38343e-06
-9.99518e-06
-1.66561e-05
-1.69455e-05
-1.86606e-05
-2.0818e-05
-1.81282e-05
-6.62547e-06
1.6542e-05
4.66619e-05
6.84206e-05
7.09861e-05
6.33665e-05
6.13094e-05
6.99627e-05
8.45372e-05
9.76995e-05
0.000101505
9.09458e-05
6.2399e-05
2.30038e-05
1.14444e-05
-1.26455e-05
-2.44811e-05
-2.9573e-05
-3.28328e-05
-3.99461e-05
-5.2834e-05
-6.5561e-05
-7.13628e-05
-6.53722e-05
-4.60054e-05
-1.87293e-05
7.72959e-06
2.63628e-05
3.68861e-05
4.21151e-05
4.32297e-05
3.74955e-05
2.24831e-05
2.92184e-06
-1.03661e-05
-1.14333e-05
-5.07672e-06
7.87857e-07
4.18203e-06
8.75206e-06
1.94877e-05
3.8292e-05
6.14821e-05
7.75436e-05
7.61361e-05
6.34664e-05
5.62074e-05
6.14584e-05
7.62031e-05
9.19637e-05
0.000101134
9.878e-05
7.96379e-05
4.60063e-05
3.60306e-05
1.0087e-05
-6.46937e-06
-1.71443e-05
-2.49889e-05
-3.3378e-05
-4.69505e-05
-6.21985e-05
-7.23349e-05
-7.08349e-05
-5.46689e-05
-2.74335e-05
-7.02386e-08
1.72222e-05
2.41535e-05
2.60256e-05
2.64456e-05
2.25197e-05
1.13248e-05
-3.57278e-06
-1.32343e-05
-1.08456e-05
1.77214e-06
1.66769e-05
2.77672e-05
3.57846e-05
4.49827e-05
5.89111e-05
7.45933e-05
8.55615e-05
8.4102e-05
7.23201e-05
6.21633e-05
6.27954e-05
7.49944e-05
9.04991e-05
0.000102514
0.000105598
9.51681e-05
6.87687e-05
5.50074e-05
2.99912e-05
1.18859e-05
-1.48576e-06
-1.18052e-05
-2.14607e-05
-3.43685e-05
-5.10112e-05
-6.51708e-05
-6.93697e-05
-5.8801e-05
-3.39473e-05
-5.64754e-06
1.17863e-05
1.64116e-05
1.5608e-05
1.48763e-05
1.21297e-05
3.94358e-06
-7.36664e-06
-1.51103e-05
-1.29758e-05
7.73587e-07
2.14511e-05
3.98126e-05
5.20883e-05
6.16603e-05
7.18051e-05
8.25134e-05
9.01622e-05
9.11913e-05
8.46115e-05
7.59498e-05
7.37352e-05
8.03358e-05
9.19201e-05
0.000102308
0.000107375
0.00010231
8.27509e-05
6.88622e-05
4.85075e-05
3.18116e-05
1.83541e-05
7.16928e-06
-3.36715e-06
-1.59104e-05
-3.3673e-05
-5.0915e-05
-6.04292e-05
-5.65379e-05
-3.69203e-05
-9.71413e-06
9.80293e-06
1.56696e-05
1.42852e-05
1.2618e-05
1.06572e-05
4.53211e-06
-4.60575e-06
-1.14969e-05
-1.13261e-05
-6.30206e-07
1.96526e-05
4.19298e-05
5.87013e-05
6.90656e-05
7.66886e-05
8.29991e-05
8.75422e-05
9.02347e-05
8.94253e-05
8.54079e-05
8.32647e-05
8.6338e-05
9.298e-05
9.91102e-05
0.00010237
9.9772e-05
8.8313e-05
8.03728e-05
6.58485e-05
5.07989e-05
3.78904e-05
2.70715e-05
1.6324e-05
3.20033e-06
-1.51235e-05
-3.42817e-05
-4.70876e-05
-4.85153e-05
-3.53637e-05
-1.26483e-05
7.11934e-06
1.56654e-05
1.58886e-05
1.4144e-05
1.19359e-05
6.89014e-06
-3.05481e-07
-5.14884e-06
-4.39133e-06
3.88142e-06
2.04682e-05
4.24165e-05
6.13832e-05
7.27138e-05
7.79891e-05
7.95826e-05
7.93831e-05
8.12769e-05
8.35765e-05
8.32904e-05
8.35131e-05
8.61874e-05
9.03604e-05
9.34667e-05
9.46578e-05
9.40992e-05
9.03144e-05
8.70539e-05
7.6783e-05
6.29977e-05
5.0378e-05
3.98769e-05
3.05021e-05
1.76561e-05
3.74682e-07
-1.84704e-05
-3.26284e-05
-3.77583e-05
-3.05861e-05
-1.33204e-05
4.33067e-06
1.39992e-05
1.57749e-05
1.47278e-05
1.2847e-05
9.13182e-06
4.20073e-06
2.20889e-06
5.04428e-06
1.27567e-05
2.56948e-05
4.37739e-05
6.15883e-05
7.28962e-05
7.71246e-05
7.66441e-05
7.40553e-05
7.39084e-05
7.72964e-05
7.96535e-05
8.06288e-05
8.20226e-05
8.4389e-05
8.62996e-05
8.73847e-05
8.8601e-05
9.01516e-05
8.65412e-05
8.01832e-05
6.91685e-05
5.69957e-05
4.71306e-05
3.87081e-05
2.68624e-05
1.10328e-05
-5.72012e-06
-1.92079e-05
-2.62092e-05
-2.39554e-05
-1.22951e-05
3.46306e-06
1.45584e-05
1.7873e-05
1.74264e-05
1.57329e-05
1.30387e-05
9.76835e-06
8.38562e-06
1.06878e-05
1.68273e-05
2.70828e-05
4.23287e-05
5.83465e-05
6.90595e-05
7.28732e-05
7.18141e-05
6.85545e-05
6.67878e-05
6.95388e-05
7.47418e-05
7.8908e-05
8.1766e-05
8.35657e-05
8.40321e-05
8.38441e-05
8.50449e-05
8.68997e-05
8.05072e-05
7.47984e-05
6.43416e-05
5.29534e-05
4.43733e-05
3.88841e-05
3.16257e-05
1.88115e-05
2.40756e-06
-1.20961e-05
-1.98284e-05
-2.08968e-05
-1.52656e-05
-4.24465e-06
6.36557e-06
1.31905e-05
1.6521e-05
1.78735e-05
1.83526e-05
1.84123e-05
1.89532e-05
2.12583e-05
2.62252e-05
3.48371e-05
4.73189e-05
6.17515e-05
7.10923e-05
7.27476e-05
6.99009e-05
6.56944e-05
6.23256e-05
6.32745e-05
6.83227e-05
7.34862e-05
7.67035e-05
7.84951e-05
7.98543e-05
8.02067e-05
8.0056e-05
8.08626e-05
6.324e-05
5.72109e-05
4.7734e-05
3.76885e-05
3.00447e-05
2.52122e-05
2.07451e-05
1.33017e-05
2.60322e-06
-8.95474e-06
-1.77303e-05
-2.22399e-05
-2.10676e-05
-1.4556e-05
-6.53752e-06
-9.49759e-07
2.89115e-06
6.20646e-06
9.05557e-06
1.08927e-05
1.29696e-05
1.7075e-05
2.49245e-05
3.59351e-05
4.80429e-05
5.92086e-05
6.51804e-05
6.31792e-05
5.70086e-05
5.16181e-05
5.04028e-05
5.29442e-05
5.85162e-05
6.39053e-05
6.50542e-05
6.51794e-05
6.65301e-05
6.76297e-05
6.71737e-05
6.56704e-05
5.51009e-05
4.95948e-05
4.02201e-05
2.93423e-05
2.00373e-05
1.29823e-05
6.97417e-06
-5.75626e-07
-9.09812e-06
-1.66513e-05
-2.21922e-05
-2.57154e-05
-2.72589e-05
-2.61241e-05
-2.21133e-05
-1.70149e-05
-1.17276e-05
-6.71167e-06
-2.29867e-06
1.06698e-06
3.9295e-06
8.16597e-06
1.70407e-05
3.0714e-05
4.56911e-05
5.69367e-05
6.02465e-05
5.43385e-05
4.24592e-05
3.31988e-05
3.11613e-05
3.38575e-05
3.89302e-05
4.25284e-05
4.31505e-05
4.29242e-05
4.47001e-05
4.8703e-05
5.36309e-05
5.61455e-05
6.16457e-05
5.76473e-05
4.84661e-05
3.83749e-05
3.0346e-05
2.38058e-05
1.7245e-05
7.90732e-06
-3.2485e-06
-1.35927e-05
-2.09393e-05
-2.46928e-05
-2.63556e-05
-2.74184e-05
-2.72769e-05
-2.42724e-05
-1.91523e-05
-1.36291e-05
-8.5617e-06
-3.87188e-06
1.34273e-06
7.48205e-06
1.70229e-05
3.15062e-05
4.77441e-05
6.05855e-05
6.56453e-05
5.94395e-05
4.43198e-05
3.0229e-05
2.42781e-05
2.57194e-05
3.06897e-05
3.2832e-05
3.02086e-05
2.63762e-05
2.76135e-05
3.55224e-05
4.78874e-05
5.80033e-05
5.48227e-05
5.38188e-05
4.69508e-05
3.78189e-05
2.97881e-05
2.35405e-05
1.8365e-05
1.26944e-05
4.51883e-06
-4.75401e-06
-1.32664e-05
-1.92538e-05
-2.20405e-05
-2.23367e-05
-2.09229e-05
-1.6863e-05
-1.05717e-05
-4.08935e-06
1.42383e-06
6.99757e-06
1.35642e-05
2.03371e-05
2.75297e-05
3.7112e-05
4.88751e-05
5.93704e-05
6.41216e-05
6.0797e-05
4.97633e-05
3.70412e-05
3.03116e-05
3.11381e-05
3.57311e-05
3.93156e-05
3.77459e-05
3.25313e-05
3.02365e-05
3.3199e-05
4.10815e-05
4.98827e-05
4.22243e-05
3.9913e-05
3.3197e-05
2.53448e-05
1.86275e-05
1.40584e-05
9.82013e-06
4.76061e-06
-1.82558e-06
-8.50508e-06
-1.40288e-05
-1.70399e-05
-1.68476e-05
-1.43599e-05
-1.05323e-05
-5.46067e-06
5.63369e-07
6.19973e-06
1.06173e-05
1.46548e-05
2.0225e-05
2.67736e-05
3.30632e-05
4.01024e-05
4.78294e-05
5.36205e-05
5.58426e-05
5.24577e-05
4.29046e-05
3.00936e-05
2.04726e-05
1.8437e-05
2.23698e-05
2.70671e-05
2.91023e-05
2.78787e-05
2.66443e-05
2.85423e-05
3.36901e-05
3.95618e-05
3.02208e-05
2.64314e-05
1.94322e-05
1.15996e-05
5.69871e-06
2.41048e-06
-6.39185e-08
-4.03798e-06
-8.89532e-06
-1.4718e-05
-2.0026e-05
-2.16242e-05
-1.96941e-05
-1.52087e-05
-9.73752e-06
-2.58014e-06
6.08713e-06
1.50476e-05
2.34435e-05
3.07582e-05
3.71149e-05
4.19205e-05
4.3745e-05
4.4287e-05
4.61957e-05
4.80783e-05
4.62828e-05
3.99297e-05
2.88616e-05
1.55376e-05
5.16817e-06
3.07042e-06
8.39076e-06
1.49062e-05
2.02803e-05
2.45295e-05
2.59307e-05
2.7332e-05
2.90512e-05
3.01484e-05
1.95007e-05
5.58739e-09
-1.00532e-05
-1.73205e-05
-2.42556e-05
-3.13329e-05
-3.88216e-05
-4.61689e-05
-4.99324e-05
-4.52021e-05
-3.16323e-05
-1.46395e-05
-3.97908e-08
1.03647e-05
1.83931e-05
2.53374e-05
2.92566e-05
2.66836e-05
1.57821e-05
-4.6945e-07
-1.47613e-05
-2.08572e-05
-1.81353e-05
-9.4056e-06
3.9767e-06
2.37142e-05
5.20675e-05
8.9737e-05
0.000131237
0.000163299
0.000177647
0.000181026
0.000183669
0.00018574
0.000184181
0.000179522
0.000168013
0.000141146
9.87075e-05
5.35727e-05
2.07402e-05
9.22225e-07
-9.44361e-06
-1.69697e-05
-2.40934e-05
-3.13873e-05
-3.91027e-05
-4.67194e-05
-5.0745e-05
-4.61665e-05
-3.26032e-05
-1.55624e-05
-9.17245e-07
9.52378e-06
1.76132e-05
2.46681e-05
2.87547e-05
2.63554e-05
1.55777e-05
-6.84285e-07
-1.51826e-05
-2.16474e-05
-1.93818e-05
-1.11656e-05
1.71431e-06
2.10307e-05
4.90932e-05
8.6653e-05
0.000128265
0.000160631
0.000175346
0.000179057
0.000182059
0.00018457
0.000183475
0.000179337
0.000168524
0.000142339
0.000100271
5.50941e-05
2.14119e-05
1.21556e-06
-9.47013e-06
-1.73098e-05
-2.47428e-05
-3.23371e-05
-4.03451e-05
-4.82472e-05
-5.25151e-05
-4.79981e-05
-3.43006e-05
-1.70614e-05
-2.29846e-06
8.19e-06
1.6367e-05
2.36165e-05
2.7983e-05
2.58887e-05
1.53314e-05
-9.18385e-07
-1.56388e-05
-2.24554e-05
-2.05721e-05
-1.27932e-05
-3.60288e-07
1.85672e-05
4.64109e-05
8.39222e-05
0.000125677
0.000158259
0.000173111
0.000176965
0.000180328
0.000183386
0.000182787
0.000179213
0.000169195
0.000143723
0.000101829
5.62843e-05
2.10846e-05
4.96859e-07
-1.05028e-05
-1.88314e-05
-2.68487e-05
-3.49802e-05
-4.32895e-05
-5.12944e-05
-5.5549e-05
-5.08416e-05
-3.67734e-05
-1.91455e-05
-4.16983e-06
6.38205e-06
1.46602e-05
2.2187e-05
2.69445e-05
2.52971e-05
1.50913e-05
-1.03382e-06
-1.58558e-05
-2.28675e-05
-2.11417e-05
-1.36028e-05
-1.45665e-06
1.71251e-05
4.48059e-05
8.22958e-05
0.00012414
0.000156729
0.000171279
0.000174821
0.000178375
0.000182073
0.000182018
0.000179043
0.000169859
0.00014501
0.000102979
5.66849e-05
1.95454e-05
-1.33026e-06
-1.25995e-05
-2.16826e-05
-3.07201e-05
-3.97267e-05
-4.83064e-05
-5.59458e-05
-5.95961e-05
-5.4337e-05
-3.97394e-05
-2.1591e-05
-6.28782e-06
4.34888e-06
1.26906e-05
2.04679e-05
2.56431e-05
2.44863e-05
1.47376e-05
-1.12267e-06
-1.5902e-05
-2.29875e-05
-2.1296e-05
-1.38522e-05
-1.97448e-06
1.62818e-05
4.3706e-05
8.10291e-05
0.000122941
0.000155605
0.000169749
0.000172558
0.000175957
0.000180258
0.000180828
0.000178505
0.000170218
0.000145911
0.000103476
5.60501e-05
1.70829e-05
-4.04521e-06
-1.55086e-05
-2.57212e-05
-3.65116e-05
-4.68507e-05
-5.58113e-05
-6.24953e-05
-6.45439e-05
-5.79353e-05
-4.25647e-05
-2.38765e-05
-8.13782e-06
2.68057e-06
1.1046e-05
1.89448e-05
2.44115e-05
2.3661e-05
1.43075e-05
-1.35033e-06
-1.61823e-05
-2.3578e-05
-2.23506e-05
-1.56028e-05
-4.66505e-06
1.26744e-05
3.93755e-05
7.63429e-05
0.000118619
0.000152271
0.000167078
0.000169709
0.000172867
0.000177553
0.00017878
0.000177259
0.000170054
0.00014645
0.000103501
5.464e-05
1.56528e-05
-5.62915e-06
-1.70119e-05
-2.86247e-05
-4.24276e-05
-5.56149e-05
-6.58211e-05
-7.17021e-05
-7.13003e-05
-6.21161e-05
-4.51551e-05
-2.56605e-05
-9.31747e-06
1.93846e-06
1.04351e-05
1.83417e-05
2.38884e-05
2.33144e-05
1.40276e-05
-2.01069e-06
-1.7778e-05
-2.64797e-05
-2.68249e-05
-2.21262e-05
-1.36479e-05
1.35865e-06
2.64889e-05
6.29779e-05
0.000106318
0.000142584
0.000160057
0.00016397
0.000167667
0.000172915
0.000174728
0.000174358
0.000169023
0.000146976
0.000104381
5.44048e-05
1.91078e-05
-2.63773e-06
-1.39392e-05
-2.66953e-05
-4.40446e-05
-6.1947e-05
-7.57388e-05
-8.25155e-05
-8.0535e-05
-6.88083e-05
-4.96587e-05
-2.8487e-05
-1.0799e-05
1.47547e-06
1.04935e-05
1.86309e-05
2.43403e-05
2.38709e-05
1.42733e-05
-3.10481e-06
-2.13671e-05
-3.30003e-05
-3.6113e-05
-3.45191e-05
-2.9535e-05
-1.77128e-05
5.123e-06
4.11628e-05
8.593e-05
0.000125396
0.00014689
0.000153432
0.000158225
0.000164537
0.000167064
0.000167919
0.000165773
0.000147637
0.000107802
5.85748e-05
3.07609e-05
7.71701e-06
-4.49028e-06
-1.84661e-05
-3.9234e-05
-6.27822e-05
-8.21145e-05
-9.21777e-05
-9.0673e-05
-7.76866e-05
-5.68266e-05
-3.38789e-05
-1.42933e-05
-3.68268e-07
9.5717e-06
1.80469e-05
2.41327e-05
2.41593e-05
1.47216e-05
-4.05092e-06
-2.55311e-05
-4.09214e-05
-4.68645e-05
-4.7495e-05
-4.51089e-05
-3.58291e-05
-1.50299e-05
1.99958e-05
6.49002e-05
0.000105673
0.000129599
0.000138296
0.000143987
0.000151616
0.00015556
0.000157908
0.000159734
0.00014826
0.000115072
6.9812e-05
4.88619e-05
2.42228e-05
9.92172e-06
-5.67025e-06
-2.88906e-05
-5.73666e-05
-8.31415e-05
-9.89159e-05
-0.000100348
-8.80503e-05
-6.62174e-05
-4.14154e-05
-2.02547e-05
-4.99017e-06
5.84484e-06
1.48409e-05
2.13264e-05
2.18767e-05
1.31067e-05
-5.32093e-06
-2.79155e-05
-4.5808e-05
-5.36621e-05
-5.5064e-05
-5.36963e-05
-4.60736e-05
-2.70185e-05
6.18131e-06
4.94336e-05
8.87342e-05
0.000112233
0.000121413
0.000127601
0.000136433
0.000143212
0.000148362
0.000154861
0.000150986
0.000125676
8.61489e-05
7.06016e-05
4.25653e-05
2.46784e-05
7.70726e-06
-1.58668e-05
-4.6326e-05
-7.73511e-05
-9.98601e-05
-0.000106748
-9.71016e-05
-7.61759e-05
-4.99573e-05
-2.73334e-05
-1.17752e-05
-1.25474e-06
7.7391e-06
1.48252e-05
1.60989e-05
8.10664e-06
-9.07085e-06
-3.02596e-05
-4.74726e-05
-5.47712e-05
-5.47087e-05
-5.23997e-05
-4.53793e-05
-2.79735e-05
2.05134e-06
4.12574e-05
7.65201e-05
9.77185e-05
0.000106033
0.000112311
0.000122997
0.000133915
0.00014371
0.000155789
0.000159966
0.000142737
0.000107799
9.2985e-05
6.08608e-05
3.77107e-05
1.84658e-05
-3.50299e-06
-3.23645e-05
-6.52123e-05
-9.37893e-05
-0.000107328
-0.00010361
-8.55999e-05
-5.92244e-05
-3.47966e-05
-1.92835e-05
-1.03167e-05
-2.57801e-06
4.64854e-06
6.69988e-06
-5.83389e-07
-1.65495e-05
-3.52399e-05
-4.93733e-05
-5.35729e-05
-5.00832e-05
-4.4881e-05
-3.75033e-05
-2.21504e-05
3.79288e-06
3.7776e-05
6.80527e-05
8.68508e-05
9.46448e-05
0.000100001
0.000110865
0.000124959
0.000139577
0.000156818
0.000168184
0.000159723
0.000130196
0.000111353
7.68235e-05
4.90895e-05
2.7649e-05
7.59514e-06
-1.77481e-05
-5.00514e-05
-8.21231e-05
-0.000102674
-0.000105993
-9.30531e-05
-6.8265e-05
-4.20138e-05
-2.51346e-05
-1.74796e-05
-1.20686e-05
-5.98072e-06
-3.87962e-06
-1.10112e-05
-2.62968e-05
-4.28677e-05
-5.4075e-05
-5.53371e-05
-4.82846e-05
-3.8248e-05
-2.85847e-05
-1.46621e-05
7.48046e-06
3.57947e-05
6.08658e-05
7.84329e-05
8.76778e-05
9.29027e-05
0.000102509
0.000116883
0.000133326
0.000152557
0.000168568
0.000168518
0.000146106
0.000121821
8.8833e-05
5.98357e-05
3.73755e-05
1.88381e-05
-3.12793e-06
-3.31936e-05
-6.64954e-05
-9.17673e-05
-0.000101663
-9.50367e-05
-7.3721e-05
-4.68848e-05
-2.76011e-05
-1.95524e-05
-1.58557e-05
-1.1315e-05
-8.99649e-06
-1.43369e-05
-2.73179e-05
-4.1548e-05
-5.13124e-05
-5.17436e-05
-4.27658e-05
-2.91569e-05
-1.65867e-05
-3.36838e-06
1.61248e-05
3.821e-05
5.74994e-05
7.23472e-05
8.27087e-05
8.90774e-05
9.71877e-05
0.000109703
0.000124206
0.000141587
0.000158226
0.000164089
0.000150586
0.000122531
9.65238e-05
7.0355e-05
4.80286e-05
2.97752e-05
9.67715e-06
-1.76069e-05
-5.03902e-05
-7.77335e-05
-9.14278e-05
-8.99752e-05
-7.32429e-05
-4.77454e-05
-2.60094e-05
-1.50228e-05
-1.11069e-05
-8.53355e-06
-6.84561e-06
-1.01017e-05
-1.96642e-05
-3.10901e-05
-3.9287e-05
-3.99271e-05
-3.17515e-05
-1.76313e-05
-2.73603e-06
1.13732e-05
2.84144e-05
4.51941e-05
5.83608e-05
6.90475e-05
7.92256e-05
8.64191e-05
9.31059e-05
0.000102602
0.000113873
0.000126714
0.000140009
0.000148234
0.000142605
0.000123823
0.000105474
8.31828e-05
6.07704e-05
4.08913e-05
2.09374e-05
-4.08362e-06
-3.48532e-05
-6.23912e-05
-7.76755e-05
-7.91275e-05
-6.73632e-05
-4.53911e-05
-2.3101e-05
-9.6492e-06
-4.67806e-06
-3.72967e-06
-4.7102e-06
-7.97969e-06
-1.56945e-05
-2.46983e-05
-3.05693e-05
-2.97713e-05
-2.16548e-05
-7.43215e-06
9.5863e-06
2.61078e-05
4.0954e-05
5.27144e-05
6.0148e-05
6.6681e-05
7.61949e-05
8.43248e-05
9.04522e-05
9.8038e-05
0.000107413
0.000117202
0.000127046
0.000134103
0.000134362
0.000124761
0.000112496
9.37211e-05
7.19817e-05
5.08389e-05
3.09819e-05
8.61891e-06
-1.88084e-05
-4.46905e-05
-6.10359e-05
-6.49728e-05
-5.84146e-05
-4.25828e-05
-2.27022e-05
-7.49266e-06
3.7275e-10
2.61785e-06
2.27066e-06
-9.37617e-07
-7.19628e-06
-1.4468e-05
-1.82326e-05
-1.61672e-05
-8.38518e-06
4.85198e-06
2.20478e-05
3.83549e-05
5.06654e-05
5.8698e-05
6.23817e-05
6.61451e-05
7.44583e-05
8.36917e-05
9.06137e-05
9.69925e-05
0.000103943
0.000111085
0.000117759
0.000124289
0.000128397
0.000119027
0.000111649
9.69787e-05
7.79403e-05
5.83935e-05
4.03275e-05
2.11935e-05
-8.82865e-07
-2.12528e-05
-3.51133e-05
-4.18727e-05
-4.2001e-05
-3.47756e-05
-2.11657e-05
-7.36036e-06
1.45448e-06
6.08789e-06
8.47415e-06
8.19307e-06
3.15588e-06
-4.01527e-06
-7.64281e-06
-5.25337e-06
2.52155e-06
1.51357e-05
3.15841e-05
4.699e-05
5.71833e-05
6.26633e-05
6.48629e-05
6.73479e-05
7.36165e-05
8.21256e-05
8.99e-05
9.59503e-05
0.000101333
0.000105339
0.000108561
0.000113042
0.000118253
0.00010199
9.82597e-05
8.85245e-05
7.51461e-05
6.0909e-05
4.76238e-05
3.3964e-05
1.77112e-05
2.35415e-07
-1.3201e-05
-1.94082e-05
-2.17981e-05
-2.19471e-05
-1.69392e-05
-7.8897e-06
2.26765e-07
5.64789e-06
9.0253e-06
1.02225e-05
8.06655e-06
3.75359e-06
1.63325e-06
3.88037e-06
1.15494e-05
2.38416e-05
3.90605e-05
5.25097e-05
6.06093e-05
6.37899e-05
6.51189e-05
6.67494e-05
7.12363e-05
7.71877e-05
8.2952e-05
8.73733e-05
9.1527e-05
9.45709e-05
9.52503e-05
9.59413e-05
9.93829e-05
8.14651e-05
7.75864e-05
7.00624e-05
6.0565e-05
5.08689e-05
4.20244e-05
3.25014e-05
2.1292e-05
8.72207e-06
-3.9494e-06
-1.34816e-05
-1.98433e-05
-2.25243e-05
-2.05502e-05
-1.48242e-05
-8.30871e-06
-2.50032e-06
2.19884e-06
5.48895e-06
5.61234e-06
2.8657e-06
7.42201e-07
4.285e-06
1.35254e-05
2.56573e-05
3.80283e-05
4.79875e-05
5.37244e-05
5.53941e-05
5.58528e-05
5.96705e-05
6.51058e-05
7.02212e-05
7.38502e-05
7.56341e-05
7.79383e-05
8.07066e-05
8.20974e-05
8.21636e-05
8.22138e-05
7.24943e-05
6.78373e-05
6.00187e-05
5.0922e-05
4.21597e-05
3.379e-05
2.47557e-05
1.40899e-05
2.92748e-06
-7.6778e-06
-1.72023e-05
-2.48944e-05
-3.10612e-05
-3.39844e-05
-3.27562e-05
-2.83924e-05
-2.25923e-05
-1.66686e-05
-1.15002e-05
-7.77981e-06
-5.80383e-06
-4.16485e-06
1.50074e-06
1.28792e-05
2.607e-05
3.71294e-05
4.44437e-05
4.76582e-05
4.74647e-05
4.7418e-05
5.01394e-05
5.51939e-05
5.86978e-05
5.9861e-05
5.97341e-05
6.08904e-05
6.49968e-05
6.99752e-05
7.31032e-05
7.41006e-05
7.43865e-05
7.0709e-05
6.33018e-05
5.51013e-05
4.78544e-05
4.15802e-05
3.39641e-05
2.31326e-05
1.0319e-05
-1.78781e-06
-1.2234e-05
-2.13891e-05
-2.97312e-05
-3.66018e-05
-4.09139e-05
-4.16579e-05
-3.83622e-05
-3.2907e-05
-2.76678e-05
-2.32078e-05
-1.84227e-05
-1.31304e-05
-5.14485e-06
8.40437e-06
2.5432e-05
4.01725e-05
4.93774e-05
5.19959e-05
4.8548e-05
4.38907e-05
4.33813e-05
4.68175e-05
5.07781e-05
5.24619e-05
5.08715e-05
4.91312e-05
5.1857e-05
5.91418e-05
6.74778e-05
7.33106e-05
6.3643e-05
6.24835e-05
5.7315e-05
5.0017e-05
4.26708e-05
3.64177e-05
3.06121e-05
2.4094e-05
1.59979e-05
7.85476e-06
4.66243e-07
-5.81505e-06
-1.13678e-05
-1.66184e-05
-2.08688e-05
-2.22649e-05
-1.9997e-05
-1.56556e-05
-1.1382e-05
-7.65994e-06
-3.94008e-06
1.75392e-07
4.77163e-06
1.2535e-05
2.3815e-05
3.51801e-05
4.27297e-05
4.41306e-05
4.00357e-05
3.46253e-05
3.28854e-05
3.57997e-05
4.09975e-05
4.50456e-05
4.5622e-05
4.37237e-05
4.40459e-05
4.7775e-05
5.37871e-05
6.02474e-05
5.12668e-05
4.95224e-05
4.38297e-05
3.63164e-05
2.93885e-05
2.41964e-05
1.96576e-05
1.48964e-05
8.57731e-06
1.25431e-06
-5.57458e-06
-1.03088e-05
-1.22407e-05
-1.24517e-05
-1.13129e-05
-8.71077e-06
-4.87757e-06
-7.60737e-07
2.82446e-06
5.92407e-06
9.79372e-06
1.47841e-05
1.98703e-05
2.52871e-05
3.22583e-05
3.91029e-05
4.2974e-05
4.22902e-05
3.68598e-05
2.87319e-05
2.27724e-05
2.25201e-05
2.64236e-05
3.08174e-05
3.32633e-05
3.38632e-05
3.42976e-05
3.69905e-05
4.2386e-05
4.83435e-05
3.82961e-05
3.33892e-05
2.57692e-05
1.75267e-05
1.09065e-05
6.86261e-06
3.94799e-06
-5.88758e-08
-4.96933e-06
-1.06609e-05
-1.5762e-05
-1.79043e-05
-1.71641e-05
-1.41375e-05
-9.75676e-06
-3.10698e-06
5.07574e-06
1.33552e-05
2.06834e-05
2.65263e-05
3.09331e-05
3.38461e-05
3.51905e-05
3.66418e-05
4.01235e-05
4.36234e-05
4.39732e-05
3.98789e-05
3.19641e-05
2.25757e-05
1.61594e-05
1.55355e-05
1.89849e-05
2.40804e-05
2.87414e-05
3.18914e-05
3.38358e-05
3.56092e-05
3.788e-05
3.94666e-05
7.21342e-05
3.87937e-05
1.09072e-05
-8.61303e-06
-1.91658e-05
-2.37486e-05
-2.69452e-05
-3.16757e-05
-3.71013e-05
-3.9025e-05
-3.55084e-05
-2.92998e-05
-2.41061e-05
-2.02762e-05
-1.47644e-05
-5.88102e-06
3.43342e-06
8.03517e-06
5.82315e-06
-5.92177e-07
-5.98355e-06
-5.50253e-06
1.23455e-06
1.02721e-05
2.01696e-05
3.38546e-05
5.38424e-05
8.25847e-05
0.000119001
0.000155568
0.000185097
0.000208012
0.000224582
0.000230667
0.000226512
0.000216615
0.000201492
0.000177895
0.000145395
0.000108422
7.3749e-05
4.05436e-05
1.26125e-05
-7.04927e-06
-1.78505e-05
-2.27118e-05
-2.61734e-05
-3.11469e-05
-3.67945e-05
-3.88879e-05
-3.54529e-05
-2.92712e-05
-2.40913e-05
-2.03263e-05
-1.49513e-05
-6.18352e-06
3.0484e-06
7.56829e-06
5.24668e-06
-1.28245e-06
-6.77631e-06
-6.38293e-06
2.99128e-07
9.23976e-06
1.89327e-05
3.23136e-05
5.18841e-05
8.01219e-05
0.000116038
0.000152254
0.000181617
0.00020461
0.000221529
0.000228068
0.000224426
0.000215183
0.000200853
0.000178073
0.000146259
0.000109748
7.55389e-05
4.2106e-05
1.37005e-05
-6.46795e-06
-1.77607e-05
-2.29577e-05
-2.65799e-05
-3.1621e-05
-3.73474e-05
-3.95097e-05
-3.60898e-05
-2.98742e-05
-2.4693e-05
-2.10021e-05
-1.5685e-05
-6.8992e-06
2.44495e-06
7.04198e-06
4.69324e-06
-1.92546e-06
-7.54105e-06
-7.26659e-06
-6.2347e-07
8.28582e-06
1.78127e-05
3.09518e-05
5.01637e-05
7.78798e-05
0.000113208
0.000148944
0.000178014
0.000201142
0.000218687
0.000225932
0.000222908
0.000214318
0.00020078
0.000178833
0.000147688
0.000111494
7.74176e-05
4.32815e-05
1.38034e-05
-7.48329e-06
-1.97305e-05
-2.54241e-05
-2.90857e-05
-3.39152e-05
-3.94241e-05
-4.1468e-05
-3.79669e-05
-3.16479e-05
-2.64456e-05
-2.28286e-05
-1.75076e-05
-8.47364e-06
1.32713e-06
6.30064e-06
4.10798e-06
-2.47998e-06
-8.11492e-06
-7.86404e-06
-1.1473e-06
7.86117e-06
1.72834e-05
3.02613e-05
4.9235e-05
7.65598e-05
0.000111372
0.000146572
0.000175137
0.000198271
0.00021663
0.000224808
0.00022248
0.000214519
0.00020165
0.000180366
0.000149721
0.000113649
7.95935e-05
4.44004e-05
1.3203e-05
-1.00031e-05
-2.38797e-05
-3.0474e-05
-3.41437e-05
-3.83983e-05
-4.32704e-05
-4.49629e-05
-4.13333e-05
-3.49286e-05
-2.9743e-05
-2.62309e-05
-2.09515e-05
-1.14851e-05
-8.60099e-07
4.83898e-06
3.01983e-06
-3.37737e-06
-8.84733e-06
-8.41952e-06
-1.40288e-06
7.88469e-06
1.73371e-05
3.01618e-05
4.89803e-05
7.60449e-05
0.000110611
0.000145523
0.000173483
0.00019633
0.000215439
0.00022472
0.000223229
0.000215963
0.000203643
0.000182727
0.000152326
0.000116251
8.24751e-05
4.61819e-05
1.26418e-05
-1.34144e-05
-2.98825e-05
-3.80539e-05
-4.18923e-05
-4.51699e-05
-4.87757e-05
-4.97526e-05
-4.59845e-05
-3.96385e-05
-3.46047e-05
-3.1375e-05
-2.60636e-05
-1.60404e-05
-4.41112e-06
2.28975e-06
1.05471e-06
-5.09421e-06
-1.04715e-05
-1.00211e-05
-2.75042e-06
7.00376e-06
1.66645e-05
2.93526e-05
4.78474e-05
7.45665e-05
0.000109251
0.000144785
0.000172802
0.000195317
0.000214945
0.000225366
0.00022495
0.000218709
0.000207012
0.000186211
0.000155755
0.00011959
8.68892e-05
4.95597e-05
1.34427e-05
-1.64251e-05
-3.68407e-05
-4.77938e-05
-5.23861e-05
-5.43651e-05
-5.58025e-05
-5.52852e-05
-5.10909e-05
-4.48984e-05
-4.02005e-05
-3.73432e-05
-3.21567e-05
-2.16325e-05
-8.9132e-06
-9.79392e-07
-1.41447e-06
-7.42134e-06
-1.32591e-05
-1.37067e-05
-7.30013e-06
1.93552e-06
1.12084e-05
2.33854e-05
4.12528e-05
6.73063e-05
0.000102373
0.000140014
0.000169923
0.000193093
0.000213519
0.000225291
0.00022638
0.000222086
0.000211871
0.000191352
0.000160654
0.00012434
9.36435e-05
5.5426e-05
1.70427e-05
-1.69621e-05
-4.25961e-05
-5.82041e-05
-6.50834e-05
-6.63972e-05
-6.50461e-05
-6.19535e-05
-5.65133e-05
-5.00655e-05
-4.54364e-05
-4.28842e-05
-3.81489e-05
-2.74032e-05
-1.39365e-05
-4.87696e-06
-4.2414e-06
-9.9928e-06
-1.70114e-05
-1.97621e-05
-1.58369e-05
-8.78217e-06
-1.46697e-06
9.10031e-06
2.58061e-05
5.09222e-05
8.61187e-05
0.000126032
0.000159476
0.000184753
0.000206794
0.000220796
0.000224219
0.000223191
0.000216594
0.000198215
0.000167904
0.000131407
0.000102999
6.39875e-05
2.39627e-05
-1.31923e-05
-4.40248e-05
-6.53926e-05
-7.69062e-05
-7.98145e-05
-7.7139e-05
-7.18499e-05
-6.52374e-05
-5.81939e-05
-5.32229e-05
-5.03292e-05
-4.55083e-05
-3.50563e-05
-2.14576e-05
-1.18053e-05
-1.01927e-05
-1.54103e-05
-2.3475e-05
-2.91049e-05
-2.84048e-05
-2.39827e-05
-1.9119e-05
-1.04769e-05
5.36563e-06
2.99732e-05
6.48445e-05
0.000104968
0.000140142
0.000167147
0.000190726
0.000207626
0.000214668
0.000218083
0.000217228
0.00020409
0.000177036
0.000141298
0.000114727
7.47261e-05
3.34341e-05
-5.44926e-06
-3.94312e-05
-6.61306e-05
-8.34668e-05
-9.03294e-05
-8.9046e-05
-8.36617e-05
-7.69794e-05
-7.05258e-05
-6.5996e-05