/*--------------------------------*- C++ -*----------------------------------*\
| =========                 |                                                 |
| \\      /  F ield         | OpenFOAM: The Open Source CFD Toolbox           |
|  \\    /   O peration     | Version:  2306                                  |
|   \\  /    A nd           | Website:  www.openfoam.com                      |
|    \\/     M anipulation  |                                                 |
\*---------------------------------------------------------------------------*/
FoamFile
{
    version     2.0;
    format      ascii;
    arch        "LSB;label=32;scalar=64";
    class       volVectorField;
    location    "8.5";
    object      U;
}
// * * * * * * * * * * * * * * * * * * * * * * * * * * * * * * * * * * * * * //

dimensions      [0 1 -1 0 0 0 0];

internalField   nonuniform List<vector> 
60000
(
(0.00659486 2.41241e-05 -0.000327225)
(0.00692867 3.13331e-05 -9.74372e-05)
(0.00740002 2.93794e-05 8.45306e-05)
(0.00798801 2.39284e-05 0.000418143)
(0.00858895 2.39694e-05 0.000966945)
(0.009002 2.76673e-05 0.00163303)
(0.00902852 3.26657e-05 0.00224803)
(0.00869382 3.33665e-05 0.00262312)
(0.00825151 2.76023e-05 0.00265711)
(0.00791013 2.16163e-05 0.00239496)
(0.00768871 1.6515e-05 0.00197959)
(0.00751067 1.12122e-05 0.00158074)
(0.00729927 3.74484e-06 0.00132479)
(0.00699887 -3.13299e-06 0.00121857)
(0.00656692 -7.6007e-06 0.001203)
(0.00603454 -5.24458e-06 0.00122245)
(0.00556174 -2.0034e-06 0.00121665)
(0.00531056 -3.11527e-08 0.00113844)
(0.00529435 -8.77995e-07 0.000929748)
(0.00540333 -5.38635e-06 0.000611319)
(0.00555371 -1.32274e-05 0.000305265)
(0.00576037 -1.44151e-05 8.39442e-05)
(0.00605681 -1.08721e-05 -0.000100091)
(0.00639638 -1.03254e-06 -0.000245818)
(0.0067253 1.61176e-05 -0.000275447)
(0.00702814 2.60364e-05 -0.00023884)
(0.00729561 2.58657e-05 -0.000309913)
(0.0075436 1.01671e-05 -0.000657369)
(0.00784051 -1.62954e-05 -0.00131442)
(0.0081851 -3.60942e-05 -0.00200132)
(0.00838904 -3.43821e-05 -0.00237627)
(0.00828463 -2.17456e-05 -0.00241461)
(0.0078928 -6.99993e-06 -0.00238336)
(0.00732646 8.76397e-06 -0.00239763)
(0.00669315 1.61366e-05 -0.00231768)
(0.00613598 1.10967e-05 -0.00214364)
(0.00581869 4.97751e-06 -0.00194304)
(0.00581873 3.28734e-06 -0.0016542)
(0.00604699 5.90462e-06 -0.00121742)
(0.00632431 1.59823e-05 -0.000719988)
(0.0196035 0.000126967 -0.000885738)
(0.0208207 0.000129191 -0.000285668)
(0.0224073 9.6217e-05 0.000289149)
(0.024221 7.9137e-05 0.00129553)
(0.0260013 0.000110355 0.0028125)
(0.0272632 0.000179649 0.004548)
(0.0274727 0.000248923 0.00606389)
(0.0266005 0.0002659 0.00692552)
(0.025285 0.000220507 0.00691694)
(0.0241942 0.00015791 0.00617546)
(0.0235025 0.00010633 0.00509649)
(0.0230132 6.94223e-05 0.00409865)
(0.0224429 3.50369e-05 0.00344059)
(0.0215611 2.87622e-06 0.00313227)
(0.0202738 -2.10325e-05 0.00307889)
(0.0187551 -4.34034e-05 0.0031444)
(0.0174216 -8.02085e-05 0.00312907)
(0.0166172 -0.000117248 0.00287023)
(0.0163758 -0.000137883 0.00229587)
(0.0164865 -0.00014445 0.00153577)
(0.0167851 -0.000147738 0.000843479)
(0.017285 -0.000124208 0.00030931)
(0.018016 -6.98732e-05 -0.000144905)
(0.0188819 8.67339e-06 -0.000469573)
(0.0198219 7.70365e-05 -0.000540531)
(0.0208378 8.44018e-05 -0.000518438)
(0.0219329 1.36699e-05 -0.000808881)
(0.0231253 -0.000136697 -0.00178015)
(0.0244283 -0.000296607 -0.00342169)
(0.0255737 -0.000344037 -0.00508583)
(0.0259995 -0.000233793 -0.00604548)
(0.0254375 -6.79147e-05 -0.00627186)
(0.0241443 6.87288e-05 -0.00625206)
(0.0225492 0.000137528 -0.00615236)
(0.0209164 0.000117622 -0.00586418)
(0.0194161 3.52048e-05 -0.00551287)
(0.0182934 -3.05583e-05 -0.00509171)
(0.0178382 -3.55508e-05 -0.00432544)
(0.0180757 1.30255e-05 -0.00314087)
(0.0187119 8.59164e-05 -0.00185985)
(0.0324203 0.000268126 -0.00186594)
(0.0345472 0.000234499 -0.000982709)
(0.037304 0.000138198 -0.000119041)
(0.0404197 9.77933e-05 0.0014153)
(0.0435364 0.000176299 0.00374542)
(0.0459929 0.00033899 0.00641025)
(0.0468929 0.000503733 0.00874518)
(0.0458759 0.000561181 0.0101551)
(0.0437117 0.000482511 0.0103181)
(0.0416434 0.000349001 0.00936706)
(0.0402874 0.000227182 0.00786257)
(0.0394515 0.000138724 0.00641617)
(0.038618 6.23236e-05 0.00536475)
(0.0373263 -8.05476e-06 0.00474006)
(0.0353894 -6.21605e-05 0.0045165)
(0.0330343 -0.000129503 0.00459171)
(0.0307845 -0.000235016 0.00464509)
(0.0291163 -0.000337952 0.00433158)
(0.0282255 -0.000391267 0.00353975)
(0.0279829 -0.000395919 0.00249913)
(0.0282012 -0.000376634 0.00155756)
(0.0288383 -0.000298131 0.000808439)
(0.029872 -0.000138428 0.000154)
(0.0311738 5.21984e-05 -0.000304913)
(0.0327194 0.000167011 -0.000389696)
(0.0345489 0.000107842 -0.000298951)
(0.0366588 -0.000149253 -0.00058827)
(0.0390159 -0.000563113 -0.00181837)
(0.0415633 -0.000949979 -0.00408888)
(0.0437696 -0.0010113 -0.00662326)
(0.0446495 -0.000680434 -0.00837126)
(0.0438104 -0.000224256 -0.00909371)
(0.0417793 0.00013488 -0.00923745)
(0.0393527 0.000284686 -0.00901972)
(0.0369347 0.000212279 -0.00852991)
(0.0345606 1.69097e-05 -0.00811807)
(0.0323311 -0.000112074 -0.0077266)
(0.0307503 -9.65021e-05 -0.00680782)
(0.0303408 3.27642e-05 -0.00516432)
(0.0309912 0.000192243 -0.00329894)
(0.0444837 0.000380391 -0.00369859)
(0.0472924 0.000273602 -0.00272112)
(0.0510895 5.12339e-05 -0.00182756)
(0.0555057 -7.49443e-05 -6.543e-05)
(0.0601276 6.10661e-05 0.00286257)
(0.0642646 0.000353603 0.00641754)
(0.066657 0.000655228 0.00970251)
(0.0662932 0.000811556 0.0119554)
(0.0636042 0.00075474 0.0127179)
(0.0603531 0.00057216 0.0119895)
(0.0580058 0.000367424 0.0103851)
(0.0566899 0.00020671 0.00870138)
(0.0556946 7.57242e-05 0.00733424)
(0.0542689 -3.10957e-05 0.00628853)
(0.0520506 -0.000113226 0.00566525)
(0.0491805 -0.000225307 0.00559352)
(0.0460766 -0.000409031 0.00577128)
(0.0431933 -0.000601106 0.00560193)
(0.0410055 -0.000719096 0.00478093)
(0.0397772 -0.000748364 0.0035954)
(0.0394769 -0.000717765 0.00252838)
(0.0399761 -0.000568885 0.00169088)
(0.0411266 -0.000255285 0.000932535)
(0.0427412 9.10428e-05 0.000398693)
(0.0448285 0.00024654 0.000382457)
(0.0474641 5.17308e-05 0.000747828)
(0.0505767 -0.000517503 0.000869982)
(0.0539909 -0.0013615 -2.24285e-05)
(0.0577243 -0.00210638 -0.00239605)
(0.0613225 -0.0021865 -0.00572449)
(0.063329 -0.00151775 -0.00866709)
(0.0628979 -0.000614868 -0.0104538)
(0.0606463 0.000102128 -0.0112168)
(0.0577566 0.000411448 -0.0111184)
(0.0548566 0.000293901 -0.0104464)
(0.0518492 -4.13104e-05 -0.00994826)
(0.0484651 -0.000243719 -0.00975051)
(0.0451235 -0.000205544 -0.00909346)
(0.0430636 1.28822e-05 -0.00747915)
(0.0429414 0.000269057 -0.00538219)
(0.0555632 0.000389281 -0.00648673)
(0.0582573 0.000165137 -0.00582886)
(0.0624906 -0.000291007 -0.00536233)
(0.0678281 -0.000651341 -0.00389039)
(0.0739052 -0.00055712 -0.000822836)
(0.0801551 -2.33009e-05 0.00350865)
(0.0850731 0.000523777 0.00804367)
(0.0866998 0.000871557 0.0116683)
(0.0844787 0.000936064 0.0136602)
(0.0802131 0.000779859 0.0137434)
(0.0765164 0.00050872 0.0124513)
(0.0744284 0.000259512 0.0108316)
(0.073274 6.0022e-05 0.00942405)
(0.071977 -8.33934e-05 0.00807023)
(0.0699077 -0.000175628 0.0068533)
(0.0670213 -0.000299265 0.0063079)
(0.063467 -0.000522065 0.00647841)
(0.0593736 -0.000782185 0.00659674)
(0.0553012 -0.000993538 0.00595155)
(0.0521566 -0.00112451 0.00473615)
(0.0505031 -0.00116395 0.00364283)
(0.0503175 -0.000977916 0.00287578)
(0.0512746 -0.000479319 0.00217901)
(0.0529957 8.85441e-05 0.00169218)
(0.0554312 0.000302241 0.00187588)
(0.0586554 -8.67068e-05 0.00273637)
(0.0624374 -0.00111854 0.00366619)
(0.0662047 -0.0026274 0.00380461)
(0.070205 -0.00399774 0.00227057)
(0.0751684 -0.004235 -0.00125099)
(0.0795592 -0.00306369 -0.00569106)
(0.081092 -0.00144716 -0.00944534)
(0.0798043 -0.000182214 -0.0117725)
(0.0771801 0.000443384 -0.012451)
(0.0742355 0.000355041 -0.0117971)
(0.070989 -0.000110717 -0.0111042)
(0.0668572 -0.000394597 -0.0110431)
(0.0617462 -0.000338304 -0.0108498)
(0.0571756 -6.0592e-05 -0.00973162)
(0.0549912 0.000262585 -0.00795513)
(0.0669036 0.000298636 -0.00942027)
(0.0680075 -0.000123052 -0.00968785)
(0.0711622 -0.000964881 -0.0102955)
(0.0759693 -0.00179484 -0.00985004)
(0.082248 -0.00204715 -0.00764133)
(0.0900724 -0.00146149 -0.00352267)
(0.0985371 -0.000405882 0.0021498)
(0.104274 0.00049573 0.00793236)
(0.104604 0.000889933 0.0121752)
(0.100452 0.000897837 0.0139825)
(0.0953951 0.000623405 0.0135768)
(0.0921663 0.000285115 0.0123336)
(0.0907135 -7.56902e-06 0.0112933)
(0.0896741 -0.000197409 0.0101304)
(0.0880741 -0.000280593 0.00847025)
(0.0856904 -0.00036305 0.00710489)
(0.0824396 -0.000544403 0.00685504)
(0.077871 -0.000781485 0.00717789)
(0.0720422 -0.00103868 0.00687118)
(0.0662046 -0.00133608 0.00573437)
(0.061918 -0.00160881 0.00463343)
(0.0599391 -0.00152089 0.004038)
(0.060052 -0.000851561 0.00359781)
(0.0615018 1.85193e-05 0.00333866)
(0.063923 0.000365864 0.00385288)
(0.0673457 -0.000266758 0.00527838)
(0.0714242 -0.0019202 0.0070119)
(0.0748785 -0.00429647 0.00830072)
(0.0772631 -0.00661558 0.00846128)
(0.0812764 -0.00745269 0.00649426)
(0.0883491 -0.00605265 0.00182483)
(0.0946275 -0.00337643 -0.00437986)
(0.0968958 -0.00101506 -0.00971987)
(0.0961229 0.000229676 -0.0124937)
(0.0939415 0.000352608 -0.0125864)
(0.0909242 -0.000169168 -0.0117919)
(0.0867004 -0.000515792 -0.0116969)
(0.0806357 -0.00043053 -0.011855)
(0.0737743 -0.000103002 -0.0112901)
(0.0686894 0.000217895 -0.0101519)
(0.0809913 0.000249262 -0.0109866)
(0.079943 -0.000474746 -0.01224)
(0.0805339 -0.00190558 -0.0143693)
(0.0823905 -0.00342426 -0.0156394)
(0.0859803 -0.00425271 -0.0151634)
(0.0917719 -0.00403593 -0.0129169)
(0.101151 -0.00288834 -0.00828586)
(0.112654 -0.00131003 -0.00108019)
(0.119641 9.05828e-05 0.00652859)
(0.118697 0.000718644 0.0115806)
(0.113403 0.000647491 0.0131117)
(0.108936 0.000256594 0.012585)
(0.107044 -0.000153524 0.0121167)
(0.106325 -0.00042955 0.0118261)
(0.105277 -0.000490507 0.0105143)
(0.10363 -0.000479826 0.00843301)
(0.101423 -0.000540656 0.00724638)
(0.0977315 -0.000634453 0.00734863)
(0.0915046 -0.000788735 0.00735988)
(0.0833937 -0.00116723 0.00642458)
(0.0755397 -0.00178151 0.00529998)
(0.070093 -0.00202943 0.00482351)
(0.0680257 -0.00131999 0.00470058)
(0.068517 -0.000102512 0.00474984)
(0.0705375 0.000463154 0.00558014)
(0.0738916 -0.000418817 0.0074235)
(0.0783551 -0.00271391 0.00955215)
(0.0824468 -0.00583602 0.0111383)
(0.0838442 -0.00900577 0.0122545)
(0.0837136 -0.0108585 0.0129698)
(0.0881267 -0.0100736 0.0112738)
(0.0980201 -0.00695074 0.00533576)
(0.107149 -0.00320666 -0.00314868)
(0.111538 -0.000639503 -0.00976557)
(0.111914 0.000148014 -0.0121758)
(0.109742 -0.000218904 -0.0120191)
(0.105919 -0.000546137 -0.0119104)
(0.100048 -0.000425113 -0.0122165)
(0.0923058 -7.75287e-05 -0.0119496)
(0.085124 0.000248384 -0.0111662)
(0.0975721 0.000407266 -0.0105594)
(0.096005 -0.000536478 -0.0118755)
(0.0950493 -0.00249938 -0.0150695)
(0.0927993 -0.00485253 -0.0184554)
(0.0911763 -0.0064747 -0.0202239)
(0.0920849 -0.00685291 -0.0200282)
(0.0970596 -0.00619705 -0.017663)
(0.108311 -0.00468222 -0.0121633)
(0.122498 -0.00243709 -0.00338809)
(0.129692 -0.000534325 0.0054429)
(0.127483 0.000165556 0.0103544)
(0.122648 7.09725e-05 0.0112148)
(0.12051 -0.000351666 0.0111049)
(0.120565 -0.000789684 0.0118191)
(0.12023 -0.000918668 0.0119427)
(0.119 -0.000762211 0.0101928)
(0.117914 -0.000594659 0.00806959)
(0.116366 -0.000491431 0.00736976)
(0.112037 -0.000419379 0.00737268)
(0.103872 -0.000652512 0.00666627)
(0.0933178 -0.00146119 0.00557728)
(0.0833066 -0.0021833 0.00516306)
(0.0770784 -0.00169398 0.00528669)
(0.0753654 -0.000224402 0.00555519)
(0.0765909 0.00066567 0.00654533)
(0.0797726 -0.000236224 0.00864234)
(0.0845867 -0.0029084 0.0109636)
(0.0902069 -0.00641835 0.012176)
(0.0938265 -0.00983429 0.0125502)
(0.0922957 -0.0124628 0.0142749)
(0.0897885 -0.0130768 0.0167649)
(0.0950932 -0.0108007 0.015135)
(0.107339 -0.00670299 0.00729525)
(0.119002 -0.00268202 -0.0027234)
(0.124937 -0.000632746 -0.00914814)
(0.124898 -0.000500058 -0.0112179)
(0.121647 -0.000644233 -0.011632)
(0.11673 -0.000279478 -0.0119705)
(0.109814 0.00020971 -0.0117724)
(0.102429 0.000522404 -0.0109373)
(0.111824 0.000748941 -0.00802727)
(0.112136 -7.75063e-05 -0.00848848)
(0.112818 -0.00206363 -0.0116537)
(0.109121 -0.00489822 -0.0167468)
(0.102051 -0.00744828 -0.0212703)
(0.0969817 -0.00869763 -0.0235245)
(0.0964539 -0.00887378 -0.0229362)
(0.102155 -0.00824233 -0.0193053)
(0.115678 -0.00627805 -0.0122672)
(0.130197 -0.00331437 -0.00249368)
(0.134593 -0.0013102 0.0056585)
(0.130641 -0.000826964 0.00864421)
(0.127937 -0.00101226 0.00847454)
(0.129729 -0.00128669 0.00921928)
(0.131576 -0.00143206 0.0109525)
(0.130482 -0.00132962 0.010975)
(0.129119 -0.00101385 0.00904648)
(0.129745 -0.000566157 0.00750262)
(0.129584 -0.00012848 0.00707028)
(0.124917 -0.000108974 0.00642904)
(0.114924 -0.000782819 0.00538514)
(0.101583 -0.00177211 0.0050525)
(0.0898025 -0.0016777 0.00547629)
(0.0838533 -0.000218035 0.00602475)
(0.0832192 0.000968125 0.00710012)
(0.0859735 0.000226919 0.0090685)
(0.0909788 -0.00257565 0.0110171)
(0.0973651 -0.00629558 0.0116186)
(0.103341 -0.00951683 0.0109947)
(0.104832 -0.0118531 0.012083)
(0.100147 -0.0134112 0.0166422)
(0.0970109 -0.01313 0.0200663)
(0.104238 -0.0102035 0.0163399)
(0.118844 -0.00583193 0.00648975)
(0.131194 -0.00220243 -0.00327283)
(0.133425 -0.000749947 -0.00876966)
(0.12781 -0.000495918 -0.0104115)
(0.122096 -0.000277326 -0.0103721)
(0.118298 0.000227533 -0.00984247)
(0.114518 0.000700793 -0.00891527)
(0.114534 0.000577639 -0.00235699)
(0.119322 0.00013539 -0.00172671)
(0.125413 -0.00114519 -0.00435426)
(0.125775 -0.00343792 -0.0107364)
(0.117369 -0.00636797 -0.0180174)
(0.106853 -0.00861105 -0.0234795)
(0.101451 -0.00964189 -0.0255147)
(0.101969 -0.010168 -0.0234449)
(0.109295 -0.00969824 -0.0179379)
(0.123801 -0.00719385 -0.00935824)
(0.136262 -0.00372802 0.000192507)
(0.137099 -0.00199774 0.00572703)
(0.131878 -0.00230423 0.00589564)
(0.131742 -0.00278214 0.005316)
(0.137096 -0.00229783 0.00725565)
(0.138877 -0.00143234 0.00928232)
(0.13521 -0.0011081 0.00890019)
(0.133373 -0.00112244 0.00738505)
(0.136619 -0.000765469 0.0065654)
(0.139541 -0.000187642 0.00594906)
(0.135801 -0.00022599 0.00491188)
(0.123731 -0.000926272 0.00447385)
(0.107737 -0.000996947 0.00522829)
(0.0958916 0.000181424 0.00644104)
(0.0915648 0.001298 0.00777774)
(0.0931953 0.000524328 0.00912148)
(0.0984679 -0.00242631 0.00970523)
(0.105464 -0.00615743 0.0089463)
(0.112451 -0.00903799 0.00726563)
(0.116255 -0.0105208 0.00770977)
(0.113736 -0.0115106 0.01304)
(0.1067 -0.0127181 0.0199056)
(0.105451 -0.0123911 0.0206651)
(0.116128 -0.0092981 0.0129665)
(0.130201 -0.00450967 0.00201476)
(0.133982 -0.000671077 -0.00616014)
(0.125784 0.000769256 -0.00902318)
(0.11631 0.000504483 -0.00786921)
(0.112505 0.000177391 -0.00562836)
(0.112634 0.000375157 -0.00385545)
(0.110127 0.000225267 0.0037468)
(0.114925 -0.000229612 0.0064694)
(0.125124 -0.000920383 0.00555334)
(0.133985 -0.00187607 -0.00146284)
(0.131376 -0.00388752 -0.0114078)
(0.119541 -0.00672135 -0.0199645)
(0.109225 -0.00876887 -0.0253481)
(0.106298 -0.00994599 -0.02614)
(0.109112 -0.010843 -0.0223585)
(0.117478 -0.0104808 -0.0152764)
(0.131125 -0.00765443 -0.00606523)
(0.141442 -0.00399346 0.00167066)
(0.140574 -0.00285025 0.00415915)
(0.134573 -0.00410415 0.00313517)
(0.135115 -0.00443044 0.00361299)
(0.140971 -0.0022559 0.00605002)
(0.141814 -1.28023e-05 0.00732426)
(0.137228 -5.65225e-05 0.00670542)
(0.135431 -0.00154557 0.00581081)
(0.14052 -0.00226478 0.00543237)
(0.146603 -0.00160033 0.00475831)
(0.14338 -0.000586023 0.00397399)
(0.129 0.000359438 0.00446069)
(0.112711 0.00140353 0.00649463)
(0.103389 0.0017957 0.00886545)
(0.102339 0.000286358 0.00994264)
(0.10664 -0.00327789 0.00875045)
(0.113577 -0.00694236 0.00591111)
(0.121552 -0.00896733 0.00246954)
(0.127066 -0.00920953 0.00138071)
(0.126376 -0.0089538 0.00657056)
(0.119057 -0.00987513 0.0160155)
(0.111579 -0.0118333 0.0211258)
(0.114628 -0.0114064 0.0164527)
(0.125548 -0.00687793 0.0058144)
(0.130453 -0.000824887 -0.00370576)
(0.124123 0.00242432 -0.00795538)
(0.114591 0.00215936 -0.00692869)
(0.109332 0.000735208 -0.00322557)
(0.108623 0.000253306 0.000499663)
(0.110175 0.000666756 0.00398833)
(0.110764 -0.000400094 0.00914179)
(0.118318 -0.00133765 0.0118708)
(0.131785 -0.00121407 0.007337)
(0.138605 -0.00128812 -0.00346169)
(0.132067 -0.00344409 -0.0141269)
(0.119893 -0.00647471 -0.0218146)
(0.112388 -0.00861898 -0.0258073)
(0.112708 -0.0100359 -0.0251921)
(0.117483 -0.0113019 -0.0204148)
(0.126063 -0.0111116 -0.012521)
(0.138162 -0.00829624 -0.00380711)
(0.145748 -0.00482778 0.00164051)
(0.142631 -0.003987 0.00243171)
(0.136079 -0.00502241 0.0020091)
(0.136715 -0.00413219 0.00341437)
(0.142075 -0.000871409 0.00543309)
(0.143727 0.00131227 0.00608327)
(0.140446 1.28477e-05 0.00531574)
(0.138562 -0.00355898 0.00458436)
(0.14406 -0.00546267 0.00452487)
(0.150926 -0.00311842 0.00403484)
(0.146389 0.00102888 0.00364535)
(0.132182 0.003486 0.00567251)
(0.119889 0.00319051 0.00971457)
(0.114891 0.000347691 0.0116574)
(0.115139 -0.0042041 0.00872955)
(0.118657 -0.00860953 0.00345659)
(0.126416 -0.0104308 -0.00125732)
(0.135007 -0.00908907 -0.00398618)
(0.137107 -0.0068395 -0.000822554)
(0.130819 -0.00635284 0.00942162)
(0.120631 -0.00887227 0.0186711)
(0.116383 -0.0111156 0.0182467)
(0.121238 -0.00833148 0.00945345)
(0.125785 -0.00146794 -0.000337471)
(0.124045 0.00340062 -0.00643184)
(0.119176 0.00377437 -0.00786065)
(0.114903 0.00199734 -0.00539471)
(0.112078 0.00106328 -0.00095948)
(0.116414 0.00191752 -0.00154041)
(0.113439 -5.4817e-05 0.00377206)
(0.11613 -0.00226026 0.00904628)
(0.127383 -0.0019225 0.00925314)
(0.139653 0.000142255 0.00166495)
(0.141076 -1.33892e-05 -0.00846665)
(0.131992 -0.00307094 -0.016627)
(0.121396 -0.0062557 -0.0223862)
(0.117667 -0.00837263 -0.02502)
(0.121006 -0.010352 -0.0236319)
(0.127046 -0.0122659 -0.0181844)
(0.135181 -0.0120423 -0.00963342)
(0.143708 -0.0086463 -0.00174067)
(0.145903 -0.00510076 0.00164977)
(0.140659 -0.00422681 0.0015509)
(0.136208 -0.00426692 0.00187365)
(0.138456 -0.00263848 0.0040006)
(0.14387 -4.06837e-05 0.00618997)
(0.14645 0.000881722 0.00637867)
(0.144245 -0.00201813 0.00480144)
(0.14222 -0.00685322 0.00369028)
(0.146314 -0.00724439 0.0035032)
(0.150665 -0.00178566 0.00308857)
(0.146634 0.00356871 0.00452601)
(0.137242 0.00461608 0.00940627)
(0.129264 0.00214794 0.0126438)
(0.124424 -0.00214631 0.00869433)
(0.1221 -0.0074111 0.000986227)
(0.125805 -0.0113457 -0.00417433)
(0.136382 -0.0107354 -0.00637381)
(0.143656 -0.00669426 -0.00547724)
(0.140346 -0.00390295 0.00243018)
(0.130139 -0.00506916 0.0138958)
(0.121398 -0.00838917 0.0183682)
(0.120088 -0.00787791 0.0127101)
(0.122332 -0.00214009 0.00342714)
(0.123558 0.00327962 -0.00396993)
(0.12402 0.00454908 -0.00796307)
(0.123362 0.00338426 -0.00827483)
(0.120592 0.00254255 -0.00565498)
(0.127356 0.00380822 -0.00770976)
(0.123424 0.00130499 -0.00398205)
(0.121735 -0.0024148 0.00134107)
(0.12706 -0.00319905 0.00471886)
(0.139031 -0.000258355 0.00218257)
(0.14693 0.00198695 -0.00453624)
(0.14322 0.000308808 -0.0118009)
(0.132372 -0.00299654 -0.0182379)
(0.124677 -0.0058473 -0.0227477)
(0.125366 -0.00848438 -0.0241767)
(0.131051 -0.0116237 -0.0218792)
(0.137056 -0.0136579 -0.0150927)
(0.142611 -0.0116651 -0.00603843)
(0.145532 -0.00685618 -5.61761e-05)
(0.143109 -0.00371328 0.00108226)
(0.138671 -0.00328875 0.000922053)
(0.137798 -0.00310056 0.00292038)
(0.141442 -0.0017062 0.00663633)
(0.146795 -0.000121918 0.00873727)
(0.149852 -0.000827717 0.00697503)
(0.14785 -0.00474918 0.00339501)
(0.144325 -0.00767654 0.00191976)
(0.144444 -0.00514991 0.00298975)
(0.14465 0.000168687 0.00585135)
(0.140371 0.00334031 0.0101467)
(0.134333 0.00330383 0.0119053)
(0.130438 0.000809476 0.00694059)
(0.127648 -0.00387468 -0.00148649)
(0.127591 -0.00954952 -0.00623317)
(0.135422 -0.0117869 -0.00633216)
(0.145784 -0.0083675 -0.00542435)
(0.146766 -0.00371005 -0.00131469)
(0.13816 -0.00256429 0.00847656)
(0.127914 -0.00477519 0.0163861)
(0.122514 -0.00526343 0.0149708)
(0.122115 -0.00140191 0.00730429)
(0.123914 0.00292561 -0.000456984)
(0.127243 0.00396565 -0.00600677)
(0.130327 0.00353323 -0.00899518)
(0.130382 0.0038752 -0.00938301)
(0.135393 0.0039827 -0.0103176)
(0.134332 0.00243669 -0.00789624)
(0.130729 -0.00115679 -0.00314475)
(0.129598 -0.00326214 0.000871325)
(0.136667 -0.00144157 0.0013791)
(0.147395 0.00183457 -0.00193147)
(0.150447 0.00241107 -0.0076909)
(0.14301 0.000381491 -0.0143595)
(0.13377 -0.00239645 -0.0199547)
(0.131356 -0.00571404 -0.022865)
(0.13591 -0.00988132 -0.0229368)
(0.141788 -0.0136108 -0.0191159)
(0.145418 -0.0134411 -0.0110974)
(0.146741 -0.00857764 -0.00332936)
(0.145044 -0.00347629 -0.000134625)
(0.141482 -0.00167741 0.000269807)
(0.139508 -0.00207932 0.00228173)
(0.140999 -0.00228814 0.00683341)
(0.145724 -0.0016478 0.0103489)
(0.151071 -0.00134081 0.00899664)
(0.151737 -0.00283226 0.00419134)
(0.145769 -0.00525383 0.00160565)
(0.138347 -0.00566672 0.00334813)
(0.133854 -0.00304523 0.00647889)
(0.131881 0.000575706 0.00839769)
(0.132262 0.00301249 0.00752885)
(0.134193 0.00300438 0.00270213)
(0.134357 -0.000315974 -0.00414569)
(0.133241 -0.00640842 -0.00775018)
(0.137121 -0.0112396 -0.00628889)
(0.146584 -0.0101241 -0.00357528)
(0.150557 -0.00509486 -0.000798354)
(0.14371 -0.00199652 0.00568333)
(0.133148 -0.00210512 0.0131624)
(0.126466 -0.00198066 0.0143969)
(0.125257 0.000721632 0.00915191)
(0.126756 0.00358649 0.00270112)
(0.12881 0.0037674 -0.00226445)
(0.13128 0.00271844 -0.00632463)
(0.133885 0.00315187 -0.00948182)
(0.132856 0.00240771 -0.00641136)
(0.136085 0.002132 -0.00427641)
(0.134573 0.000340309 -0.000800496)
(0.130761 -0.00138147 0.00164426)
(0.132157 -0.000976815 0.00224137)
(0.141234 0.00119216 0.000419043)
(0.149795 0.00298861 -0.00426274)
(0.148859 0.00295275 -0.0109151)
(0.142011 0.00148974 -0.0169683)
(0.138776 -0.00168155 -0.0204835)
(0.142067 -0.00678023 -0.0218268)
(0.147471 -0.0119528 -0.0207424)
(0.150224 -0.0134929 -0.0155742)
(0.150039 -0.00973958 -0.00794272)
(0.147793 -0.00393504 -0.00241461)
(0.144593 -0.000483046 3.97382e-05)
(0.14255 -0.000114518 0.00214793)
(0.142882 -0.00114179 0.00570871)
(0.14546 -0.00196184 0.00934536)
(0.149046 -0.00226147 0.00975295)
(0.150399 -0.0025942 0.00611562)
(0.146363 -0.00306858 0.00214836)
(0.138325 -0.00321699 0.00133259)
(0.131551 -0.00259659 0.00276386)
(0.130036 -0.00138824 0.00381425)
(0.133687 0.000342434 0.00301018)
(0.138184 0.00194098 -0.000497392)
(0.138765 0.00140904 -0.00501941)
(0.13683 -0.00312607 -0.00690247)
(0.138296 -0.009491 -0.00516288)
(0.145442 -0.0112015 -0.00225169)
(0.150922 -0.00687636 0.000489635)
(0.147379 -0.00249031 0.00524951)
(0.138551 -0.00099606 0.0109454)
(0.131581 0.000110692 0.0122791)
(0.128752 0.00282636 0.00870351)
(0.127714 0.00529592 0.00461426)
(0.126415 0.00511435 0.00162181)
(0.126001 0.00308316 -0.00167481)
(0.128343 0.00202571 -0.00518756)
(0.128803 -0.00133899 -0.00121937)
(0.133572 -0.000913509 -0.000510451)
(0.134521 -0.000423231 0.00159129)
(0.131572 7.19184e-05 0.00349666)
(0.129902 0.000811517 0.00426143)
(0.134354 0.00198179 0.00281377)
(0.143237 0.00354544 -0.00126599)
(0.149231 0.00477295 -0.00702476)
(0.149132 0.00477185 -0.0122993)
(0.148228 0.0025079 -0.0158895)
(0.151168 -0.00268268 -0.0184716)
(0.155543 -0.00906608 -0.0199178)
(0.156885 -0.012104 -0.0180004)
(0.155002 -0.00941408 -0.0120156)
(0.151402 -0.0038422 -0.00537519)
(0.147457 0.000107576 -0.000879476)
(0.145177 0.00106531 0.00199583)
(0.145176 0.000381674 0.00461773)
(0.146109 -0.000750005 0.00741425)
(0.146535 -0.00203451 0.00877421)
(0.145717 -0.00280596 0.00687361)
(0.142909 -0.0022033 0.00285971)
(0.138568 -0.000920484 4.83246e-05)
(0.135382 -0.000773337 -1.25002e-05)
(0.135704 -0.00208909 0.00138576)
(0.138878 -0.00246413 0.00187003)
(0.141188 -0.000422868 -0.000194417)
(0.139658 0.00157328 -0.00298775)
(0.136895 -0.000331551 -0.00315886)
(0.137414 -0.00629422 -0.000997782)
(0.142575 -0.0105803 0.00104667)
(0.148782 -0.00876063 0.00274256)
(0.149733 -0.00411393 0.00585017)
(0.144605 -0.000526232 0.00959558)
(0.137541 0.00243192 0.0102931)
(0.131566 0.0057023 0.00755738)
(0.126737 0.00767428 0.00478718)
(0.123113 0.00640369 0.00354784)
(0.121955 0.00267939 0.00235367)
(0.12404 -0.000463782 0.000244473)
(0.128279 -0.00148829 0.00474799)
(0.131825 -0.00178526 0.00392609)
(0.132735 -0.00066225 0.00416927)
(0.130912 0.00169261 0.00486807)
(0.129296 0.00415288 0.00571436)
(0.131121 0.00528351 0.00557121)
(0.136702 0.00506053 0.00298618)
(0.143314 0.00511307 -0.00178128)
(0.148793 0.00610796 -0.00665434)
(0.153957 0.00616164 -0.0101136)
(0.159719 0.00242265 -0.0129852)
(0.164016 -0.0042855 -0.0160607)
(0.164089 -0.00897318 -0.017373)
(0.160555 -0.00776953 -0.0144318)
(0.155644 -0.00282368 -0.00854194)
(0.150866 0.000864786 -0.00305506)
(0.147483 0.00174516 0.000838756)
(0.145732 0.00135586 0.00358612)
(0.144848 0.000743122 0.00572494)
(0.143692 -0.000168502 0.00705223)
(0.141493 -0.000868105 0.00627918)
(0.139002 -0.000295259 0.00317787)
(0.13834 0.000821816 0.00012649)
(0.140973 6.27126e-05 -0.000510483)
(0.144971 -0.0030754 0.000873963)
(0.14621 -0.00529188 0.00182455)
(0.143215 -0.00332731 0.00102035)
(0.138604 0.000640693 0.000851584)
(0.136419 0.00145621 0.00315823)
(0.138168 -0.00282274 0.00529564)
(0.142788 -0.00843651 0.00530854)
(0.14831 -0.00970201 0.00481098)
(0.150973 -0.00591817 0.00615271)
(0.148278 -0.000879983 0.00848955)
(0.141608 0.00331 0.00830612)
(0.13339 0.00685848 0.00560611)
(0.125966 0.00893392 0.00422062)
(0.121806 0.00801886 0.00566137)
(0.121595 0.00444954 0.00719175)
(0.124244 0.000616039 0.0064864)
(0.128039 0.00119837 0.00729066)
(0.132303 0.000689557 0.00563966)
(0.135154 0.001409 0.00480828)
(0.135019 0.00328837 0.00501456)
(0.133389 0.00602762 0.00614188)
(0.133268 0.00817853 0.00698667)
(0.135675 0.0081769 0.00556354)
(0.13947 0.00612383 0.00176519)
(0.144244 0.00390009 -0.00214809)
(0.15101 0.00299699 -0.00476682)
(0.159446 0.00219258 -0.0073701)
(0.165761 -0.000271406 -0.0111204)
(0.166447 -0.00332791 -0.0144384)
(0.163161 -0.00390182 -0.0146498)
(0.159815 -0.00176315 -0.0113676)
(0.157248 0.000544704 -0.00673989)
(0.154304 0.00177071 -0.00257658)
(0.150499 0.00219899 0.000304029)
(0.146453 0.00181167 0.00195987)
(0.142823 0.000783671 0.00324591)
(0.140044 0.000191256 0.00442671)
(0.139115 0.000781824 0.00464913)
(0.141607 0.00156727 0.00328175)
(0.147916 0.000464841 0.00115866)
(0.154492 -0.00308162 0.000463458)
(0.155361 -0.00604465 0.00217213)
(0.149417 -0.00478391 0.00474852)
(0.142192 -0.000426656 0.00713503)
(0.139217 0.00233834 0.00859923)
(0.140631 0.000825289 0.00761472)
(0.143958 -0.00392265 0.00521455)
(0.148004 -0.00720677 0.00344858)
(0.150443 -0.00526954 0.0031972)
(0.147987 0.000165135 0.00439871)
(0.140676 0.00528652 0.00515542)
(0.131497 0.00845447 0.00440543)
(0.124175 0.00963808 0.00449523)
(0.121024 0.00874534 0.00658511)
(0.121555 0.00617191 0.0086828)
(0.124214 0.0031718 0.00882075)
(0.131206 0.0051705 0.00325766)
(0.134203 0.00385566 0.00381163)
(0.13627 0.00338392 0.0041022)
(0.136156 0.00401527 0.00415521)
(0.134651 0.00595372 0.00454598)
(0.133953 0.00834511 0.00542135)
(0.135518 0.00923913 0.00588156)
(0.138938 0.00740499 0.00454008)
(0.142894 0.003616 0.00134152)
(0.147252 0.000110997 -0.00232621)
(0.15309 -0.00159115 -0.00554772)
(0.160279 -0.0022638 -0.00834755)
(0.165609 -0.00263867 -0.0107743)
(0.166074 -0.00199811 -0.0121228)
(0.163214 -0.000239852 -0.0115362)
(0.160221 0.00131887 -0.00905812)
(0.158048 0.00219021 -0.00570902)
(0.156077 0.00307127 -0.00297113)
(0.153318 0.00364828 -0.00177291)
(0.149339 0.00295151 -0.00109921)
(0.145185 0.00093907 0.000558001)
(0.143283 -0.00160653 0.00307132)
(0.145192 -0.0041047 0.00467814)
(0.149929 -0.0064504 0.00415381)
(0.154402 -0.00857841 0.00285691)
(0.155079 -0.00952877 0.00358801)
(0.151152 -0.00725001 0.00648395)
(0.145645 -0.00114974 0.00840729)
(0.141803 0.00530835 0.00683752)
(0.14012 0.00700335 0.00248758)
(0.140341 0.00244294 -0.00108139)
(0.142862 -0.00387979 -0.00129765)
(0.146035 -0.00550226 0.000325705)
(0.145721 -0.000822414 0.00193439)
(0.14022 0.00572682 0.00308659)
(0.132676 0.0103913 0.00368916)
(0.127355 0.0126147 0.00401451)
(0.125807 0.0125574 0.00397668)
(0.126737 0.0104477 0.00343775)
(0.128625 0.00752897 0.00301783)
(0.141193 0.00642156 -0.00762425)
(0.141722 0.00506647 -0.00503615)
(0.141476 0.00499052 -0.00120134)
(0.139031 0.00528347 0.00239654)
(0.135333 0.00545279 0.00531032)
(0.132983 0.00514341 0.00782303)
(0.133847 0.00382694 0.00997113)
(0.137995 0.00162385 0.0108527)
(0.144053 -0.000839187 0.00938527)
(0.150299 -0.00290865 0.00545531)
(0.155256 -0.00385335 -0.000115174)
(0.158025 -0.00345072 -0.00588869)
(0.158176 -0.00188046 -0.00983051)
(0.155949 0.000499793 -0.0108352)
(0.152432 0.00271091 -0.00981587)
(0.148924 0.00379035 -0.00835537)
(0.146679 0.00362757 -0.00693623)
(0.146717 0.00262102 -0.00543428)
(0.148792 0.00140919 -0.00429346)
(0.151301 0.00101196 -0.00393623)
(0.152843 0.00159501 -0.00355997)
(0.153451 0.00113979 -0.00196918)
(0.153825 -0.00221876 0.000780238)
(0.154246 -0.00711897 0.00374548)
(0.154635 -0.00989345 0.00620727)
(0.154359 -0.00868428 0.00811523)
(0.152026 -0.00455189 0.00922495)
(0.147736 0.000644988 0.00831782)
(0.143561 0.00488834 0.00461591)
(0.14127 0.00566338 -0.000562614)
(0.141307 0.00213087 -0.00385873)
(0.143094 -0.00356428 -0.00279972)
(0.145234 -0.00690643 0.0011543)
(0.145418 -0.00446319 0.00457354)
(0.142473 0.00208574 0.00608044)
(0.138691 0.00882417 0.00588395)
(0.137238 0.0134043 0.00393713)
(0.138503 0.0148416 0.000160896)
(0.140257 0.0130486 -0.00429679)
(0.140961 0.00949049 -0.00739843)
(0.153989 0.00428997 -0.0107529)
(0.15247 0.0036766 -0.0102736)
(0.149929 0.0049888 -0.00822527)
(0.147458 0.00649578 -0.00549573)
(0.146331 0.00661167 -0.00237603)
(0.147002 0.00490139 0.00113404)
(0.148821 0.00191403 0.00503366)