/*--------------------------------*- C++ -*----------------------------------*\
| =========                 |                                                 |
| \\      /  F ield         | OpenFOAM: The Open Source CFD Toolbox           |
|  \\    /   O peration     | Version:  2306                                  |
|   \\  /    A nd           | Website:  www.openfoam.com                      |
|    \\/     M anipulation  |                                                 |
\*---------------------------------------------------------------------------*/
FoamFile
{
    version     2.0;
    format      ascii;
    arch        "LSB;label=32;scalar=64";
    class       volScalarField;
    location    "2.5";
    object      p;
}
// * * * * * * * * * * * * * * * * * * * * * * * * * * * * * * * * * * * * * //

dimensions      [0 2 -2 0 0 0 0];

internalField   nonuniform List<scalar> 
60000
(
4.92152e-05
5.60508e-05
0.000110755
0.000165521
0.000193905
0.000208948
0.00022383
0.000225957
0.000199394
0.000166417
0.000166862
0.000209745
0.000273446
0.000321916
0.000325191
0.000282521
0.000230111
0.000189657
0.000149622
9.98788e-05
5.85143e-05
5.23053e-05
9.9077e-05
0.000171294
0.00022578
0.000247633
0.000238072
0.000207502
0.000206432
0.000263863
0.000324605
0.000341604
0.000328136
0.000311522
0.000295305
0.000274423
0.000257141
0.000234568
0.000190117
0.000103668
4.82903e-05
5.36504e-05
0.000107997
0.000163687
0.000192952
0.000208211
0.000222859
0.000224732
0.000197814
0.000164504
0.000164857
0.000207951
0.000272125
0.000321201
0.000325148
0.000282919
0.000230658
0.000190383
0.000150287
0.000100329
5.84111e-05
5.16881e-05
9.83382e-05
0.000170634
0.000224809
0.000246277
0.000236473
0.00020598
0.000204444
0.000262035
0.000323815
0.000341691
0.00032883
0.000312931
0.0002974
0.000276495
0.000259064
0.000236751
0.00019223
0.00010448
4.44568e-05
4.84334e-05
0.000103645
0.000161155
0.00019182
0.000207473
0.000222066
0.000224026
0.000196891
0.000162663
0.000161952
0.000204822
0.000270014
0.000320628
0.000325934
0.000284193
0.000231694
0.000191139
0.000150583
0.00010003
5.69427e-05
5.0201e-05
9.7256e-05
0.000170041
0.000223697
0.000244651
0.000234798
0.00020351
0.000200701
0.000258779
0.000322255
0.00034113
0.000329104
0.000314354
0.000299572
0.000277965
0.000259674
0.000237478
0.000192908
0.000102576
3.72915e-05
4.04033e-05
9.74672e-05
0.000157805
0.000190364
0.000206647
0.000221452
0.000223833
0.000196653
0.000161122
0.000158504
0.000200386
0.000266874
0.000320198
0.00032783
0.000286629
0.000233385
0.000191978
0.000150546
9.89076e-05
5.47068e-05
4.79766e-05
9.6208e-05
0.000170125
0.000222974
0.000242945
0.000232706
0.000199324
0.00019524
0.000254403
0.000320205
0.000339811
0.000328491
0.000315649
0.000301953
0.000278918
0.000258793
0.000236715
0.000191985
9.73663e-05
2.77464e-05
3.00221e-05
8.94001e-05
0.000153139
0.000188051
0.000205337
0.000220684
0.000223943
0.000197176
0.000160759
0.00015582
0.000195504
0.000262481
0.000319073
0.000330416
0.000290299
0.000236059
0.000193263
0.000150395
9.71623e-05
5.12586e-05
4.48648e-05
9.46156e-05
0.000169697
0.000221681
0.000240982
0.000230215
0.00019453
0.00018853
0.000249774
0.000318679
0.00033833
0.000326904
0.000316526
0.0003051
0.000280508
0.000257869
0.00023822
0.00019088
8.93939e-05
1.54491e-05
1.69881e-05
7.93921e-05
0.000146464
0.00018386
0.000202979
0.000219427
0.000223654
0.000197976
0.000161684
0.00015543
0.000192163
0.000258079
0.000316822
0.00033283
0.000294989
0.000240024
0.000195566
0.000150582
9.45776e-05
4.58678e-05
3.90703e-05
9.09586e-05
0.000166886
0.000214408
0.00023268
0.000225401
0.000188243
0.000180546
0.000245323
0.000318964
0.000338602
0.000325561
0.000317213
0.000309626
0.000283793
0.000258895
0.00024167
0.000195134
7.82138e-05
1.73137e-06
-3.22923e-06
6.44827e-05
0.000136926
0.000176749
0.00019821
0.000217388
0.000222941
0.000197224
0.000162701
0.000157544
0.000192148
0.000256355
0.000314853
0.000334576
0.000300172
0.000245313
0.000199208
0.000151692
9.15202e-05
3.76999e-05
2.80586e-05
8.28065e-05
0.000162664
0.000207466
0.000215833
0.000210895
0.000175647
0.000169411
0.000239573
0.000320302
0.000342378
0.0003279
0.000319766
0.000314659
0.000288351
0.000261996
0.000249244
0.000208437
8.76352e-05
-6.56291e-06
-2.79407e-05
4.1048e-05
0.000123114
0.000167532
0.000190885
0.000212698
0.000221519
0.000195474
0.000159988
0.000157182
0.000195735
0.000259447
0.000316484
0.000336595
0.00030552
0.000251815
0.000204087
0.000153786
8.83212e-05
2.82286e-05
1.49947e-05
7.36184e-05
0.000162696
0.000210435
0.000209545
0.000192794
0.000154143
0.000151068
0.00023032
0.000318672
0.000342416
0.000331972
0.000328404
0.000322804
0.000290758
0.000260753
0.000256477
0.000231052
0.000108535
-5.26844e-06
-5.33887e-05
1.17582e-05
0.000104518
0.000156368
0.000182827
0.000205028
0.00021725
0.000193837
0.000158004
0.000153707
0.000190407
0.000261255
0.000322581
0.000340671
0.000310921
0.000259516
0.000210166
0.000156117
8.50414e-05
2.17968e-05
9.59978e-06
7.50831e-05
0.00017662
0.000230513
0.000219109
0.000180235
0.000127434
0.000124021
0.00021665
0.000316395
0.00033963
0.000326371
0.000328317
0.000329373
0.000292426
0.000253737
0.000255044
0.000257015
0.000141847
1.14074e-05
-7.31023e-05
-2.89221e-05
8.0385e-05
0.000141925
0.00017378
0.000195903
0.00021093
0.000190921
0.000156295
0.000152318
0.00018092
0.000247836
0.000316508
0.000343232
0.000315245
0.000267286
0.000217601
0.000158943
8.01713e-05
1.65676e-05
1.27746e-05
9.11145e-05
0.000209832
0.000273963
0.000249769
0.000181215
0.000106352
9.28592e-05
0.000196768
0.000307628
0.000331099
0.00031826
0.000325374
0.000331415
0.000292921
0.000245474
0.00024596
0.000279141
0.000187189
5.08899e-05
-7.52434e-05
-6.02259e-05
5.13882e-05
0.000119607
0.000164633
0.000188628
0.000204866
0.000189804
0.000156088
0.000141633
0.000170764
0.000230161
0.000294687
0.000326322
0.00030923
0.000270401
0.000231371
0.000164317
7.57395e-05
1.10278e-05
1.87135e-05
0.000111985
0.000251984
0.000336593
0.000305604
0.000204039
9.90849e-05
6.73009e-05
0.000170183
0.000287531
0.000311064
0.000304021
0.000322741
0.00033385
0.000301759
0.000246883
0.000239161
0.000293546
0.000238264
0.000107704
-5.1453e-05
-7.07207e-05
9.38195e-06
9.46892e-05
0.000150909
0.000183674
0.000201549
0.000190352
0.000157558
0.000143068
0.000164954
0.000216562
0.00027149
0.000294672
0.000276256
0.000255636
0.000229239
0.000171458
8.06642e-05
1.48645e-05
2.80121e-05
0.000127721
0.000280692
0.000392883
0.000376419
0.000254738
0.000120019
6.24515e-05
0.000146308
0.000256246
0.000285706
0.000286918
0.000320333
0.00034361
0.000318804
0.000267647
0.000241726
0.000302192
0.000281793
0.000167118
-3.68652e-06
-5.55321e-05
-8.06919e-06
6.70115e-05
0.00013335
0.000176592
0.00019848
0.000193394
0.000160779
0.000143594
0.000162874
0.000209978
0.000257805
0.000268206
0.000238393
0.000220417
0.000210153
0.000170652
9.78138e-05
3.79167e-05
5.19691e-05
0.000140058
0.000281788
0.000411134
0.000431989
0.000320803
0.000171053
9.3148e-05
0.000136565
0.00022371
0.000258117
0.000274718
0.000316895
0.000347948
0.000338937
0.000296465
0.000258875
0.000304256
0.000306332
0.000214756
6.05098e-05
-1.40517e-05
1.15809e-06
5.47304e-05
0.000120103
0.000173225
0.000192903
0.000194479
0.000161866
0.000142809
0.000158926
0.00020498
0.000253415
0.000260701
0.000216432
0.000174469
0.000188598
0.000164995
0.000104338
6.15618e-05
8.04006e-05
0.000145284
0.000259576
0.000383331
0.000447815
0.000373735
0.000231721
0.000140084
0.000135961
0.000195596
0.000234466
0.00026445
0.000314507
0.000345239
0.000350935
0.000321007
0.000284653
0.000295384
0.000309217
0.000248082
0.000132144
5.08709e-05
3.38492e-05
5.87287e-05
0.000119458
0.000181132
0.000191828
0.000183903
0.000159375
0.000142681
0.000153399
0.000196416
0.000247173
0.000265158
0.000225592
0.000179179
0.000185258
0.000167333
0.000109093
6.90152e-05
9.65612e-05
0.000147453
0.000227527
0.00033532
0.000433431
0.000403868
0.000280232
0.000165696
0.000130742
0.000171487
0.000214832
0.000254
0.000305145
0.000340595
0.000353641
0.00033526
0.000293417
0.000282118
0.000297417
0.000267315
0.000192579
0.000123536
8.12682e-05
7.53629e-05
0.000125539
0.000180329
0.000188249
0.000172441
0.000156477
0.000142771
0.000153298
0.000189602
0.000234768
0.000259724
0.000241531
0.000202277
0.000193993
0.000178325
0.000115058
7.2061e-05
0.000113132
0.000168568
0.000209798
0.000293663
0.000396605
0.000410366
0.000318175
0.000207643
0.000146416
0.000154287
0.000196747
0.000236033
0.000280178
0.000323921
0.000352806
0.000345306
0.000301735
0.000276668
0.000283086
0.00026881
0.000226191
0.000176107
0.000129351
0.000105047
0.000139367
0.000187211
0.000190177
0.000164543
0.000140569
0.000133891
0.000149567
0.000184335
0.000228878
0.000255012
0.000244943
0.000215424
0.000201849
0.000187185
0.000128468
8.32514e-05
0.000134548
0.000199086
0.000219524
0.000263444
0.000353937
0.000386179
0.000332286
0.000245018
0.000172475
0.000152178
0.00018063
0.000218625
0.000267174
0.00030436
0.000333989
0.000345919
0.00030893
0.000272133
0.000266114
0.000247949
0.000230809
0.000207519
0.000175071
0.000146411
0.000161443
0.000192031
0.000187999
0.000151937
0.000125533
0.000122386
0.000141216
0.00017308
0.000222415
0.000261356
0.000259983
0.000226034
0.000202644
0.000189585
0.000141263
9.82444e-05
0.000147713
0.000212145
0.000230575
0.000249014
0.000320373
0.000357205
0.000326828
0.000253222
0.000181477
0.0001562
0.000179097
0.000223562
0.000267955
0.000307382
0.000334673
0.000342547
0.000303109
0.000258305
0.000245825
0.00021647
0.000219693
0.00020453
0.000185736
0.000181698
0.000201646
0.000206861
0.000186389
0.000145793
0.000113871
0.000107056
0.000121848
0.000145984
0.000192855
0.000247888
0.000268642
0.000238525
0.000219452
0.000209967
0.000177381
0.000135293
0.000152123
0.000203933
0.000224077
0.000237721
0.00030734
0.000348328
0.000322166
0.000243741
0.000178755
0.000164035
0.000186289
0.000215979
0.000258054
0.000307114
0.000337379
0.000337312
0.00029626
0.000241626
0.000217523
0.000176235
0.000189743
0.000189445
0.000181877
0.000174173
0.000188535
0.00020568
0.000191025
0.000157043
0.000127842
0.000112682
0.00010725
0.000112755
0.000138297
0.000191323
0.000233361
0.000225919
0.000212271
0.000224162
0.000223833
0.000182714
0.000159065
0.000181987
0.000199332
0.000223098
0.000292768
0.000343539
0.000313312
0.000232801
0.000170226
0.000150621
0.000173505
0.000198972
0.000239553
0.000292244
0.000323486
0.000316292
0.00028069
0.000235534
0.000200617
0.000171981
0.000150366
0.000151012
0.000166719
0.000192075
0.000205505
0.000204704
0.000179024
0.000152107
0.000137369
0.00012567
0.00011448
0.000105947
0.000108444
0.000139268
0.000182515
0.000202398
0.000203334
0.00021551
0.000229683
0.00021054
0.000167879
0.00015705
0.000177068
0.000226598
0.000299766
0.000349176
0.000313044
0.000214749
0.00012403
9.4735e-05
0.000124841
0.000175191
0.000228552
0.000278942
0.000308002
0.000305485
0.00028142
0.00025521
0.000215917
0.000234608
0.000188553
0.000157345
0.000160644
0.00017909
0.000198864
0.000200115
0.000179815
0.00015746
0.000142618
0.000132166
0.000123111
0.000121921
0.00012297
0.000128651
0.00014673
0.000165986
0.000187722
0.000211959
0.000230002
0.000218266
0.000187325
0.000172602
0.000181476
0.00021931
0.000287784
0.000352858
0.000330215
0.000230063
0.00012086
6.32533e-05
8.02496e-05
0.000138636
0.000213717
0.000280867
0.000308345
0.000298565
0.000263038
0.000262612
0.000263272
0.000248487
0.000223692
0.000201188
0.00017692
0.000167023
0.000171135
0.000173183
0.000170094
0.000166736
0.000158218
0.000143269
0.000132919
0.000137749
0.000148699
0.000156458
0.000159632
0.000166186
0.000185591
0.000210019
0.000226403
0.000223328
0.000205007
0.000192118
0.000195894
0.000219919
0.00026546
0.000314456
0.000311092
0.00024226
0.000157043
0.000104484
0.000101774
0.000140304
0.000200753
0.000258978
0.000285927
0.000277512
0.000266245
0.000251916
0.000258871
0.000257774
0.000217345
0.0001734
0.000155034
0.000135787
0.000143435
0.000158125
0.000172916
0.000184281
0.000184064
0.00017149
0.000159734
0.000152781
0.000147405
0.000149284
0.000163609
0.000184256
0.000201127
0.000217919
0.000234581
0.000237288
0.000223042
0.000205676
0.000192546
0.000193658
0.000221603
0.000265837
0.000286895
0.000248656
0.000180571
0.000129347
0.000119117
0.00013827
0.000182192
0.000230448
0.000257823
0.000256842
0.000254385
0.000255166
0.000269061
0.000257399
0.000217719
0.000161977
0.000104312
0.000103058
0.000116786
0.00013933
0.000163337
0.000182184
0.0001868
0.000173674
0.000157925
0.000158752
0.000171603
0.000176893
0.000172272
0.000176882
0.000202736
0.000239561
0.000266163
0.000271586
0.000247449
0.000211437
0.00018111
0.000169806
0.000174323
0.000187172
0.000248391
0.000246529
0.000202964
0.000157832
0.000137302
0.000140241
0.000171374
0.000209197
0.000233725
0.00024474
0.000252178
0.000262083
0.000270276
8.31796e-05
4.32663e-08
-1.29955e-05
2.67356e-05
8.84643e-05
0.000147558
0.000192163
0.000204
0.000174691
0.000139574
0.000144131
0.000191527
0.000246581
0.000274469
0.000262689
0.000227016
0.000200287
0.00018777
0.000169002
0.000125541
7.82958e-05
6.30666e-05
0.000106425
0.00020057
0.000294855
0.000340463
0.000347628
0.000344104
0.000333904
0.000334774
0.000353493
0.000371562
0.000384088
0.000386715
0.000368166
0.000334643
0.000325945
0.000344878
0.000318688
0.00021654
8.57805e-05
1.13766e-06
-1.37407e-05
2.49307e-05
8.58273e-05
0.000145424
0.000190591
0.000202856
0.000173391
0.00013794
0.000142241
0.000190083
0.000245673
0.000273928
0.000262363
0.000226731
0.000200091
0.000187794
0.000169294
0.00012576
7.79992e-05
6.17759e-05
0.00010387
0.000196986
0.000291017
0.000336756
0.000344143
0.000341359
0.000332147
0.000333292
0.000351742
0.000369667
0.000382743
0.000386485
0.000368919
0.000335889
0.000327343
0.00034699
0.000322044
0.00022037
8.66911e-05
-8.93385e-07
-1.7524e-05
2.09039e-05
8.24262e-05
0.000143039
0.000189307
0.000202211
0.000172362
0.000135667
0.000139389
0.000187738
0.000244375
0.000273284
0.000261928
0.000226151
0.000199599
0.000187749
0.000169878
0.000126046
7.73261e-05
5.99498e-05
0.000101111
0.000193887
0.000288381
0.000334184
0.000341175
0.000338987
0.000331037
0.000332226
0.000349752
0.000366741
0.000380333
0.000386226
0.000370374
0.0003372
0.000328716
0.00034991
0.000326665
0.000224687
8.44353e-05
-7.46062e-06
-2.52073e-05
1.44848e-05
7.77384e-05
0.000140138
0.000188199
0.000202146
0.000171806
0.000133337
0.000135662
0.000184375
0.000242531
0.000272552
0.000261395
0.000225158
0.000198658
0.00018769
0.000170751
0.000126382
7.63248e-05
5.79914e-05
9.91785e-05
0.000192781
0.000288553
0.000334048
0.000339521
0.00033721
0.000330482
0.000331654
0.000348074
0.000363376
0.000376707
0.000385101
0.000371845
0.000338156
0.000329866
0.000353783
0.00033278
0.000228976
7.91549e-05
-1.865e-05
-3.69794e-05
5.33671e-06
7.12644e-05
0.000136094
0.000186707
0.000202386
0.000171935
0.000132053
0.000132451
0.000180624
0.000239894
0.000271428
0.0002607
0.000223669
0.00019709
0.00018742
0.00017102
0.000126473
7.49264e-05
5.57809e-05
9.78475e-05
0.000193155
0.000290818
0.000335734
0.000338997
0.000335974
0.000330151
0.000331455
0.000347385
0.000360818
0.000372449
0.000382042
0.000371563
0.000337501
0.000330122
0.000356634
0.000341046
0.000234106
7.32221e-05
-3.35568e-05
-5.26569e-05
-6.8463e-06
6.21337e-05
0.00012952
0.000183587
0.000201963
0.000172339
0.000132209
0.000131919
0.00017899
0.000237433
0.000269704
0.000259823
0.000221973
0.000195073
0.000186993
0.000171654
0.000126375
7.26644e-05
5.1819e-05
9.42016e-05
0.000191072
0.000289883
0.000334238
0.000335691
0.000333568
0.000329437
0.000331266
0.000348001
0.000360637
0.000369351
0.000377607
0.000368232
0.000334898
0.000327935
0.000361738
0.000350772
0.000242623
7.18137e-05
-4.79653e-05
-7.16763e-05
-2.2227e-05
5.06606e-05
0.000119452
0.000177095
0.000199494
0.000171301
0.000131762
0.000132986
0.000181159
0.000238202
0.000268636
0.000258815
0.000220408
0.000193094
0.000186734
0.000172836
0.000126301
6.81467e-05
4.15085e-05
8.14708e-05
0.00018089
0.000280803
0.000325656
0.000321879
0.000321784
0.000324103
0.000328955
0.000348755
0.000363093
0.000369279
0.000373765
0.000362616
0.000324872
0.000319799
0.000367976
0.000368603
0.000251893
8.3284e-05
-5.22662e-05
-8.9896e-05
-4.05343e-05
3.74032e-05
0.000107768
0.000167061
0.00019474
0.000169861
0.000130957
0.000130403
0.000179521
0.0002403
0.000270188
0.000258883
0.00021925
0.000191296
0.000186701
0.000174285
0.00012611
6.07401e-05
2.35747e-05
5.58707e-05
0.00015739
0.000264348
0.000307222
0.00029988
0.000297025
0.000307191
0.000319596
0.000344777
0.00036287
0.000370834
0.000372398
0.00035849
0.000311732
0.000303351
0.000369899
0.000394519
0.00027563
0.000109341
-4.53287e-05
-0.0001003
-6.01838e-05
2.11184e-05
9.47539e-05
0.000155468
0.000188097
0.000169059
0.000132713
0.000129097
0.000171805
0.000233047
0.000268869
0.000260155
0.000219348
0.000189934
0.000186557
0.000174985
0.000124934
5.32606e-05
6.02413e-06
2.78555e-05
0.000126854
0.00024138
0.0002894
0.000273179
0.000265052
0.000278629
0.000301361
0.000338088
0.00035991
0.000363946
0.000365776
0.000358786
0.000304676
0.000284482
0.000363353
0.000422869
0.000317607
0.000150256
-2.88689e-05
-9.9253e-05
-8.09105e-05
2.44195e-06
8.00429e-05
0.000143691
0.000180861
0.000167284
0.000133373
0.00012899
0.000165503
0.000220866
0.000257079
0.000255798
0.000219776
0.000189594
0.000186485
0.000174186
0.00012163
4.87411e-05
4.79376e-07
1.78732e-05
0.000110467
0.000223397
0.000274695
0.000253572
0.000229923
0.000241422
0.000273647
0.000326727
0.000358618
0.00035952
0.000358418
0.000357124
0.000309318
0.000275568
0.00035175
0.000445462
0.000366831
0.000205336
1.03407e-07
-9.43222e-05
-0.000104307
-1.98061e-05
6.46437e-05
0.000134331
0.000175671
0.000166109
0.000134501
0.00012774
0.000160262
0.000209688
0.000240964
0.000240012
0.000210794
0.000186265
0.000185721
0.00017191
0.000115341
4.43938e-05
3.75262e-06
2.95821e-05
0.00011923
0.000225896
0.000271418
0.000244639
0.000206281
0.000204305
0.000238164
0.000307009
0.00035267
0.000359505
0.00035836
0.000361134
0.000328238
0.000285223
0.000346383
0.000457735
0.000415357
0.000265852
4.74361e-05
-7.51218e-05
-0.00010146
-4.33346e-05
4.59459e-05
0.000124736
0.000173352
0.000167276
0.000134015
0.000122705
0.000153912
0.000200846
0.000227124
0.00022098
0.000192669
0.000173541
0.000178593
0.00016656
0.000108284
3.81821e-05
1.00793e-05
5.40444e-05
0.000143529
0.000243297
0.000283252
0.000251057
0.00020385
0.000182012
0.000202533
0.000277817
0.000334104
0.000354569
0.000357883
0.000367823
0.000347869
0.000309213
0.000350922
0.000462009
0.000451253
0.000318296
0.000106763
-3.64206e-05
-8.87535e-05
-5.6152e-05
2.6744e-05
0.00011359
0.000168741
0.000164291
0.000132125
0.000114694
0.000146253
0.000197296
0.000222566
0.000207493
0.000173785
0.000157281
0.000166335
0.000159484
0.000106882
3.75438e-05
1.6073e-05
6.93791e-05
0.000158079
0.000249802
0.000297359
0.000268656
0.000219532
0.000178107
0.000182959
0.00024404
0.000304107
0.000334394
0.000351767
0.000372542
0.000365847
0.000327145
0.000354821
0.000452967
0.000467242
0.000351976
0.000167078
1.8325e-05
-5.59936e-05
-5.30915e-05
1.54532e-05
9.73254e-05
0.00016144
0.000154185
0.00013157
0.000108686
0.000141043
0.000197888
0.000226713
0.000207172
0.000166796
0.000146573
0.000162787
0.000159059
0.000117257
4.83184e-05
3.83704e-05
8.34759e-05
0.000154128
0.000234073
0.000298145
0.000288009
0.000241937
0.000188566
0.000187363
0.000220137
0.000269463
0.000301693
0.000330086
0.00036595
0.000376925
0.000339916
0.000341463
0.000424263
0.000458524
0.000365654
0.000221853
8.24411e-05
-5.88232e-06
-3.03929e-05
1.3815e-05
7.93007e-05
0.000152282
0.000157287
0.000132608
0.000110953
0.000138752
0.000196799
0.000231508
0.000216894
0.000187822
0.000164627
0.000172183
0.000156526
0.000112694
5.90191e-05
6.36128e-05
0.000104461
0.000149752
0.000217387
0.00029658
0.000309246
0.000263622
0.000187969
0.000200668
0.000206346
0.000240934
0.000275658
0.000305587
0.000343858
0.000371947
0.000347252
0.000332672
0.000380266
0.000425012
0.000357131
0.000263927
0.00015004
6.10143e-05
1.69365e-05
3.10613e-05
8.57348e-05
0.000137099
0.000148623
0.000129768
0.000114852
0.000139703
0.000196361
0.00023585
0.00022537
0.000207431
0.00018447
0.000180666
0.00015397
9.28914e-05
5.46038e-05
8.15102e-05
0.000133943
0.000157892
0.00020963
0.000290186
0.00033048
0.000293416
0.000223242
0.000178626
0.000196697
0.000223746
0.000256694
0.000285694
0.000325851
0.000368296
0.000360144
0.000325958
0.000344177
0.000378161
0.00034137
0.000281155
0.000193744
0.000127731
9.43563e-05
9.04509e-05
0.000106622
0.000128278
0.000124738
0.000117266
0.00011102
0.000135879
0.000195882
0.000241791
0.000242967
0.000221577
0.000200086
0.000188236
0.000166938
0.000102748
5.82239e-05
9.49143e-05
0.000164873
0.000186005
0.000212565
0.000280271
0.000331731
0.000307364
0.000241333
0.000195884
0.00018829
0.00021033
0.000249913
0.000278829
0.000313496
0.00035879
0.000370582
0.000327246
0.00031265
0.000336329
0.00030782
0.000285718
0.000227399
0.000179398
0.000164161
0.000160325
0.000148801
0.000131735
0.000104862
0.000102572
9.90059e-05
0.000128984
0.000191753
0.000244116
0.000258132
0.000239128
0.000211536
0.000189417
0.000169529
0.000130957
7.09887e-05
0.000100321
0.000171534
0.000210369
0.000227098
0.000282476
0.00032634
0.000310926
0.000248852
0.000200128
0.00018781
0.000204117
0.000239202
0.000273508
0.00031421
0.000356257
0.000365372
0.000321598
0.000279266
0.000290746
0.000265753
0.000271585
0.000234302
0.000200926
0.000212427
0.000226501
0.000201357
0.000152638
0.000111749
9.68412e-05
8.72263e-05
0.000105762
0.000148407
0.000210118
0.000257087
0.000263873
0.000231519
0.000197305
0.000182576
0.0001615
0.000117419
0.000113515
0.000157268
0.000203031
0.000237964
0.00029651
0.000329003
0.000306822
0.000245843
0.000201492
0.000191524
0.000203182
0.00022573
0.000262809
0.000304482
0.000341921
0.000350229
0.000312425
0.000255054
0.000240548
0.000228107
0.000236195
0.000232706
0.000217129
0.000208324
0.000214592
0.000211368
0.000183318
0.000141148
0.000111092
9.22143e-05
8.9865e-05
0.00011106
0.000149009
0.000194886
0.000229972
0.000231944
0.000215097
0.000202502
0.00019764
0.0001633
0.000131729
0.000146282
0.000167896
0.00021672
0.000287331
0.000327164
0.000297609
0.000233901
0.000193878
0.000191439
0.000206494
0.000226167
0.000256749
0.00028833
0.000315435
0.000318976
0.000293296
0.000247048
0.000218188
0.000198495
0.000197949
0.000203377
0.000203577
0.000216434
0.00023189
0.000222459
0.000182827
0.000145076
0.000124502
0.000107054
8.69511e-05
8.31124e-05
9.90194e-05
0.00013003
0.000165462
0.000193503
0.000208632
0.000216411
0.000210115
0.000184019
0.00015018
0.000142025
0.000165155
0.000216373
0.000281795
0.000318087
0.000287203
0.000218545
0.000169049
0.000155814
0.000181136
0.000222734
0.000260052
0.000284334
0.000297148
0.000297698
0.000289023
0.000265912
0.000225006
0.000242287
0.000212457
0.000200655
0.000199587
0.000214087
0.00022967
0.000221894
0.000186272
0.000151334
0.000133841
0.000125564
0.000114936
0.000102874
9.76377e-05
9.93199e-05
0.000107885
0.000132996
0.000164915
0.000195584
0.000207231
0.000196089
0.000177498
0.000170691
0.000183517
0.000217825
0.000269954
0.000308513
0.000292848
0.000228868
0.000160054
0.00012823
0.000143329
0.000193022
0.00024949
0.000290037
0.000301742
0.000283611
0.000263484
0.000274954
0.00026981
0.000252453
0.000228726
0.000211755
0.000202315
0.000202965
0.000205841
0.000198266
0.000178365
0.000161414
0.00015105
0.000142087
0.000141258
0.0001482
0.000156353
0.000154368
0.000142689
0.000138476
0.000152225
0.000182715
0.000200323
0.000192764
0.000175325
0.000171507
0.000186866
0.000216179
0.000252102
0.000284737
0.000282594
0.000235313
0.000171459
0.000130855
0.000131474
0.000169955
0.000224063
0.000268782
0.000284383
0.00027083
0.000261317
0.000259621
0.000266393
0.000259194
0.000226736
0.000194363
0.000175335
0.000167388
0.000164774
0.000165594
0.000167175
0.000174927
0.000179347
0.000170425
0.000157889
0.000151181
0.000150152
0.000156939
0.000167413
0.000177494
0.000188603
0.000201697
0.000211336
0.000210178
0.000198419
0.000187548
0.000185878
0.000196831
0.000221559
0.000253964
0.000265966
0.000237916
0.000183116
0.000139843
0.000133072
0.000158972
0.00019978
0.000240361
0.000260147
0.000255224
0.000250636
0.000257147
0.000270097
0.000262358
0.000222036
0.000170921
0.000129586
0.000112838
0.000118537
0.000133845
0.000155692
0.000177658
0.000187903
0.000179271
0.000163535
0.0001601
0.000169943
0.000175984
0.000173211
0.000179203
0.0002038
0.00023509
0.000253086
0.000254044
0.000230866
0.000198152
0.000178994
0.000175118
0.000188476
0.000225845
0.000244461
0.000239783
0.000203391
0.000168188
0.000162347
0.000174591
0.00019223
0.000213761
0.00023077
0.000240012
0.000249209
0.000263568
0.000275512
0.000186093
0.000114493
5.84688e-05
4.14877e-05
6.21229e-05
0.000103584
0.000154782
0.000188767
0.000178348
0.000142281
0.000129059
0.000156163
0.000194982
0.000212182
0.000201692
0.000183038
0.00017728
0.000177915
0.000164425
0.000136187
0.000110036
0.000103574
0.000132504
0.000201843
0.000280192
0.000330412
0.000353069
0.000355138
0.00034186
0.000342197
0.000365574
0.000399267
0.000433971
0.000450877
0.000440373
0.000400931
0.000368425
0.00035118
0.000316292
0.00025775
0.000188855
0.000116362
5.9278e-05
4.16337e-05
6.18599e-05
0.000103102
0.000154261
0.000188531
0.00017848
0.000142531
0.000129179
0.000156282
0.000195259
0.000212491
0.000201751
0.000182779
0.000176938
0.000177693
0.00016409
0.000135641
0.000109223
0.000102545
0.000131095
0.000200026
0.000278118
0.000328062
0.000350424
0.000352421
0.00033867
0.000338009
0.000360738
0.0003944
0.000430276
0.000449194
0.000440587
0.000401884
0.000369484
0.000353144
0.00031926
0.000260715
0.000190536
0.000116621
5.81257e-05
3.97839e-05
6.00626e-05
0.000101524
0.000153142
0.000188254
0.00017873
0.000142464
0.000128465
0.000155559
0.000194977
0.000212306
0.00020131
0.00018208
0.000176493
0.000177801
0.000164007
0.000135146
0.00010826
0.000101235
0.00012933
0.000198201
0.000276593
0.000326468
0.000348544
0.000350662
0.000336414
0.000334338
0.000355375
0.000387656
0.000425066
0.000447984
0.000443169
0.000404409
0.000372387
0.000356732
0.000322979
0.000263563
0.000190627
0.000114388
5.40323e-05
3.50951e-05
5.58848e-05
9.80573e-05
0.000150826
0.000187455
0.000178518
0.000141387
0.000126121
0.000153166
0.000193428
0.000211058
0.000199774
0.00018046
0.000175789
0.000178336
0.000164329
0.000134793
0.000107233
9.99184e-05
0.000127811
0.000197365
0.000276862
0.000326777
0.000348202
0.00035041
0.000335664
0.000332252
0.000351146
0.00038025
0.000418396
0.000446844
0.000446369
0.000409014
0.000377638
0.000362409
0.000327902
0.000266203
0.000189449
0.000109913
4.71539e-05
2.75982e-05
4.90534e-05
9.22168e-05
0.000146744
0.000185634
0.000177443
0.000139019
0.00012188
0.000148502
0.000189619
0.000207767
0.000196287
0.000177076
0.00017418
0.000178978
0.000165762
0.000134328
0.000105771
9.83384e-05
0.000126383
0.000197554
0.000279307
0.000329735
0.000349752
0.000351237
0.000336001
0.000332205
0.000350061
0.000374381
0.000410712
0.000444446
0.00044943
0.000415421
0.000385686
0.000370825
0.000334692
0.00026911
0.000187248
0.000103894
3.80951e-05
1.74575e-05
3.93427e-05
8.35762e-05
0.000140487
0.000182419
0.000175409
0.000135791
0.000116512
0.000141943
0.000182979
0.000201308
0.000189833
0.000171054
0.000170858
0.00017927
0.000167356
0.000133701
0.000103462
9.52677e-05
0.00012226
0.000195201
0.000281767
0.000334246
0.000353621
0.000352625
0.000335857
0.000333327
0.000353277
0.000373126
0.000403913
0.000440199
0.000448528
0.000422547
0.000396977
0.000383147
0.000344535
0.000273119
0.000186621
9.70219e-05
2.85333e-05
5.30713e-06
2.67639e-05
7.11762e-05
0.000130772
0.000177066
0.000172231
0.000132372
0.000111936
0.000135899
0.000174723
0.000191555
0.000179897
0.000161991
0.000165551
0.000179067
0.000169345
0.000133444
0.000100788
8.97227e-05
0.000111617
0.000183174
0.000274444
0.000331816
0.00035554
0.000354221
0.000332819
0.000331126
0.00035848
0.00037773
0.000400623
0.000435042
0.000446248
0.000427475
0.00041135
0.000401095
0.000359841
0.000279843
0.000189293
9.24378e-05
1.96981e-05
-7.48833e-06
1.16168e-05
5.53778e-05
0.000116153
0.000167377
0.000166377
0.000127812
0.000107646
0.00013075
0.000168011
0.000181953
0.000167919
0.000150603
0.000158993
0.000178937
0.000172188
0.000133941
9.81251e-05
8.11221e-05
9.21584e-05
0.000158314
0.000254617
0.000317073
0.000345897
0.000351103
0.000328313
0.000322569
0.00035306
0.000379231
0.000400383
0.000430539
0.000441077
0.000424469
0.000425921
0.000426385
0.000384187
0.000292382
0.000197699
9.22001e-05
1.32321e-05
-1.76649e-05
-1.2581e-06
3.98087e-05
9.84737e-05
0.000153273
0.000156866
0.000120487
0.000101075
0.000122201
0.000153916
0.000165499
0.000154146
0.00013896
0.000152024
0.000179176
0.000175673
0.00013453
9.50045e-05
6.98971e-05
6.56012e-05
0.000121145
0.000223226
0.00029391
0.000324788
0.000336097
0.000320602
0.000313361
0.000339752
0.000360675
0.000385734
0.000423454
0.000433508
0.000419145
0.000433843
0.00045481
0.000419773
0.000315328
0.000216826
9.89969e-05
1.1937e-05
-2.44134e-05
-9.86386e-06
2.93459e-05
8.37151e-05
0.000139078
0.000145619
0.000109819
9.03119e-05
0.000108445
0.000133199
0.000138496
0.000127791
0.000118732
0.000141662
0.000177679
0.00017801
0.000133618
9.3294e-05
6.318e-05
4.27302e-05
8.12227e-05
0.00018413
0.000268079
0.000301584
0.000312288
0.000304463
0.000299825
0.000327172
0.000338835
0.000351671
0.000397981
0.00042043
0.000410418
0.000426826
0.000475758
0.000462727
0.00035197
0.000251781
0.000118904
1.92191e-05
-2.78281e-05
-1.75854e-05
2.72936e-05
7.99284e-05
0.000134582
0.000138305
9.98922e-05
7.81692e-05
9.2219e-05
0.000111506
0.000115044
0.000104884
9.4656e-05
0.000123388
0.000170473
0.000177601
0.000131173
9.57821e-05
6.75588e-05
4.03201e-05
5.85009e-05
0.000148275
0.000245127
0.000287707
0.000293792
0.000283963
0.000281152
0.000312312
0.000327107
0.00032428
0.000358079
0.000401473
0.000400473
0.000416452
0.000476267
0.000498768
0.000399298
0.000298485
0.000155438
4.25381e-05