/*--------------------------------*- C++ -*----------------------------------*\
| =========                 |                                                 |
| \\      /  F ield         | OpenFOAM: The Open Source CFD Toolbox           |
|  \\    /   O peration     | Version:  2306                                  |
|   \\  /    A nd           | Website:  www.openfoam.com                      |
|    \\/     M anipulation  |                                                 |
\*---------------------------------------------------------------------------*/
FoamFile
{
    version     2.0;
    format      ascii;
    arch        "LSB;label=32;scalar=64";
    class       surfaceScalarField;
    location    "2.5";
    object      phi;
}
// * * * * * * * * * * * * * * * * * * * * * * * * * * * * * * * * * * * * * //

dimensions      [0 3 -1 0 0 0 0];

oriented        oriented;

internalField   nonuniform List<scalar> 
175300
(
6.53093e-06
8.2271e-07
1.53884e-06
6.43893e-06
2.65624e-07
2.091e-06
6.32516e-06
-2.18266e-07
2.30737e-06
6.22914e-06
-4.15133e-07
2.2482e-06
6.12961e-06
-3.29547e-07
2.02323e-06
5.99883e-06
-1.69559e-07
1.71381e-06
5.81469e-06
-7.78958e-08
1.40168e-06
5.51314e-06
-4.37984e-08
1.19417e-06
5.0176e-06
-3.43979e-08
1.16759e-06
4.3959e-06
-1.11604e-07
1.2903e-06
3.87711e-06
-3.51684e-07
1.42758e-06
3.62829e-06
-6.40067e-07
1.49306e-06
3.62958e-06
-8.30775e-07
1.48809e-06
3.74902e-06
-8.58167e-07
1.36292e-06
3.8499e-06
-6.91209e-07
1.06869e-06
3.89807e-06
-3.76741e-07
6.5538e-07
3.98493e-06
-7.87476e-08
2.39438e-07
4.1638e-06
1.13001e-07
-1.01509e-07
4.38576e-06
2.33296e-07
-3.62394e-07
4.60226e-06
2.84097e-07
-5.67141e-07
4.81495e-06
1.90968e-07
-7.42027e-07
5.06935e-06
-6.55455e-08
-9.21956e-07
5.40453e-06
-3.29429e-07
-1.17786e-06
5.73907e-06
-3.83997e-07
-1.52412e-06
5.93054e-06
-2.81563e-07
-1.80024e-06
5.8838e-06
-1.50505e-07
-1.90416e-06
5.57115e-06
2.15993e-08
-1.94805e-06
5.03382e-06
2.14742e-07
-1.98575e-06
4.48646e-06
1.06675e-07
-1.89525e-06
4.1382e-06
-2.64408e-07
-1.77651e-06
3.98301e-06
-4.46322e-07
-1.81931e-06
3.961e-06
-3.25215e-07
-1.93979e-06
4.07468e-06
-1.06269e-07
-1.86731e-06
4.33191e-06
1.62854e-07
-1.50375e-06
4.67288e-06
5.35608e-07
-9.92574e-07
5.04371e-06
8.95303e-07
-5.49061e-07
5.46929e-06
9.93876e-07
-2.49062e-07
5.93361e-06
9.31627e-07
4.7867e-08
6.32894e-06
9.99138e-07
3.68666e-07
1.09488e-06
8.75297e-07
2.21363e-05
1.89685e-06
4.9977e-06
2.19941e-05
1.90049e-07
6.20221e-06
2.15683e-05
-1.13382e-06
6.52599e-06
2.11177e-05
-1.57253e-06
6.28472e-06
2.07247e-05
-1.24247e-06
5.80289e-06
2.0292e-05
-7.43529e-07
5.14906e-06
1.9657e-05
-4.11697e-07
4.37974e-06
1.86219e-05
-2.13824e-07
3.74649e-06
1.7059e-05
-1.562e-07
3.55563e-06
1.5186e-05
-4.58122e-07
3.84819e-06
1.35669e-05
-1.30885e-06
4.30832e-06
1.26474e-05
-2.33191e-06
4.57772e-06
1.23994e-05
-2.9814e-06
4.48098e-06
1.24833e-05
-2.95948e-06
3.93354e-06
1.26011e-05
-2.2666e-06
2.98486e-06
1.27269e-05
-1.18713e-06
1.84322e-06
1.30504e-05
-2.55948e-07
7.56154e-07
1.36396e-05
2.9225e-07
-1.45655e-07
1.43783e-05
5.72823e-07
-8.85085e-07
1.51893e-05
5.94713e-07
-1.5022e-06
1.60925e-05
8.28005e-08
-2.05766e-06
1.71582e-05
-8.6866e-07
-2.6608e-06
1.83694e-05
-1.70339e-06
-3.47016e-06
1.94657e-05
-1.80586e-06
-4.4502e-06
2.00751e-05
-1.38527e-06
-5.182e-06
1.99161e-05
-8.25294e-07
-5.41601e-06
1.89291e-05
-1.9065e-07
-5.37603e-06
1.73486e-05
3.22605e-07
-5.24097e-06
1.57092e-05
-6.85286e-08
-4.99193e-06
1.4418e-05
-1.0757e-06
-4.95367e-06
1.35578e-05
-1.48305e-06
-5.37212e-06
1.32086e-05
-1.10951e-06
-5.76713e-06
1.34661e-05
-4.69083e-07
-5.41836e-06
1.42646e-05
4.06813e-07
-4.21323e-06
1.53756e-05
1.65774e-06
-2.68449e-06
1.66442e-05
2.8209e-06
-1.39111e-06
1.80707e-05
3.12525e-06
-4.08892e-07
1.95834e-05
2.98186e-06
4.76097e-07
2.09153e-05
3.012e-06
1.65131e-06
2.98122e-06
3.23896e-06
4.17686e-05
2.44179e-06
8.45042e-06
4.17382e-05
-6.21019e-07
1.03311e-05
4.08782e-05
-2.78955e-06
1.07055e-05
3.9847e-05
-3.37358e-06
1.01817e-05
3.90212e-05
-2.66741e-06
9.48823e-06
3.82585e-05
-1.72405e-06
8.72619e-06
3.71936e-05
-1.04332e-06
7.72274e-06
3.54876e-05
-5.47381e-07
6.64954e-06
3.29564e-05
-3.59732e-07
6.03509e-06
2.98034e-05
-8.59987e-07
6.2243e-06
2.67359e-05
-2.40234e-06
6.99652e-06
2.45748e-05
-4.46831e-06
7.70453e-06
2.35566e-05
-5.95489e-06
7.72095e-06
2.32605e-05
-6.02061e-06
6.84578e-06
2.32079e-05
-4.65125e-06
5.32866e-06
2.33307e-05
-2.53364e-06
3.56008e-06
2.38758e-05
-7.4794e-07
1.86053e-06
2.49145e-05
2.22542e-07
4.39542e-07
2.62699e-05
6.59743e-07
-7.83923e-07
2.78412e-05
4.66927e-07
-1.80822e-06
2.96772e-05
-8.76055e-07
-2.68659e-06
3.18524e-05
-3.08237e-06
-3.63836e-06
3.42539e-05
-4.88599e-06
-4.99469e-06
3.64271e-05
-5.05683e-06
-6.74278e-06
3.77636e-05
-4.00785e-06
-8.19007e-06
3.77688e-05
-2.54809e-06
-8.77247e-06
3.63074e-05
-1.02102e-06
-8.6506e-06
3.37556e-05
3.83021e-08
-8.16349e-06
3.09008e-05
-6.35999e-07
-7.57591e-06
2.83072e-05
-2.33567e-06
-7.5506e-06
2.61774e-05
-2.96746e-06
-8.44999e-06
2.48694e-05
-2.33148e-06
-9.46587e-06
2.48082e-05
-1.32552e-06
-9.28681e-06
2.59828e-05
1.42646e-07
-7.51729e-06
2.79422e-05
2.47692e-06
-5.00544e-06
3.03241e-05
4.73553e-06
-2.75954e-06
3.30379e-05
5.39154e-06
-9.71431e-07
3.59355e-05
5.11824e-06
7.10335e-07
3.86264e-05
5.01633e-06
2.81413e-06
4.66346e-06
5.55288e-06
6.54889e-05
1.72537e-06
1.11806e-05
6.59209e-05
-2.49955e-06
1.41961e-05
6.45631e-05
-5.13791e-06
1.48852e-05
6.26622e-05
-5.61669e-06
1.39428e-05
6.12021e-05
-4.43016e-06
1.28145e-05
6.01221e-05
-2.98198e-06
1.20616e-05
5.8796e-05
-1.91055e-06
1.12265e-05
5.67003e-05
-1.03748e-06
9.95439e-06
5.35719e-05
-6.25602e-07
8.68301e-06
4.93898e-05
-1.12143e-06
8.24013e-06
4.46352e-05
-3.03441e-06
9.01793e-06
4.04274e-05
-6.09913e-06
1.04357e-05
3.77011e-05
-8.88485e-06
1.11299e-05
3.63607e-05
-9.60581e-06
1.03106e-05
3.57665e-05
-7.83082e-06
8.41522e-06
3.56723e-05
-4.65555e-06
6.17484e-06
3.63058e-05
-1.88903e-06
3.99431e-06
3.77257e-05
-3.92658e-07
2.10249e-06
3.9684e-05
1.06962e-07
6.0041e-07
4.20468e-05
-5.63891e-07
-6.85844e-07
4.49206e-05
-3.20514e-06
-1.67316e-06
4.84363e-05
-7.5257e-06
-2.65382e-06
5.24113e-05
-1.10348e-05
-4.38744e-06
5.61721e-05
-1.14584e-05
-7.12899e-06
5.88397e-05
-9.36004e-06
-9.91912e-06
5.96551e-05
-6.21375e-06
-1.15697e-05
5.82927e-05
-2.98434e-06
-1.18267e-05
5.51167e-05
-8.29712e-07
-1.10241e-05
5.11139e-05
-1.60429e-06
-9.73934e-06
4.70286e-05
-3.93837e-06
-9.23696e-06
4.31174e-05
-4.70452e-06
-1.03818e-05
3.99214e-05
-3.77008e-06
-1.23496e-05
3.84555e-05
-2.66114e-06
-1.32272e-05
3.92687e-05
-1.14216e-06
-1.18235e-05
4.18576e-05
1.85609e-06
-8.78375e-06
4.54833e-05
5.00673e-06
-5.63021e-06
4.98127e-05
6.16728e-06
-2.96831e-06
5.45467e-05
5.50432e-06
-8.9125e-08
5.9157e-05
5.55898e-06
2.83639e-06
5.0585e-06
6.81145e-06
9.23777e-05
-1.52462e-06
1.18531e-05
9.40314e-05
-6.19163e-06
1.69127e-05
9.2337e-05
-8.30771e-06
1.8846e-05
8.92482e-05
-8.02056e-06
1.77392e-05
8.6863e-05
-6.24835e-06
1.57224e-05
8.55084e-05
-4.31444e-06
1.46648e-05
8.42357e-05
-2.87098e-06
1.43623e-05
8.2203e-05
-1.6302e-06
1.35759e-05
7.9081e-05
-9.60833e-07
1.18449e-05
7.45583e-05
-1.22718e-06
1.0172e-05
6.84617e-05
-2.85466e-06
1.01153e-05
6.16751e-05
-6.26238e-06
1.20866e-05
5.59736e-05
-1.04818e-05
1.42114e-05
5.23637e-05
-1.27379e-05
1.42311e-05
5.04615e-05
-1.14176e-05
1.22605e-05
4.97001e-05
-7.55644e-06
9.68641e-06
5.00885e-05
-3.8443e-06
7.25336e-06
5.15898e-05
-1.74794e-06
5.18247e-06
5.38397e-05
-1.08921e-06
3.55514e-06
5.66217e-05
-2.39546e-06
2.46682e-06
6.01475e-05
-7.09668e-06
2.02235e-06
6.48253e-05
-1.48435e-05
1.81836e-06
7.06466e-05
-2.15489e-05
4.15805e-07
7.6769e-05
-2.30004e-05
-3.30348e-06
8.18736e-05
-1.94955e-05
-8.39132e-06
8.47237e-05
-1.34534e-05
-1.2572e-05
8.46036e-05
-7.05665e-06
-1.45027e-05
8.16202e-05
-2.63902e-06
-1.40674e-05
7.68776e-05
-3.02074e-06
-1.19557e-05
7.14481e-05
-5.86198e-06
-1.02541e-05
6.57166e-05
-6.55946e-06
-1.09208e-05
6.00902e-05
-5.05214e-06
-1.36112e-05
5.58402e-05
-3.84516e-06
-1.61438e-05
5.45455e-05
-2.92673e-06
-1.6474e-05
5.65126e-05
-4.45156e-07
-1.42918e-05
6.09015e-05
2.52672e-06
-1.10304e-05
6.69408e-05
3.2852e-06
-7.81712e-06
7.39623e-05
1.87451e-06
-4.25307e-06
8.11112e-05
1.9277e-06
4.00103e-07
2.34248e-06
5.51306e-06
0.000119327
-9.90446e-06
7.89235e-06
0.000123979
-1.36905e-05
1.62221e-05
0.000122847
-1.32745e-05
2.13422e-05
0.000118372
-1.04989e-05
2.16217e-05
0.000114635
-7.78163e-06
1.87387e-05
0.000113077
-5.63759e-06
1.64751e-05
0.00011236
-3.90747e-06
1.63798e-05
0.000110956
-2.2703e-06
1.69282e-05
0.000108488
-1.38647e-06
1.5821e-05
0.000104649
-1.42345e-06
1.28668e-05
9.84872e-05
-2.16123e-06
1.07323e-05
8.97747e-05
-4.67622e-06
1.21401e-05
8.02961e-05
-9.52862e-06
1.59795e-05
7.26497e-05
-1.37711e-05
1.80354e-05
6.79233e-05
-1.42018e-05
1.66625e-05
6.56079e-05
-1.06377e-05
1.37957e-05
6.51828e-05
-6.29545e-06
1.11621e-05
6.6229e-05
-3.54593e-06
9.17342e-06
6.80929e-05
-2.52747e-06
7.82806e-06
7.02956e-05
-4.37248e-06
7.41149e-06
7.30679e-05
-1.17195e-05
8.40936e-06
7.7379e-05
-2.44154e-05
1.02222e-05
8.40327e-05
-3.63357e-05
1.06215e-05
9.28276e-05
-4.10977e-05
7.27235e-06
0.000102302
-3.72843e-05
-2.38418e-07
0.000109826
-2.72212e-05
-9.01103e-06
0.000113267
-1.52661e-05
-1.50564e-05
0.000112104
-6.30875e-06
-1.68276e-05
0.000107522
-5.15848e-06
-1.46773e-05
0.000101241
-8.25475e-06
-1.13942e-05
9.42415e-05
-8.66676e-06
-1.05661e-05
8.67668e-05
-6.12217e-06
-1.30314e-05
7.95228e-05
-4.27787e-06
-1.68111e-05
7.43965e-05
-3.66258e-06
-1.94929e-05
7.31159e-05
-2.39446e-06
-1.99361e-05
7.60099e-05
-1.54956e-06
-1.8613e-05
8.24288e-05
-3.46812e-06
-1.6319e-05
9.12031e-05
-7.25094e-06
-1.2789e-05
0.000100908
-8.10452e-06
-7.42513e-06
-7.43235e-06
-1.06009e-07
0.000138961
-2.54581e-05
-3.01095e-06
0.000149956
-2.87686e-05
8.66461e-06
0.000152577
-2.32081e-05
1.91874e-05
0.000147351
-1.39056e-05
2.41971e-05
0.000141598
-8.61357e-06
2.25255e-05
0.000139898
-7.08838e-06
1.84895e-05
0.000140685
-5.64396e-06
1.70462e-05
0.000140751
-3.23523e-06
1.87665e-05
0.000139357
-1.8834e-06
2.00686e-05
0.000137035
-2.12951e-06
1.73489e-05
0.000132721
-2.11893e-06
1.2372e-05
0.00012457
-2.64612e-06
1.112e-05
0.000112592
-6.23273e-06
1.55664e-05
9.97852e-05
-1.1343e-05
2.05684e-05
8.99062e-05
-1.41557e-05
2.11677e-05
8.42859e-05
-1.2477e-05
1.83678e-05
8.21909e-05
-8.49092e-06
1.52816e-05
8.23447e-05
-5.22311e-06
1.3154e-05
8.34852e-05
-3.53898e-06
1.19647e-05
8.46688e-05
-5.51024e-06
1.20639e-05
8.57582e-05
-1.53133e-05
1.4407e-05
8.78903e-05
-3.34575e-05
1.86406e-05
9.26243e-05
-5.18512e-05
2.19657e-05
0.000100901
-6.12358e-05
2.08472e-05
0.000113166
-5.93496e-05
1.37765e-05
0.000127526
-4.84496e-05
2.10006e-06
0.00013887
-3.04396e-05
-1.03546e-05
0.000143016
-1.39696e-05
-1.72056e-05
0.000140374
-8.81535e-06
-1.72293e-05
0.00013399
-1.12183e-05
-1.32907e-05
0.000126545
-1.10447e-05
-1.03963e-05
0.000118743
-7.13295e-06
-1.12836e-05
0.000110374
-4.14592e-06
-1.50115e-05
0.000102216
-2.64762e-06
-1.92283e-05
9.62151e-05
-1.2069e-06
-2.26743e-05
9.44524e-05
-2.97557e-06
-2.52049e-05
9.79885e-05
-1.01986e-05
-2.6434e-05
0.000105868
-1.93704e-05
-2.49111e-05
0.000115514
-2.26119e-05
-2.00868e-05
-2.17956e-05
-1.27639e-05
0.000150377
-4.14809e-05
-1.75489e-05
0.000166278
-4.93456e-05
-4.41723e-06
0.000176499
-4.15704e-05
1.08327e-05
0.000173442
-2.11349e-05
2.25437e-05
0.000164432
-7.83221e-06
2.57804e-05
0.000161112
-7.31297e-06
2.17534e-05
0.00016485
-9.31315e-06
1.7334e-05
0.000168511
-6.16823e-06
1.78856e-05
0.000168159
-2.19761e-06
2.20872e-05
0.000166609
-2.93904e-06
2.29893e-05
0.000165642
-4.81458e-06
1.71184e-05
0.00016209
-4.17206e-06
1.14149e-05
0.000152212
-4.21283e-06
1.36592e-05
0.000136358
-6.84492e-06
2.08467e-05
0.000119782
-9.9237e-06
2.47355e-05
0.000107999
-1.07956e-05
2.32298e-05
0.000102468
-9.04305e-06
1.98279e-05
0.000101345
-6.42988e-06
1.71222e-05
0.000102338
-4.37067e-06
1.54737e-05
0.000103932
-6.15218e-06
1.50343e-05
0.000105053
-1.71664e-05
1.70194e-05
0.000105498
-3.8487e-05
2.21799e-05
0.000106659
-6.19705e-05
2.86222e-05
0.000110873
-7.65544e-05
3.17385e-05
0.000120507
-7.80749e-05
2.75993e-05
0.000136694
-6.8816e-05
1.61484e-05
0.000155635
-4.95239e-05
5.95991e-07
0.000168523
-2.70331e-05
-1.24509e-05
0.000169986
-1.47645e-05
-1.71224e-05
0.000163112
-1.30682e-05
-1.50569e-05
0.000155176
-1.23401e-05
-1.10615e-05
0.000149515
-8.96938e-06
-9.18539e-06
0.000144137
-5.05964e-06
-1.10706e-05
0.000137046
-8.58089e-07
-1.53587e-05
0.00012889
3.5403e-06
-2.06259e-05
0.000122041
1.68469e-06
-2.69271e-05
0.000119613
-1.08035e-05
-3.35639e-05
0.000123318
-2.81054e-05
-3.70761e-05
0.000130541
-3.64563e-05
-3.47525e-05
-3.60164e-05
-2.77786e-05
0.000164895
-5.22519e-05
-3.23259e-05
0.000179229
-6.66337e-05
-1.70866e-05
0.000194926
-6.46435e-05
2.05236e-07
0.000198776
-3.67296e-05
1.71694e-05
0.000189097
-9.1704e-06
2.61212e-05
0.0001798
-3.4983e-06
2.46176e-05
0.000182171
-1.14359e-05
1.77839e-05
0.00019158
-1.29451e-05
1.4442e-05
0.000195232
-4.49697e-06
1.85217e-05
0.000190703
1.31155e-07
2.41209e-05
0.000187778
-5.7341e-06
2.22305e-05
0.000190952
-1.28244e-05
1.46274e-05
0.000191661
-1.28678e-05
1.29129e-05
0.000180827
-8.20618e-06
1.97913e-05
0.000160653
-4.77585e-06
2.65508e-05
0.000140817
-4.36718e-06
2.74105e-05
0.000128622
-5.27463e-06
2.46391e-05
0.000124504
-5.74352e-06
2.17065e-05
0.000125373
-5.38695e-06
1.95079e-05
0.000128487
-7.7051e-06
1.784e-05
0.000131586
-1.88123e-05
1.7855e-05
0.000132775
-3.9969e-05
2.13939e-05
0.000131763
-6.43683e-05
2.89899e-05
0.000130923
-8.23921e-05
3.67987e-05
0.000134689
-8.82783e-05
3.83679e-05
0.000147231
-8.31291e-05
2.98709e-05
0.000168032
-6.73852e-05
1.33026e-05
0.000187066
-4.3265e-05
-3.95744e-06
0.000191214
-2.14625e-05
-1.38575e-05
0.000179352
-8.63134e-06
-1.48206e-05
0.000164784
-4.92037e-06
-1.09934e-05
0.000159601
-7.71949e-06
-6.31757e-06
0.000163399
-1.01766e-05
-4.58569e-06
0.000167421
-4.65169e-06
-7.23912e-06
0.000165651
6.98866e-06
-1.32931e-05
0.000159109
1.04515e-05
-2.21012e-05
0.000151864
-3.01161e-06
-3.35945e-05
0.000148863
-2.75489e-05
-4.41851e-05
0.000151608
-4.39644e-05
-4.79681e-05
-4.60427e-05
-4.33664e-05
0.000186296
-5.56118e-05
-4.79847e-05
0.000196434
-7.4547e-05
-3.0799e-05
0.000212116
-8.35469e-05
-1.09075e-05
0.000223353
-6.01786e-05
9.03536e-06
0.000220104
-2.04458e-05
2.29221e-05
0.000207431
-9.20618e-07
2.562e-05
0.000200586
-7.63916e-06
1.87408e-05
0.000207724
-1.82975e-05
1.10509e-05
0.000219178
-1.28335e-05
1.10369e-05
0.000219753
1.10614e-06
1.74786e-05
0.000210596
1.66972e-06
2.06155e-05
0.000208207
-1.5521e-05
1.60767e-05
0.00021782
-3.06823e-05
1.27038e-05
0.000222592
-2.60448e-05
1.83596e-05
0.000209478
-9.44869e-06
2.69199e-05
0.000185575
2.08008e-06
2.99661e-05
0.000164892
4.03239e-06
2.82863e-05
0.000154157
5.04601e-07
2.61904e-05
0.000152497
-4.26347e-06
2.48083e-05
0.000156778
-1.09932e-05
2.25068e-05
0.000162963
-2.37254e-05
1.9418e-05
0.000166576
-4.21311e-05
1.85161e-05
0.000165362
-6.23954e-05
2.43307e-05
0.000161017
-7.95834e-05
3.51874e-05
0.000158514
-8.82476e-05
4.29799e-05
0.000164381
-8.79503e-05
3.99866e-05
0.000181355
-7.88423e-05
2.46701e-05
0.000200961
-5.81619e-05
4.98486e-06
0.000206982
-2.79919e-05
-1.02229e-05
0.000193231
-7.7224e-07
-1.44545e-05
0.000173035
1.01707e-05
-1.08941e-05
0.000162748
2.37127e-06
-3.17798e-06
0.00016758
-1.13512e-05
3.79575e-06
0.000181557
-1.20487e-05
5.05197e-06
0.000193276
3.33083e-06
-8.75019e-08
0.000196184
1.62074e-05
-1.05139e-05
0.00019146
9.09659e-06
-2.55481e-05
0.000184455
-1.69576e-05
-4.26188e-05
0.000180751
-4.06522e-05
-5.50233e-05
-4.83423e-05
-5.71767e-05
0.000212881
-5.10435e-05
-6.29067e-05
0.000219546
-7.29254e-05
-4.66494e-05
0.000232271
-9.22507e-05
-2.39273e-05
0.000246258
-8.17295e-05
-2.63431e-06
0.000251473
-4.2675e-05
1.5467e-05
0.000243657
-8.6567e-06
2.33024e-05
0.000230399
-2.70344e-06
1.96013e-05
0.000225531
-1.47591e-05
9.67505e-06
0.000234693
-1.94198e-05
4.32645e-06
0.000246501
-7.15123e-06
8.21035e-06
0.000245872
3.47547e-06
1.46861e-05
0.000236272
-8.81441e-06
1.48466e-05
0.000237093
-3.77026e-05
1.15783e-05
0.0002503
-5.00789e-05
1.52521e-05
0.000253815
-3.0605e-05
2.49385e-05
0.000237214
-1.95042e-06
3.02827e-05
0.000212843
1.32274e-05
2.94811e-05
0.000194091
1.34214e-05
2.83619e-05
0.000185667
4.30582e-06
2.93913e-05
0.000187906
-1.22257e-05
2.85733e-05
0.000197444
-3.33482e-05
2.24948e-05
0.00020619
-5.04389e-05
1.42337e-05
0.000207104
-6.13053e-05
1.41873e-05
0.000200377
-7.12817e-05
2.61612e-05
0.000191751
-7.95646e-05
4.08738e-05
0.00018906
-8.22276e-05
4.53169e-05
0.000198097
-7.92656e-05
3.35053e-05
0.000213997
-6.51731e-05
1.26344e-05
0.000221833
-3.29255e-05
-5.77693e-06
0.000212166
5.1076e-06
-1.37761e-05
0.000193339
2.48743e-05
-1.2595e-05
0.000179775
1.60404e-05
-3.70759e-06
0.000179122
-5.68592e-06
7.53432e-06
0.000191326
-1.50368e-05
1.50416e-05
0.000209386
-2.96677e-06
1.48094e-05
0.000223883
1.4788e-05
6.56215e-06
0.000229301
1.72671e-05
-1.01771e-05
0.000226193
-1.95275e-06
-3.20635e-05
0.000219123
-2.69406e-05
-5.2898e-05
-4.0326e-05
-6.49911e-05
0.000246392
-3.93856e-05
-7.27425e-05
0.00024949
-6.54054e-05
-6.25684e-05
0.000259733
-9.08422e-05
-3.95856e-05
0.000271452
-9.40319e-05
-1.56666e-05
0.000279378
-6.68575e-05
4.39143e-06
0.000278274
-2.78697e-05
1.69854e-05
0.000267251
-5.0499e-06
1.84175e-05
0.000254348
-6.0981e-06
9.60836e-06
0.000252442
-1.60848e-05
6.31505e-07
0.000264495
-1.61205e-05
1.54917e-06
0.000276451
-7.4848e-06
1.02786e-05
0.000274462
-9.87539e-06
1.49299e-05
0.000266225
-3.44447e-05
1.1583e-05
0.000270523
-6.05813e-05
1.10005e-05
0.000283099
-5.50756e-05
1.94934e-05
0.00028269
-2.05594e-05
2.74109e-05
0.000265403
1.22099e-05
2.79954e-05
0.000243697
2.56328e-05
2.76039e-05
0.000227547
2.0905e-05
3.05446e-05
0.00022262
-2.62179e-06
3.09779e-05
0.000231388
-3.81272e-05
2.16075e-05
0.000246872
-6.2536e-05
5.79978e-06
0.00025502
-6.53288e-05
-1.9784e-06
0.00024931
-6.19512e-05
9.01918e-06
0.000235246
-6.48258e-05
3.06735e-05
0.00022284
-6.75764e-05
4.54588e-05
0.000221047
-6.72182e-05
4.06263e-05
0.000230172
-5.96166e-05
2.05961e-05
0.000238678
-3.24612e-05
2.5928e-07
0.000235546
8.41758e-06
-1.2067e-05
0.000223328
3.42932e-05
-1.56512e-05
0.000211708
2.77297e-05
-1.061e-05
0.000207001
4.0716e-06
8.80715e-07
0.000211788
-1.05037e-05
1.32116e-05
0.000225164
-4.3484e-06
2.03955e-05
0.000243132
9.87321e-06
1.9595e-05
0.000259614
1.49232e-05
8.37629e-06
0.000267351
6.61406e-06
-1.52229e-05
0.000263598
-9.58948e-06
-4.25747e-05
-2.32731e-05
-6.45087e-05
0.000288095
-2.35455e-05
-7.60278e-05
0.000287688
-5.57732e-05
-7.38081e-05
0.000296207
-8.40318e-05
-5.45676e-05
0.000303965
-9.44602e-05
-3.04395e-05
0.000307245
-8.12077e-05
-9.57691e-06
0.000306759
-4.92544e-05
7.08045e-06
0.000300974
-1.60531e-05
1.41529e-05
0.000289997
-5.08295e-07
9.29171e-06
0.000282215
-5.68929e-06
-4.19153e-07
0.000287494
-1.74165e-05
-2.04572e-06
0.000301646
-2.05425e-05
7.17585e-06
0.000308641
-1.94907e-05
1.55951e-05
0.000302483
-3.1915e-05
1.30421e-05
0.00029665
-5.69643e-05
6.87441e-06
0.000302742
-6.58913e-05
1.03427e-05
0.000310156
-4.09024e-05
2.00874e-05
0.000304406
-1.69337e-06
2.5904e-05
0.000287205
2.57117e-05
2.86098e-05
0.000269594
3.30676e-05
3.10354e-05
0.000258928
1.6565e-05
2.60479e-05
0.000261082
-2.4387e-05
9.60627e-06
0.000278494
-6.57568e-05
-8.79584e-06
0.000298432
-7.61741e-05
-1.83797e-05
0.000301769
-6.09011e-05
-9.68052e-06
0.000286247
-5.05067e-05
1.63898e-05
0.000264933
-4.93318e-05
4.09395e-05
0.000252021
-4.73491e-05
4.56801e-05
0.000252703
-4.12142e-05
2.90644e-05
0.00025969
-2.1128e-05
7.2549e-06
0.000261803
1.37145e-05
-8.72155e-06
0.000257089
3.85297e-05
-1.80896e-05
0.000250945
3.36442e-05
-1.99231e-05
0.000246974
1.13454e-05
-1.21812e-05
0.000246759
-2.58482e-06
8.79897e-07
0.000251643
1.08901e-06
1.24903e-05
0.000263926
7.76297e-06
1.91522e-05
0.000284411
4.27258e-06
1.71409e-05
0.000303693
-1.07157e-06
5.81868e-07
0.00030872
-7.0595e-07
-2.90154e-05
-4.27393e-06
-5.8432e-05
0.00033743
-7.94445e-06
-7.44942e-05
0.000334253
-4.31876e-05
-8.01113e-05
0.000340545
-7.18794e-05
-6.63431e-05
0.000344826
-8.37427e-05
-4.5328e-05
0.00034111
-8.13166e-05
-2.49417e-05
0.000334961
-6.20009e-05
-6.12397e-06
0.000330139
-2.96479e-05
8.31766e-06
0.00032435
-8.15929e-07
9.27615e-06
0.000318628
5.57241e-06
6.42066e-07
0.00032036
-1.01329e-05
-3.54193e-06
0.000331963
-2.65453e-05
4.467e-06
0.000342929
-2.92932e-05
1.58801e-05
0.000341667
-3.06126e-05
1.59817e-05
0.000330744
-4.48573e-05
5.84119e-06
0.000322281
-5.82929e-05
1.87357e-06
0.000319082
-4.72388e-05
1.11366e-05
0.000313981
-1.60629e-05
2.47299e-05
0.000305673
1.30287e-05
3.21571e-05
0.000299714
3.00181e-05
2.826e-05
0.000296444
2.88379e-05
1.22458e-05
0.000294668
-1.99457e-06
-8.93573e-06
0.000304436
-5.36254e-05
-2.48283e-05
0.000329235
-8.60664e-05
-2.82731e-05
0.000347238
-7.49283e-05
-1.66965e-05
0.000338555
-4.93507e-05
9.34486e-06
0.000311699
-3.54013e-05
3.70822e-05
0.000288699
-2.75625e-05
4.96881e-05
0.000282127
-1.85883e-05
3.87695e-05
0.000288363
-2.50932e-06
1.5737e-05
0.000295614
2.20323e-05
-4.2412e-06
0.000297868
3.84138e-05
-1.82437e-05
0.000297492
3.13824e-05
-2.68348e-05
0.000297185
1.13087e-05
-2.63563e-05
0.000296587
8.96302e-07
-1.69454e-05
0.000296246
6.14177e-06
-4.29308e-06
0.000300528
9.18792e-06
6.06464e-06
0.000315233
-4.92297e-06
1.17596e-05
0.000337296
-1.60216e-05
5.1041e-06
0.0003517
-4.53632e-06
-1.91638e-05
7.29456e-06
-5.0185e-05
0.000391215
1.94078e-06
-6.86743e-05
0.00038733
-2.77597e-05
-8.05552e-05
0.000391391
-5.3535e-05
-7.4235e-05
0.000394888
-6.54597e-05
-5.80439e-05
0.000387568
-7.08e-05
-3.99513e-05
0.000374
-6.42962e-05
-1.97684e-05
0.000363852
-3.79361e-05
-1.03719e-06
0.000358562
-3.06026e-06
7.47894e-06
0.000356182
1.47696e-05
3.27997e-06
0.000358514
2.21268e-06
-1.26492e-06
0.000368029
-2.27298e-05
4.1967e-06
0.000379424
-3.33404e-05
1.64482e-05
0.000381075
-3.0035e-05
2.11835e-05
0.000367507
-3.14518e-05
1.12639e-05
0.000345935
-3.86254e-05
-5.92453e-07
0.000327703
-3.46101e-05
4.37159e-07
0.000318515
-1.60903e-05
1.0999e-05
0.000319639
3.11716e-06
1.67973e-05
0.000328891
1.79644e-05
8.73033e-06
0.000338004
2.59398e-05
-9.38459e-06
0.000340734
1.24636e-05
-2.90307e-05
0.000344407
-3.24299e-05
-3.85533e-05
0.000362245
-8.2067e-05
-3.26506e-05
0.000384862
-9.1685e-05
-1.38217e-05
0.000385173
-6.26074e-05
1.25684e-05
0.000359003
-3.1098e-05
3.81241e-05
0.000329523
-1.24342e-05
5.24243e-05
0.000316939
-1.02625e-07
4.63534e-05
0.000321285
1.35031e-05
2.45612e-05
0.000330109
2.96561e-05
2.16511e-06
0.000334085
3.84751e-05
-1.40408e-05
0.000334674
2.83778e-05
-2.45723e-05
0.000337754
7.143e-06
-3.02841e-05
0.000343388
-3.3363e-06
-2.91189e-05
0.000347679
3.01056e-06
-1.98124e-05
0.000349484
8.19925e-06
-5.77429e-06
0.000354028
-4.5252e-06
4.59166e-06
0.000367401
-1.91765e-05
2.02959e-06
0.000385652
-9.76156e-06
-1.65793e-05
8.23089e-06
-4.36009e-05
0.000441055
4.64063e-06
-6.0773e-05
0.000443015
-1.32364e-05
-7.53879e-05
0.000447071
-3.17383e-05
-7.7847e-05
0.000452833
-4.40284e-05
-6.8973e-05
0.00044667
-5.49977e-05
-5.4107e-05
0.000427189
-5.73183e-05
-3.52866e-05
0.000408103
-3.79568e-05
-1.4527e-05
0.000398372
-3.66604e-06
1.62231e-06
0.000396752
2.0287e-05
7.06327e-06
0.000400044
1.43412e-05
6.02435e-06
0.000407096
-1.12881e-05
7.51323e-06
0.000415587
-2.87336e-05
1.56265e-05
0.000418244
-2.91223e-05
2.38349e-05
0.000407928
-2.51138e-05
2.08229e-05
0.000386718
-2.31179e-05
6.05446e-06
0.000365705
-1.66662e-05
-7.46754e-06
0.000355341
-5.49958e-06
-1.06988e-05
0.000358664
1.25181e-06
-6.88282e-06
0.000371205
4.73028e-06
-6.15974e-06
0.000384576
1.18127e-05
-1.55187e-05
0.000392796
1.33014e-05
-3.12938e-05
0.000398115
-1.25521e-05
-4.0902e-05
0.000408894
-6.10315e-05
-3.51226e-05
0.000425265
-9.14754e-05
-1.39513e-05
0.000428326
-7.42071e-05
1.2843e-05
0.000406274
-3.23092e-05
3.59881e-05
0.000375621
1.10373e-06
5.14878e-05
0.000357649
1.86668e-05
5.25181e-05
0.000354553
2.79313e-05
3.63252e-05
0.000355805
3.57132e-05
1.41838e-05
0.000354757
3.80118e-05
-4.44616e-07
0.000354486
2.45076e-05
-7.24455e-06
0.000360868
-1.31957e-07
-1.48749e-05
0.000373668
-1.54542e-05
-2.33643e-05
0.000385322
-9.98411e-06
-2.17749e-05
0.000389221
2.81997e-06
-6.00565e-06
0.00038817
2.65374e-06
8.4497e-06
0.000391829
-6.39953e-06
4.7251e-06
0.000407855
-4.36128e-06
-1.56796e-05
6.46232e-06
-3.96302e-05
0.000481768
8.53936e-06
-5.27558e-05
0.000495864
-4.53767e-06
-6.52982e-05
0.000506764
-1.51311e-05
-7.2016e-05
0.00051665
-2.389e-05
-7.22313e-05
0.000512992
-3.60159e-05
-6.50345e-05
0.000490009
-4.22531e-05
-5.09463e-05
0.000461922
-2.79091e-05
-3.1345e-05
0.000444597
2.07213e-06
-1.10859e-05
0.00044049
2.36269e-05
3.70146e-06
0.000443766
1.99425e-05
1.04254e-05
0.000449069
-1.89161e-06
1.39683e-05
0.000453131
-1.89598e-05
1.89213e-05
0.000452074
-2.20087e-05
2.44851e-05
0.000442685
-1.90709e-05
2.36018e-05
0.00042805
-1.50737e-05
1.1527e-05
0.000416377
-7.20844e-06
-6.96177e-06
0.000413085
5.25865e-07
-1.88861e-05
0.000417175
-1.51346e-06
-1.58693e-05
0.000424965
-8.49121e-06
-5.87946e-06
0.000432779
-5.00649e-06
-5.13145e-06
0.000438342
6.96045e-06
-1.57203e-05
0.000443259
1.64915e-06
-2.53106e-05
0.000451803
-3.5831e-05
-2.53978e-05
0.000465235
-7.703e-05
-1.22324e-05
0.000472153
-7.67039e-05
1.04369e-05
0.000459243
-3.47018e-05
3.35866e-05
0.000433097
1.22792e-05
4.80134e-05
0.000410042
3.93652e-05
5.0643e-05
0.000395043
4.51135e-05
4.20327e-05
0.00038511
4.05447e-05
2.87992e-05
0.000380394
3.4006e-05
1.69871e-05
0.000383751
2.16112e-05
8.17481e-06
0.000394969
-1.71048e-07
1.80611e-07
0.000410088
-2.04058e-05
-7.97956e-06
0.000422754
-2.15419e-05
-1.15061e-05
0.000427626
-4.36069e-06
-3.27892e-06
0.000425995
1.21934e-05
1.10133e-05
0.000425502
1.55624e-05
1.29888e-05
0.000436353
1.52854e-05
-6.01424e-06
1.55062e-05
-3.26878e-05
0.000522147
1.15454e-05
-3.61427e-05
0.000543132
-4.45883e-06
-5.18627e-05
0.000562098
-1.08471e-05
-6.235e-05
0.000577368
-1.14923e-05
-6.83774e-05
0.000577376
-1.63271e-05
-6.82711e-05
0.000555922
-2.1302e-05
-6.1062e-05
0.000525462
-1.23369e-05
-4.63151e-05
0.000502465
1.05439e-05
-2.53789e-05
0.000491652
2.75021e-05
-4.86497e-06
0.000488429
2.31099e-05
8.83125e-06
0.000488472
5.01118e-06
1.60469e-05
0.000488565
-9.22851e-06
2.26191e-05
0.000486293
-1.36038e-05
2.83913e-05
0.000480773
-1.23219e-05
2.46341e-05
0.000475911
-8.93454e-06
7.9974e-06
0.000476969
-2.64376e-06
-1.2025e-05
0.000482936
7.3751e-07
-2.06403e-05
0.00048621
-7.52733e-06
-1.12387e-05
0.000482413
-1.91454e-05
6.0985e-06
0.000475886
-1.58062e-05
1.3639e-05
0.000474647
3.76335e-06
7.39436e-06
0.000482285
1.33523e-05
-1.36197e-06
0.000495672
-1.08196e-05
-3.7953e-06
0.000508995
-5.40452e-05
3.0301e-06
0.000514914
-6.93965e-05
1.72965e-05
0.000504331
-3.39375e-05
3.25151e-05
0.000480726
2.11493e-05
4.40488e-05
0.000455312
5.67348e-05
4.69297e-05
0.000435018
6.16414e-05
3.96218e-05
0.000421416
4.99864e-05
3.02886e-05
0.000416995
3.79182e-05
2.70162e-05
0.000422905
2.75759e-05
2.62123e-05
0.000436201
1.29839e-05
1.91419e-05
0.000451621
-4.12799e-06
6.9563e-06
0.000463333
-1.03899e-05
4.00377e-07
0.000468402
1.95354e-06
5.9553e-06
0.00046884
2.07532e-05
1.93218e-05
0.000470526
3.14217e-05
2.40384e-05
0.000479862
3.28982e-05
1.11714e-05
2.68683e-05
-1.39264e-05
0.000566178
9.81114e-06
-1.74112e-05
0.000590044
-1.42918e-05
-3.90528e-05
0.000613914
-2.57368e-05
-4.78669e-05
0.000631076
-1.85233e-05
-5.35112e-05
0.000633558
-6.19144e-06
-6.1766e-05
0.000620471
-2.70541e-07
-6.75654e-05
0.000601451
4.56844e-06
-6.32889e-05
0.000585144
1.71448e-05
-4.54129e-05
0.000571277
2.92151e-05
-2.01623e-05
0.000556637
2.76576e-05
5.32476e-07
0.000541628
1.40165e-05
1.25553e-05
0.000530789
-3.58953e-07
2.11263e-05
0.00052727
-1.12909e-05
3.01575e-05
0.000532269
-2.03949e-05
3.4076e-05
0.000545441
-2.69539e-05
2.55771e-05
0.000563343
-2.69677e-05
9.86989e-06
0.000576527
-2.19506e-05
-4.7034e-07
0.00057343
-1.97451e-05
5.57636e-06
0.000555082
-1.93087e-05
2.72618e-05
0.000535549
-9.80606e-06
4.7311e-05
0.000528561
1.26493e-05
4.55756e-05
0.00053576
3.01655e-05
2.11183e-05
0.000549229
1.9658e-05
-5.83705e-06
0.000561149
-1.79129e-05
-1.15359e-05
0.000565028
-4.75731e-05
8.08071e-06
0.000553616
-3.2885e-05
3.21937e-05
0.000528441
1.7891e-05
4.40519e-05
0.000501586
6.32725e-05
4.44234e-05
0.000482622
7.96643e-05
3.7404e-05
0.000473838
7.27576e-05
2.87915e-05
0.000473584
5.73273e-05
2.34904e-05
0.000479259
4.16483e-05
2.08521e-05
0.000488822
2.63718e-05
1.7187e-05
0.00050121
1.28585e-05
1.08881e-05
0.000514402
7.67699e-06
4.98076e-06
0.000524639
1.46606e-05
7.68557e-06
0.000529056
2.6856e-05
2.20203e-05
0.000529854
3.46417e-05
3.7073e-05
0.000533836
3.58302e-05
3.60522e-05
2.87339e-05
1.41409e-05
0.000619108
-5.99028e-06
6.38563e-06
0.000642562
-2.53286e-05
-2.70146e-05
0.000665389
-3.45067e-05
-4.74757e-05
0.0006836
-2.38783e-05
-5.35765e-05
0.000688987
-1.54482e-06
-5.42267e-05
0.000678077
1.64875e-05
-5.69294e-05
0.000659525
2.47115e-05
-5.9932e-05
0.000646195
2.82848e-05
-5.48265e-05
0.000641329
2.96778e-05
-3.98782e-05
0.000637738
2.56462e-05
-2.21329e-05
0.000627819
1.59942e-05
-7.84335e-06
0.000611707
4.70868e-06
4.28724e-06
0.00059676
-7.64641e-06
1.76451e-05
0.000591533
-2.40316e-05
3.1239e-05
0.000601767
-4.36004e-05
3.81035e-05
0.000625172
-5.79113e-05
3.38348e-05
0.000647412
-5.89923e-05
2.37067e-05
0.000650477
-4.65844e-05
2.02152e-05
0.000631379
-2.56663e-05
3.1996e-05
0.000605602
-1.30309e-07
5.03641e-05
0.000589505
2.44849e-05
5.20725e-05
0.000586212
3.76881e-05
2.5539e-05
0.000590622
2.73918e-05
-1.23731e-05
0.000600755
-3.84049e-06
-3.44246e-05
0.000610231
-3.46336e-05
-2.06563e-05
0.000609129
-3.49652e-05
1.21402e-05
0.00059493
2.38235e-06
3.74844e-05
0.000578736
5.0469e-05
4.41492e-05
0.000570646
8.0808e-05
3.4807e-05
0.000570293
8.58588e-05
1.61492e-05
0.000571593
7.37504e-05
-2.14213e-06
0.000571019
5.35465e-05
-9.73098e-06
0.00057027
3.19774e-05
-4.76789e-06
0.000571852
1.74592e-05
5.61146e-06
0.000575275
1.52198e-05
1.5652e-05
0.000578142
2.22636e-05