/*--------------------------------*- C++ -*----------------------------------*\
| =========                 |                                                 |
| \\      /  F ield         | OpenFOAM: The Open Source CFD Toolbox           |
|  \\    /   O peration     | Version:  2306                                  |
|   \\  /    A nd           | Website:  www.openfoam.com                      |
|    \\/     M anipulation  |                                                 |
\*---------------------------------------------------------------------------*/
FoamFile
{
    version     2.0;
    format      ascii;
    arch        "LSB;label=32;scalar=64";
    class       volScalarField;
    location    "2.5";
    object      pMean;
}
// * * * * * * * * * * * * * * * * * * * * * * * * * * * * * * * * * * * * * //

dimensions      [0 2 -2 0 0 0 0];

internalField   nonuniform List<scalar> 
60000
(
6.4986e-05
0.000116284
0.000165326
0.000197488
0.000217555
0.000227239
0.000217973
0.000188843
0.000163121
0.000172789
0.000219307
0.000273043
0.000302202
0.000293893
0.000256704
0.000209515
0.000165266
0.0001245
8.76023e-05
6.408e-05
6.95276e-05
0.00010856
0.000161337
0.000200562
0.000214811
0.000208966
0.000203916
0.000224151
0.000269047
0.000308544
0.000321114
0.000314492
0.00030346
0.000288918
0.000264477
0.000232223
0.00019128
0.000134176
7.33831e-05
4.39118e-05
6.22949e-05
0.000113442
0.000163154
0.000196008
0.000216298
0.000225845
0.000216281
0.000186807
0.000160793
0.000170457
0.00021748
0.000271916
0.000301652
0.000293806
0.000257004
0.000210124
0.000165994
0.000125122
8.79782e-05
6.41654e-05
6.93483e-05
0.000108272
0.000160914
0.000199716
0.000213394
0.000207017
0.000201677
0.000221944
0.000267373
0.000307826
0.000321309
0.000315497
0.000305174
0.000291117
0.000266862
0.000234674
0.000193625
0.000135907
7.36628e-05
4.23848e-05
5.74759e-05
0.000109356
0.000160408
0.000194346
0.000215149
0.000224942
0.000215414
0.000185358
0.000158122
0.000166947
0.000214511
0.000270352
0.000301382
0.000294344
0.000257901
0.000211036
0.000166687
0.000125398
8.77539e-05
6.35058e-05
6.85472e-05
0.000107634
0.000160333
0.000198806
0.000211947
0.000204784
0.000198375
0.00021813
0.000264265
0.000306066
0.000320762
0.00031606
0.000306836
0.000293342
0.000268791
0.000235956
0.000194438
0.000135742
7.15757e-05
3.8256e-05
5.04678e-05
0.000103987
0.000157101
0.000192517
0.000214085
0.000224498
0.000215341
0.000184661
0.000155527
0.000162533
0.000210316
0.000268187
0.000301449
0.000295735
0.000259597
0.000212364
0.000167419
0.00012535
8.68076e-05
6.21032e-05
6.7397e-05
0.000107055
0.000160035
0.000198154
0.00021063
0.000202335
0.000194266
0.000213011
0.000260001
0.000303383
0.000319278
0.000315856
0.000308283
0.000295649
0.00027033
0.000235962
0.000193424
0.000133369
6.69103e-05
3.13349e-05
4.17059e-05
9.70948e-05
0.000152601
0.000189918
0.000212519
0.00022386
0.000215737
0.000185219
0.000154435
0.000158657
0.000205395
0.000265001
0.00030123
0.000297692
0.000262146
0.000214333
0.000168361
0.000125147
8.54322e-05
6.00871e-05
6.57902e-05
0.000106292
0.000159461
0.000197168
0.000209249
0.000199846
0.000189842
0.00020742
0.000255592
0.000300787
0.000317391
0.000314831
0.000309418
0.000298555
0.00027276
0.000236578
0.000192229
0.000130341
6.07816e-05
2.2541e-05
3.08596e-05
8.835e-05
0.000145998
0.000185302
0.000209496
0.000222152
0.000215449
0.000186568
0.000155782
0.000157473
0.00020171
0.000261415
0.000300306
0.000299643
0.00026539
0.00021714
0.000169925
0.00012501
8.32617e-05
5.66438e-05
6.25401e-05
0.000103947
0.000156501
0.000192012
0.00020352
0.000194986
0.000184624
0.000201507
0.000251776
0.000299849
0.000317121
0.000314229
0.000310556
0.000302499
0.000277341
0.000240255
0.00019463
0.000129352
5.40226e-05
1.14229e-05
1.51724e-05
7.56005e-05
0.000136725
0.000177696
0.00020347
0.000218413
0.000213643
0.00018637
0.000157803
0.00015988
0.000201631
0.000259689
0.00029954
0.000301369
0.000268968
0.000220718
0.000172226
0.000125075
8.01163e-05
5.0612e-05
5.57521e-05
9.87939e-05
0.000152156
0.000184626
0.00019175
0.000182254
0.00017377
0.000192592
0.000246969
0.000300372
0.000320727
0.000317419
0.000313498
0.000306894
0.000283275
0.00024792
0.000204054
0.000137274
5.31629e-05
-7.45797e-08
-3.75929e-06
5.71196e-05
0.000124054
0.000168308
0.000194696
0.000211491
0.000209713
0.000184521
0.000156888
0.000160255
0.000204182
0.000262201
0.000301349
0.000303895
0.000272871
0.000224898
0.000175116
0.000125286
7.62083e-05
4.25494e-05
4.6587e-05
9.36003e-05
0.000151798
0.000183271
0.000182885
0.000166252
0.000155718
0.000177408
0.00023815
0.00029755
0.000321851
0.000322614
0.000320741
0.000312879
0.000287058
0.000253665
0.000217179
0.00015474
6.24575e-05
-7.80761e-06
-2.39092e-05
3.37329e-05
0.000107444
0.000157275
0.000184588
0.000202097
0.000203533
0.000181763
0.000155568
0.000156982
0.000199623
0.000261599
0.000305258
0.000308338
0.000277549
0.000229865
0.000178716
0.000125544
7.22839e-05
3.60992e-05
4.18628e-05
9.63355e-05
0.000163415
0.000195917
0.000185072
0.000153847
0.000134077
0.000156469
0.000225562
0.000292576
0.000319072
0.000319993
0.000320733
0.000314932
0.000286769
0.00025351
0.000226927
0.000176779
8.17417e-05
-8.84763e-06
-4.06288e-05
7.2401e-06
8.63519e-05
0.000143936
0.000173614
0.000191515
0.000195801
0.00017804
0.000153227
0.000152368
0.000189792
0.000249449
0.000298521
0.000309035
0.000281549
0.00023516
0.000183429
0.000126366
6.84806e-05
3.21848e-05
4.47802e-05
0.000111642
0.000191611
0.000227543
0.000204467
0.000152225
0.000115708
0.000133079
0.000208498
0.00028288
0.000312162
0.000314704
0.000317188
0.000312355
0.000283081
0.000248832
0.000231647
0.000198937
0.000109961
7.84333e-07
-4.49034e-05
-1.61996e-05
6.23516e-05
0.00012856
0.000162977
0.00018243
0.000189053
0.00017538
0.000152077
0.000147392
0.000177425
0.000231513
0.000278737
0.000294034
0.000275583
0.000236757
0.000188837
0.000129812
6.66046e-05
3.03406e-05
5.22791e-05
0.000134635
0.00023167
0.000276568
0.000244398
0.000169212
0.00011051
0.000114877
0.000187242
0.000263899
0.000296585
0.00030383
0.000313615
0.000313249
0.000284443
0.000248573
0.000235373
0.000220279
0.000145123
2.52577e-05
-3.03262e-05
-2.72016e-05
4.15397e-05
0.000110458
0.000151772
0.000175169
0.000184296
0.00017417
0.000153028
0.000146305
0.000169733
0.000215408
0.000255292
0.000266491
0.000251023
0.000223101
0.000187062
0.000135384
7.30241e-05
3.69374e-05
6.47913e-05
0.0001573
0.000269041
0.000329206
0.000299735
0.000209395
0.000128218
0.000111957
0.000167019
0.000238367
0.000274809
0.000291145
0.000312304
0.000320231
0.000295231
0.000259045
0.00024547
0.000240579
0.000182578
6.3027e-05
2.21837e-06
-1.99677e-05
3.09072e-05
9.45248e-05
0.000139527
0.000166811
0.000179603
0.000173513
0.00015415
0.000145563
0.000165792
0.00020564
0.000237898
0.000239729
0.000217249
0.000193029
0.000173112
0.000137213
8.75313e-05
5.80104e-05
8.64474e-05
0.000174206
0.000287569
0.000363335
0.000351213
0.00026277
0.000168079
0.000129368
0.000158468
0.000214161
0.000253387
0.000280971
0.000311768
0.000328767
0.000311534
0.000278235
0.000261521
0.000256784
0.000215061
0.000106712
4.80422e-05
8.47393e-06
3.73371e-05
8.82453e-05
0.000130722
0.000159464
0.000173674
0.000170851
0.000154278
0.000145134
0.000163091
0.000200881
0.000230805
0.000227309
0.000196204
0.0001693
0.000156031
0.000133192
9.80129e-05
7.9879e-05
0.000104806
0.000178642
0.000280667
0.000366105
0.000378721
0.00030863
0.000212768
0.000155815
0.000157545
0.000194376
0.000235967
0.00027475
0.000313324
0.00033411
0.000323272
0.000296259
0.000275238
0.000264176
0.000235377
0.000148065
0.000101979
5.5818e-05
6.20132e-05
9.44707e-05
0.000129888
0.000156424
0.00016883
0.000166122
0.000152801
0.000144703
0.000160731
0.000196886
0.000228933
0.000231367
0.00020272
0.000171949
0.000155005
0.000133363
0.000101699
8.76127e-05
0.000113141
0.00017366
0.000257814
0.000343706
0.000380681
0.000336559
0.000246584
0.00017647
0.000155294
0.000177035
0.000219698
0.000264945
0.000306981
0.000331536
0.00032806
0.000306089
0.000282262
0.000263219
0.000241954
0.000183271
0.000151921
0.000108801
9.70296e-05
0.000109751
0.000135433
0.000157461
0.000163523
0.00015699
0.000146753
0.000143945
0.000159858
0.000192628
0.000224245
0.000234178
0.0002168
0.000187872
0.000163973
0.000137409
0.000102631
9.08335e-05
0.000121708
0.000177012
0.000239642
0.000311585
0.000362947
0.000346545
0.000273356
0.000197613
0.00015749
0.00016422
0.000201663
0.000245488
0.000286872
0.000318874
0.000328007
0.000311598
0.000284039
0.000259259
0.000242709
0.000208683
0.000186144
0.000150194
0.000130899
0.000131139
0.000146886
0.00016171
0.000159809
0.00014614
0.000135154
0.0001368
0.00015574
0.000188207
0.000220642
0.000234275
0.000222841
0.000197509
0.000172431
0.000144883
0.000111696
0.00010336
0.00014066
0.000193338
0.000236449
0.000284269
0.000329994
0.000333062
0.000284084
0.000217924
0.000170405
0.000161374
0.000188298
0.000231555
0.000272046
0.000301507
0.000315764
0.000309281
0.000284079
0.00025597
0.000242062
0.000222555
0.000199531
0.000178193
0.000162162
0.000156293
0.000161948
0.000166204
0.000154771
0.000133435
0.00012056
0.000124394
0.000146494
0.000180923
0.000219164
0.000240225
0.000231932
0.000204722
0.000177062
0.00015093
0.000123305
0.000117839
0.000153461
0.000202158
0.000236792
0.000268244
0.000302833
0.00031056
0.000279002
0.000222518
0.000176346
0.000164868
0.000188904
0.000230101
0.000271144
0.000301395
0.000313939
0.00030425
0.000272521
0.000239523
0.00022465
0.000215964
0.000193904
0.000183867
0.000176558
0.000177107
0.000181917
0.000175695
0.000152919
0.000123464
0.000102958
0.000102588
0.000121489
0.000157256
0.00020071
0.000235161
0.000241094
0.000221369
0.000196951
0.00017437
0.000151718
0.000140953
0.000160909
0.000197807
0.000228527
0.000258419
0.000292035
0.000302955
0.000271831
0.000218514
0.000176236
0.000167428
0.000188494
0.000223758
0.000263648
0.000297288
0.00031032
0.000296797
0.000260853
0.000221464
0.00020087
0.000197178
0.000171764
0.000172918
0.000172043
0.000174131
0.000178511
0.000175393
0.000156914
0.000129901
0.000106957
9.65929e-05
0.000101378
0.000121148
0.000155443
0.000193691
0.000215398
0.00021211
0.000201103
0.000196057
0.000184977
0.000165041
0.000160995
0.000180529
0.000207751
0.000243969
0.000281402
0.000294108
0.0002602
0.000204518
0.000163158
0.000153998
0.000172958
0.000205948
0.000245425
0.000281029
0.000294929
0.000280798
0.000247164
0.000209776
0.00018323
0.000172423
0.000148326
0.000153988
0.000164547
0.000175933
0.000181147
0.000173547
0.00015336
0.000130649
0.000113247
0.000101295
9.61796e-05
0.000102029
0.000120643
0.000149349
0.000177775
0.000191649
0.00019269
0.000193708
0.000191839
0.000176311
0.000159776
0.000165483
0.000195638
0.000239366
0.000280853
0.000291491
0.000247698
0.000177943
0.000124105
0.000113335
0.000140881
0.000185448
0.000231615
0.000267636
0.000283717
0.000275199
0.00024949
0.000216621
0.000183138
0.000158236
0.00016909
0.000156116
0.00015813
0.00016844
0.000174615
0.00017021
0.000154639
0.000135865
0.000120745
0.000110652
0.000106096
0.000107983
0.000116181
0.000129798
0.000148163
0.000167521
0.000182109
0.000191802
0.000194102
0.000183869
0.000171459
0.000174105
0.00019656
0.000234641
0.000275779
0.000293655
0.000256262
0.000178611
0.000110978
8.72102e-05
0.000112719
0.000164579
0.000220652
0.000263442
0.000279024
0.000269536
0.000251399
0.000237716
0.000222025
0.000195351
0.000187611
0.000167707
0.000155722
0.000152717
0.000154931
0.000156359
0.000152622
0.000144301
0.000133278
0.000124121
0.000121122
0.00012533
0.000133883
0.000142656
0.000152837
0.000165986
0.000180836
0.000192697
0.000197487
0.000193669
0.000186429
0.00018698
0.000201842
0.000228535
0.000257859
0.000272255
0.00024866
0.000191754
0.000135631
0.000110803
0.00012397
0.000163434
0.000210417
0.000247299
0.000262242
0.000257946
0.000247217
0.000238149
0.000227863
0.000210228
0.000172047
0.000140369
0.000125461
0.000128457
0.000138984
0.000150963
0.000159289
0.000160912
0.000155412
0.000146817
0.00014045
0.000137636
0.000138306
0.000145362
0.000159007
0.000175664
0.000190564
0.000202238
0.000208788
0.000206648
0.000197871
0.000190873
0.000192542
0.000205239
0.000226518
0.000244108
0.000236646
0.00019982
0.000154353
0.000128007
0.000130757
0.000155713
0.000191723
0.000223331
0.000240612
0.000242609
0.000239802
0.000237821
0.000230464
0.000207513
0.000164416
0.000125102
0.00010258
0.000101947
0.000118718
0.000138857
0.000154842
0.000162238
0.000160377
0.000152848
0.000147453
0.000149505
0.000155924
0.00016115
0.000167102
0.000180244
0.000202239
0.0002246
0.000237362
0.000232053
0.000211583
0.000188879
0.000175377
0.000174335
0.000186299
0.000205776
0.000216958
0.000204607
0.000174532
0.000149284
0.000143629
0.000156991
0.000182178
0.000207693
0.000226276
0.000235912
0.000240408
0.000239496
0.000230023
0.000204061
-5.51635e-06
-2.82206e-08
4.51179e-05
0.000103638
0.00015668
0.000189621
0.000192119
0.000167362
0.000142564
0.000150572
0.000191552
0.000233293
0.000247729
0.000233198
0.000206401
0.000182515
0.000162758
0.000138376
0.000105809
7.91109e-05
8.24569e-05
0.000127503
0.000200169
0.000268414
0.000307869
0.000318987
0.000318457
0.000320098
0.000329204
0.000344844
0.000359938
0.000372257
0.000376928
0.000364421
0.000338824
0.000317267
0.000294647
0.0002397
0.000143641
4.61414e-05
-5.20655e-06
-1.25874e-06
4.27121e-05
0.000100923
0.000154295
0.000187776
0.000190649
0.000165864
0.000140871
0.00014887
0.000190292
0.00023254
0.00024728
0.000232873
0.000206162
0.000182412
0.00016287
0.000138638
0.00010598
7.87554e-05
8.11286e-05
0.000125021
0.000196739
0.000264498
0.000304015
0.000315663
0.000315949
0.000318364
0.000327751
0.000343264
0.000358385
0.000371257
0.000376886
0.000365316
0.000340296
0.000319122
0.000297244
0.000242945
0.00014674
4.80936e-05
-7.64799e-06
-4.82873e-06
3.88421e-05
9.75585e-05
0.000151951
0.000186454
0.000189745
0.000164521
0.000138571
0.000146158
0.000188168
0.000231338
0.000246576
0.000232248
0.000205592
0.00018208
0.000162937
0.000138986
0.000106161
7.81856e-05
7.95393e-05
0.000122564
0.000193817
0.000261433
0.000300966
0.000312892
0.000313858
0.000316999
0.000326333
0.000341098
0.00035577
0.000369394
0.000376817
0.000366695
0.000342062
0.00032121
0.000300333
0.000246608
0.000149176
4.79997e-05
-1.38908e-05
-1.1286e-05
3.33581e-05
9.33852e-05
0.000149304
0.000185274
0.000189286
0.000163444
0.00013591
0.000142458
0.000184983
0.000229454
0.00024547
0.000231195
0.000204526
0.000181361
0.000162802
0.00013928
0.000106318
7.75895e-05
7.83322e-05
0.000121292
0.000192903
0.00026077
0.000300004
0.000311453
0.00031248
0.000316113
0.000325206
0.000338778
0.00035233
0.000366312
0.00037596
0.000368008
0.000343825
0.000323337
0.000303778
0.0002503
0.000150036
4.4584e-05
-2.40669e-05
-2.09304e-05
2.58124e-05
8.77213e-05
0.000145506
0.000183471
0.00018905
0.000163375
0.000134433
0.000139098
0.000181138
0.000226628
0.000243681
0.000229599
0.000202824
0.00018005
0.000162308
0.00013928
0.000106116
7.68258e-05
7.73817e-05
0.000120989
0.000193585
0.000261974
0.00030076
0.000311271
0.000311801
0.000315625
0.000324585
0.000337152
0.000349092
0.000362184
0.000373193
0.000367726
0.000344653
0.000325117
0.000307778
0.000254329
0.000149819
3.80398e-05
-3.74361e-05
-3.36543e-05
1.56309e-05
7.9331e-05
0.000138841
0.000179365
0.000187764
0.000164015
0.000135306
0.000138527
0.00017878
0.000223609
0.000241239
0.000227649
0.000200833
0.000178354
0.000161571
0.000139169
0.000105553
7.52219e-05
7.53232e-05
0.000119291
0.000192543
0.000260909
0.000298882
0.000309136
0.000310298
0.00031501
0.00032443
0.000337019
0.000347848
0.000358679
0.000368638
0.000364256
0.000342808
0.000326016
0.000312789
0.000260387
0.000150221
2.99525e-05
-5.10449e-05
-4.83809e-05
3.73153e-06
6.85367e-05
0.000128401
0.000171067
0.000183155
0.000162806
0.000136323
0.000140433
0.000179791
0.000222608
0.000239221
0.000225778
0.000199159
0.000176937
0.000161028
0.000139174
0.000104514
7.14212e-05
6.86191e-05
0.000111337
0.000184997
0.000253129
0.000289151
0.000298218
0.000301371
0.00031028
0.000322879
0.000337819
0.000349494
0.000357957
0.00036419
0.000357581
0.000336069
0.000323923
0.000319428
0.000271842
0.000156388
2.45146e-05
-5.83023e-05
-6.12594e-05
-8.95038e-06
5.70459e-05
0.000116767
0.000160244
0.000175878
0.000159658
0.000135192
0.000138801
0.000177882
0.000221613
0.000238442
0.000224799
0.000198153
0.000176092
0.000160853
0.000139231
0.00010274
6.45773e-05
5.50721e-05
9.39416e-05
0.000168295
0.000238106
0.000272742
0.000278589
0.000281867
0.000295591
0.000314789
0.000335257
0.000350517
0.000359391
0.000362032
0.00035052
0.000325352
0.000316674
0.000325551
0.000290269
0.000173733
2.95796e-05
-5.55536e-05
-6.8782e-05
-2.07805e-05
4.51534e-05
0.000104912
0.000149218
0.00016813
0.000156361
0.000134039
0.000135343
0.00017036
0.000213794
0.000234096
0.000223656
0.000197932
0.000175807
0.000160714
0.000138725
0.000100093
5.63777e-05
3.87292e-05
7.15578e-05
0.000146088
0.00021921
0.000254289
0.000256278
0.00025576
0.000271793
0.000298795
0.000328261
0.000347907
0.000356098
0.000357317
0.00034479
0.000315868
0.000306792
0.000328903
0.000313149
0.000202727
4.80779e-05
-4.35766e-05
-7.18963e-05
-3.13074e-05
3.26737e-05
9.31198e-05
0.000138733
0.000160851
0.000153086
0.000132649
0.000131922
0.000162238
0.000202061
0.000223367
0.000217647
0.000196344
0.000175767
0.000160542
0.000137288
9.68435e-05
5.10591e-05
2.95586e-05
5.783e-05
0.000130764
0.000205012
0.000239228
0.000236455
0.00022869
0.000242026
0.000275874
0.000317077
0.000344358
0.000352844
0.000351691
0.000339848
0.000311436
0.000301004
0.000331124
0.000336364
0.000239307
7.75387e-05
-2.32142e-05
-7.14801e-05
-4.18639e-05
1.86057e-05
8.16406e-05
0.000130699
0.000155802
0.000150753
0.000131525
0.000128882
0.000154635
0.000190002
0.000208826
0.00020409
0.000187312
0.000171931
0.00015923
0.000134885
9.27545e-05
4.8827e-05
3.09193e-05
6.05673e-05
0.000132684
0.000205444
0.000235192
0.000224442
0.000207043
0.000211884
0.000248018
0.000300378
0.000338174
0.000351348
0.000351454
0.00034364
0.000319541
0.000306506
0.000338023
0.000358784
0.000279145
0.00011643
9.35179e-06
-6.10969e-05
-4.89978e-05
4.17589e-06
6.83763e-05
0.000123448
0.000153744
0.000150126
0.000129922
0.000124276
0.000147114
0.000179954
0.000195252
0.000187373
0.000170919
0.000160155
0.000152901
0.00013128
8.9324e-05
4.87572e-05
3.96351e-05
7.65732e-05
0.000149704
0.000220063
0.000245555
0.000226364
0.000198893
0.000191179
0.000220093
0.000276193
0.000324125
0.000345324
0.000350896
0.0003499
0.000334005
0.000322815
0.000350996
0.000380038
0.000317879
0.000161971
5.26326e-05
-3.64081e-05
-4.54672e-05
-4.84953e-06
5.58768e-05
0.000114802
0.000149775
0.000148842
0.000127587
0.000119438
0.000141458
0.000175293
0.000188972
0.000175618
0.00015457
0.000145002
0.000143248
0.000127464
8.89415e-05
5.18222e-05
5.04988e-05
9.3012e-05
0.000164691
0.000233481
0.000261441
0.000240618
0.000206394
0.000187255
0.000201151
0.000247678
0.00029913
0.000330576
0.000346524
0.00035412
0.000347049
0.000337531
0.000360076
0.000392305
0.000347578
0.000207413
0.000100741
3.29657e-06
-2.48391e-05
-1.46933e-06
4.96849e-05
0.00010569
0.000144159
0.000147091
0.000126717
0.000117891
0.000140554
0.000177277
0.000192075
0.000176035
0.000150031
0.000138313
0.000138912
0.00012768
9.5078e-05
6.46188e-05
6.71981e-05
0.000105106
0.000166915
0.000233053
0.000270241
0.000259018
0.000223646
0.000196838
0.000194803
0.000224564
0.000268443
0.000304119
0.000330069
0.000348973
0.000352428
0.000343634
0.000355325
0.000385131
0.00035818
0.000243763
0.000149492
5.49129e-05
1.24556e-05
1.69091e-05
5.29864e-05
0.000101063
0.000137149
0.000144694
0.000128752
0.000120967
0.000143672
0.000181809
0.0002008
0.00019056
0.000168388
0.000152054
0.00014172
0.000123714
9.40973e-05
7.45139e-05
8.29995e-05
0.00011632
0.000166073
0.000227522
0.000274911
0.000277865
0.000243464
0.00020841
0.000193244
0.000208338
0.000241961
0.000278338
0.000309025
0.000333723
0.000345415
0.000340759
0.00034081
0.000358766
0.000347027
0.000267342
0.000194248
0.000115147
6.56334e-05
5.1634e-05
6.72182e-05
9.96385e-05
0.000127897
0.000135834
0.000127642
0.000125919
0.0001487
0.000186438
0.000209769
0.000206048
0.000186082
0.000166299
0.000145623
0.000115892
8.34485e-05
7.31932e-05
9.54428e-05
0.000133115
0.000173549
0.000224718
0.00027706
0.00029413
0.000264171
0.000218482
0.000191339
0.000195528
0.000224431
0.000259383
0.000292147
0.000322257
0.000342049
0.0003406
0.000329192
0.000329804
0.000323696
0.000277146
0.000225628
0.000166117
0.000124453
0.000106144
0.000103923
0.000109312
0.000116821
0.000119275
0.000117297
0.000123107
0.000149115
0.000189032
0.000217416
0.000218832
0.000200685
0.000178743
0.000154767
0.000124726
9.12754e-05
8.11678e-05
0.000110382
0.000155046
0.000190888
0.000227555
0.000273224
0.000295143
0.000272281
0.000226184
0.000193206
0.000189437
0.000212496
0.000248944
0.000284107
0.000314239
0.000337082
0.000339277
0.000320171
0.000307021
0.000304261
0.000279509
0.000242972
0.000205017
0.000173265
0.000156629
0.00014633
0.000133508
0.000118418
0.000106682
0.000100962
0.000111127
0.000143118
0.000188208
0.000222873
0.000230682
0.000214362
0.000188211
0.000161829
0.00013619
0.00010895
9.7123e-05
0.000121046
0.000167865
0.000207
0.000237789
0.000272524
0.000290656
0.000272254
0.000228291
0.00019332
0.000186746
0.000206248
0.000240951
0.000278789
0.000310735
0.000330926
0.000327134
0.000301705
0.000279295
0.00027569
0.000268706
0.000236765
0.000217895
0.000201397
0.00019696
0.000190846
0.000164558
0.000128679
0.000100784
8.80757e-05
9.21005e-05
0.000115841
0.00015849
0.00020608
0.000234807
0.000232858
0.000205444
0.000174952
0.000153136
0.000133544
0.000118802
0.000129152
0.000166603
0.000208449
0.000244103
0.000276453
0.000288087
0.000265627
0.000224738
0.000193018
0.000186295
0.000201317
0.000230332
0.000266051
0.000298723
0.000316955
0.000310231
0.000280301
0.000247798
0.00023612
0.000241388
0.000215052
0.000213153
0.000205943
0.000198685
0.000191762
0.000175697
0.000146979
0.000114691
9.11835e-05
8.14009e-05
8.97565e-05
0.000116616
0.000155515
0.000192211
0.000212459
0.000208955
0.000192432
0.00017772
0.000162857
0.000141863
0.000131324
0.000146811
0.000184293
0.000230385
0.000270072
0.000281903
0.000255621
0.00021445
0.00018756
0.000185053
0.000199661
0.000224117
0.000253238
0.000279735
0.000293519
0.000286401
0.000260807
0.000229128
0.00020983
0.000209557
0.000190004
0.000195722
0.0001992
0.000202422
0.000200078
0.00018248
0.000150844
0.000119775
9.75477e-05
8.14315e-05
7.34982e-05
8.29836e-05
0.000106574
0.00013797
0.000166859
0.000184345
0.00018947
0.00018735
0.000177454
0.000157974
0.000142408
0.000149608
0.000182758
0.000225224
0.00026114
0.00026916
0.000239612
0.000195167
0.000165433
0.000164229
0.00018555
0.000218845
0.000249797
0.000270462
0.000278326
0.000274133
0.000258674
0.000231822
0.000203538
0.000188829
0.00019656
0.000192087
0.000194109
0.000199879
0.000197937
0.000182562
0.000155774
0.000130143
0.00011325
0.00010256
9.40853e-05
8.87812e-05
9.12967e-05
0.000101684
0.000120346
0.000142076
0.000162672
0.000176308
0.000178993
0.00017144
0.00016431
0.000170194
0.00019248
0.00022433
0.000254476
0.00026332
0.000238778
0.000191795
0.000151429
0.000140035
0.000161123
0.00020231
0.000242329
0.000267624
0.000272354
0.000262844
0.00025349
0.000245273
0.000231334
0.000211331
0.000200541
0.000189119
0.000184104
0.000181532
0.000177734
0.000169135
0.000155424
0.000141628
0.000131302
0.000126667
0.000127657
0.000131252
0.000134344
0.00013338
0.000133602
0.000139576
0.000152654
0.000166941
0.000173479
0.000170559
0.000166818
0.000173074
0.000191592
0.000216977
0.000240344
0.000249074
0.000232359
0.000192867
0.000152277
0.000134991
0.000148472
0.000184629
0.000224234
0.000251911
0.000260049
0.00025396
0.000246993
0.000242569
0.000234659
0.000218249
0.000187737
0.000164376
0.000151904
0.000148759
0.000150377
0.00015276
0.000155159
0.000156016
0.000152773
0.000145376
0.000138773
0.000136563
0.000139867
0.000148307
0.000157572
0.000167053
0.00017613
0.000183743
0.000187437
0.000185258
0.000180041
0.000178161
0.000184785
0.000199559
0.000217401
0.000229515
0.000223643
0.000195722
0.000160107
0.000140128
0.000146175
0.000171402
0.000202809
0.000229168
0.00024184
0.000241879
0.000239703
0.000239723
0.000234901
0.000215617
0.000171707
0.000133893
0.000110549
0.000106177
0.000117342
0.000134862
0.000150759
0.000160919
0.000161992
0.000155468
0.000149192
0.000149957
0.000156137
0.000162448
0.000169079
0.000180956
0.00019903
0.000215904
0.000223077
0.000216534
0.000198346
0.000179293
0.000171083
0.00017596
0.000189677
0.000205772
0.000213672
0.000202203
0.000179322
0.000162707
0.00016268
0.000175146
0.000193156
0.000210798
0.000224899
0.000234157
0.000240788
0.000242837
0.000235315
0.000209856
8.27176e-05
4.80624e-05
4.41748e-05
6.57883e-05
0.000104618
0.000146555
0.000170936
0.000164772
0.000141947
0.000134139
0.000152826
0.000177827
0.000186442
0.000178266
0.000167231
0.000160344
0.000152768
0.000137793
0.000117851
0.000105788
0.000115272
0.000154227
0.000215546
0.000275044
0.000310801
0.00032253
0.000322555
0.000324085
0.000336511
0.000361316
0.000393052
0.000424378
0.000436779
0.000419345
0.000386454
0.000353389
0.000320712
0.000275153
0.000212167
0.000142409
8.40986e-05
4.87505e-05
4.43725e-05
6.55843e-05
0.000104163
0.000146091
0.000170737
0.000164907
0.000142231
0.000134392
0.000153069
0.000178121
0.000186689
0.000178298
0.000167045
0.000160126
0.000152537
0.000137411
0.000117163
0.000104765
0.000113938
0.000152568
0.000213625
0.000272859
0.000308338
0.000319797
0.000319473
0.000320423
0.000332154
0.000356538
0.00038849
0.000421045
0.000435349
0.000419355
0.000387332
0.0003549
0.000322978
0.00027791
0.000214848
0.00014458
8.3996e-05
4.77849e-05
4.3008e-05
6.40845e-05
0.000102712
0.000145034
0.000170378
0.000165017
0.000142162
0.00013386
0.000152436
0.000177677
0.000186248
0.000177666
0.000166416
0.000159814
0.000152511
0.000137252
0.000116566
0.000103695
0.000112451
0.000150727
0.000211755
0.000271158
0.000306607
0.000317944
0.000317298
0.000317341
0.000327595
0.000350542
0.00038213
0.000416646
0.000434436
0.000420926
0.000389915
0.000357888
0.000326391
0.000281164
0.000217268
0.00014573
8.16697e-05
4.43923e-05
3.92283e-05
6.03968e-05
9.93918e-05
0.000142619
0.00016918
0.000164417
0.000141
0.000131725
0.000150074
0.000175723
0.000184473
0.000175809
0.000164901
0.000159252
0.000152781
0.000137503
0.000116217
0.000102821
0.000111364
0.000149626
0.000211088
0.000271118
0.000306594
0.000317688
0.000316711
0.000315833
0.000324252
0.000344833
0.000374865
0.000411212
0.000433865
0.000424178
0.000394504
0.000362924
0.000331397
0.000285081
0.000219133
0.000145329
7.74497e-05
3.87363e-05
3.30352e-05
5.42705e-05
9.36722e-05
0.000138142
0.000166444
0.00016257
0.000138377
0.000127569
0.000145268
0.000171293
0.0001804
0.000171864
0.000161693
0.000157764
0.000152931
0.000137989
0.00011587
0.000101726
0.000110401
0.000149288
0.000211933
0.000273154
0.00030875
0.000319125
0.000317499
0.000316038
0.000323354
0.000341564
0.000368404
0.000404814
0.000432612
0.000428258
0.000401055
0.000370439
0.000338604
0.000290177
0.000220783
0.000143638
7.18759e-05
3.13665e-05
2.46394e-05
4.56452e-05
8.52073e-05
0.000131102
0.000161681
0.000159289
0.000134626
0.000121915
0.000138067
0.000163704
0.000172973
0.000164814
0.000155892
0.000154578
0.000152441
0.000138411
0.000115294
9.97935e-05
0.000107915
0.000146938
0.000211132
0.000275048
0.000312188
0.000322024
0.000319032
0.000316812
0.00032479
0.000342648
0.000365629
0.000398936
0.000430007
0.000431788
0.000408781
0.000380896
0.000348968
0.000297451
0.000222991
0.00014127
6.57319e-05
2.30209e-05
1.46624e-05
3.46402e-05
7.32858e-05
0.000120305
0.000153949
0.000154346
0.00013055
0.000116552
0.000130437
0.000153974
0.000162126
0.000154066
0.000146959
0.000149399
0.000151234
0.000138989
0.000114858
9.69976e-05
0.000102524
0.000138879
0.000202612
0.000269414
0.00031063
0.000322921
0.000319604
0.000315592
0.000324903
0.000346708
0.000368217
0.000395927
0.000426271
0.000433118
0.000416132
0.000394503
0.00036441
0.000308914
0.000227326
0.000139329
6.07157e-05
1.47651e-05
4.72624e-06
2.27238e-05
5.8834e-05
0.000104959
0.00014134
0.000145898
0.000125041
0.000112075
0.000124095
0.000144815
0.000150741
0.000141616
0.000135801
0.000142972
0.000149909
0.00014021
0.000115022
9.3549e-05
9.36203e-05
0.000123455
0.000184136
0.000253295
0.000299178
0.00031574
0.000314934
0.000310358
0.000318704
0.000344129
0.00036959
0.000395025
0.000422133
0.000431234
0.00042057
0.000409519
0.00038628
0.00032763
0.000236595
0.000139755
5.86677e-05
9.00631e-06
-2.80419e-06
1.27095e-05
4.55188e-05
8.88372e-05
0.000125606
0.000133154
0.000115356
0.000103564
0.000114071
0.000131554
0.000135917
0.000128591
0.000126009
0.000136667
0.000148926
0.000141986
0.000115539
8.94271e-05
8.12971e-05
0.000100769
0.000156038
0.000228124
0.000279868
0.000300354
0.000302677
0.000300001
0.000307769
0.000332044
0.000357332
0.000383746
0.000413327
0.000425407
0.000420054
0.000421715
0.000413137
0.000356088
0.000254493
0.000145392
6.24451e-05
7.16216e-06
-6.3431e-06
7.3013e-06
3.68261e-05
7.6534e-05
0.000111363
0.000119522
0.000102404
9.02523e-05
9.86285e-05
0.000111612
0.000112788
0.000107461
0.000110589
0.000128736
0.000147065
0.000143083
0.000115698
8.58044e-05
6.96966e-05
7.66689e-05
0.00012299
0.000196929
0.000256465
0.000281483
0.000284894
0.000283573
0.000292046
0.000316294
0.000337422
0.000358237
0.000391238
0.000411966
0.000413971
0.00042732
0.000438426
0.000392506
0.000283783
0.000160616
7.71241e-05
1.11138e-05
-7.38509e-06
5.49237e-06
3.53775e-05
7.39459e-05
0.000105777
0.000110309
9.04284e-05
7.61951e-05
8.18063e-05
9.12812e-05
9.06738e-05
8.5912e-05
9.18066e-05
0.000115308
0.000141752
0.000142216
0.000115187
8.46456e-05
6.63575e-05
6.40404e-05
9.82416e-05
0.000168806
0.000234839
0.000266722
0.000269848
0.000265795
0.000273183
0.000299243
0.000319788
0.000331251
0.000357828
0.000388443
0.000401907
0.000425643
0.000455017
0.000428914
0.000324291
0.000189397
0.000105837
2.62504e-05
-3.63181e-06