/*--------------------------------*- C++ -*----------------------------------*\
| =========                 |                                                 |
| \\      /  F ield         | OpenFOAM: The Open Source CFD Toolbox           |
|  \\    /   O peration     | Version:  2306                                  |
|   \\  /    A nd           | Website:  www.openfoam.com                      |
|    \\/     M anipulation  |                                                 |
\*---------------------------------------------------------------------------*/
FoamFile
{
    version     2.0;
    format      ascii;
    arch        "LSB;label=32;scalar=64";
    class       volVectorField;
    location    "2.5";
    object      U_0;
}
// * * * * * * * * * * * * * * * * * * * * * * * * * * * * * * * * * * * * * //

dimensions      [0 1 -1 0 0 0 0];

internalField   nonuniform List<vector> 
60000
(
(0.0102805 4.81135e-05 0.00260972)
(0.0101999 1.88425e-05 0.00271262)
(0.0100052 -6.96437e-06 0.00244704)
(0.0098194 -1.57744e-05 0.00207833)
(0.00967822 -1.10971e-05 0.00179382)
(0.00952115 -5.65197e-06 0.00156441)
(0.0092869 -6.08496e-06 0.00131417)
(0.0088944 -9.76878e-06 0.00107586)
(0.00822113 -1.11477e-05 0.000950141)
(0.0072714 -1.16114e-05 0.000975267)
(0.00632716 -1.24181e-05 0.00106579)
(0.00575642 -1.40981e-05 0.00114465)
(0.00563859 -1.91629e-05 0.00117531)
(0.00577945 -2.52157e-05 0.00104373)
(0.00595175 -2.45708e-05 0.000747557)
(0.00604633 -1.35034e-05 0.000424358)
(0.00614834 -1.03232e-06 0.000160594)
(0.00637538 1.10429e-05 -4.36282e-05)
(0.00669989 1.89695e-05 -0.000223586)
(0.00703771 2.40468e-05 -0.000445477)
(0.00737102 2.30273e-05 -0.00077218)
(0.0077551 1.3455e-05 -0.00120358)
(0.00825552 8.38288e-07 -0.00170474)
(0.00881522 -4.3624e-06 -0.0021767)
(0.00924449 -6.34183e-06 -0.00246484)
(0.00933978 -8.55295e-06 -0.00251419)
(0.00899074 -4.68122e-06 -0.00245474)
(0.00824155 6.9717e-06 -0.00234593)
(0.00735386 1.03728e-05 -0.0021518)
(0.00665494 -5.88303e-06 -0.00202875)
(0.00626279 -8.37585e-06 -0.0020474)
(0.00613136 -7.54208e-08 -0.00203475)
(0.00623858 5.76332e-06 -0.00175227)
(0.00657908 1.62962e-05 -0.00112036)
(0.00707874 3.16716e-05 -0.000332486)
(0.00765191 4.63021e-05 0.000270897)
(0.00828934 5.04556e-05 0.000602875)
(0.00900716 4.83568e-05 0.000914164)
(0.00968112 5.65143e-05 0.0014268)
(0.0101267 6.37515e-05 0.00209398)
(0.0314118 0.000200094 0.00687077)
(0.0314994 3.48109e-05 0.00692949)
(0.0309508 -9.43215e-05 0.00610511)
(0.0302259 -0.000134195 0.00516761)
(0.0296631 -0.000100965 0.00460146)
(0.0291627 -5.50918e-05 0.0042101)
(0.0284396 -2.73224e-05 0.00367701)
(0.0272095 -1.12622e-05 0.00304026)
(0.0252421 -7.6738e-06 0.00262175)
(0.0226301 -4.27086e-05 0.00263087)
(0.0200064 -0.000125021 0.00292622)
(0.0182362 -0.000211757 0.00317802)
(0.0175822 -0.000262807 0.00312816)
(0.0175886 -0.000257879 0.0026278)
(0.0177504 -0.000193499 0.00184788)
(0.0178906 -9.54579e-05 0.00109371)
(0.0182113 -1.41242e-05 0.000488884)
(0.0189083 3.80331e-05 -1.18957e-05)
(0.0198857 6.74981e-05 -0.000513148)
(0.0209837 7.47725e-05 -0.00116515)
(0.0222127 3.5054e-05 -0.00209022)
(0.0236717 -4.50102e-05 -0.0032907)
(0.0253782 -0.000114561 -0.00465795)
(0.0270941 -0.000119451 -0.00590601)
(0.0283516 -8.54266e-05 -0.00662894)
(0.0286247 -4.23594e-05 -0.00668532)
(0.0276317 9.76938e-06 -0.00635796)
(0.0255945 5.07074e-05 -0.00586566)
(0.0232079 4.5126e-06 -0.00535751)
(0.0210952 -9.93511e-05 -0.00523413)
(0.0195208 -0.000129791 -0.00548059)
(0.0186632 -8.66383e-05 -0.00546941)
(0.0187166 -2.55288e-05 -0.00457291)
(0.0196322 6.0641e-05 -0.00279542)
(0.0210932 0.00017754 -0.000780343)
(0.022841 0.000279246 0.000755041)
(0.0247943 0.000300389 0.00173668)
(0.0269208 0.000286086 0.0027169)
(0.0289492 0.000300294 0.00411781)
(0.0305216 0.00030165 0.00574489)
(0.0534916 0.000307235 0.0101279)
(0.0540923 -5.57742e-05 0.0103486)
(0.0532175 -0.000303664 0.00911406)
(0.0517498 -0.000362774 0.00757651)
(0.0505932 -0.00027704 0.00672486)
(0.0497426 -0.000170542 0.00636698)
(0.0486442 -9.79111e-05 0.00583952)
(0.0467942 -4.9447e-05 0.00494203)
(0.0439173 -4.1637e-05 0.00410341)
(0.0400692 -0.000125211 0.00386228)
(0.0358224 -0.000323898 0.00429417)
(0.0323593 -0.000540359 0.00484622)
(0.0305047 -0.000663404 0.00482992)
(0.0298753 -0.000637836 0.00404266)
(0.0297248 -0.000470386 0.00290614)
(0.029751 -0.000235255 0.00187959)
(0.0301969 -4.40794e-05 0.00108093)
(0.031295 5.95748e-05 0.000412688)
(0.0328983 0.00010848 -0.000281847)
(0.0347867 9.42737e-05 -0.00120019)
(0.0370099 -4.4485e-05 -0.00252251)
(0.0396983 -0.000260181 -0.00431064)
(0.0427816 -0.000424529 -0.00646798)
(0.0458379 -0.000425007 -0.00857433)
(0.0481724 -0.000324335 -0.00993486)
(0.0489826 -0.000192853 -0.0101755)
(0.0477955 -5.21686e-05 -0.00959069)
(0.0448929 3.49279e-05 -0.00859789)
(0.041245 -7.66685e-05 -0.0076407)
(0.0376582 -0.000277833 -0.00743544)
(0.0344936 -0.000332804 -0.00805331)
(0.0321917 -0.00023878 -0.00847316)
(0.0314346 -9.67831e-05 -0.00747595)
(0.0324491 9.66003e-05 -0.00494535)
(0.0346996 0.000368037 -0.00192227)
(0.037632 0.000606912 0.000494888)
(0.0409935 0.000658359 0.00216571)
(0.0446626 0.000629087 0.00378809)
(0.0482816 0.000624412 0.00593544)
(0.051382 0.000568803 0.00837123)
(0.0756547 0.000285905 0.0119778)
(0.0772741 -0.000277831 0.0129594)
(0.0762345 -0.000622312 0.0118082)
(0.0738365 -0.000678455 0.00962402)
(0.0718659 -0.000525002 0.00816917)
(0.0706666 -0.000345407 0.00780902)
(0.0694217 -0.000210561 0.0076275)
(0.0673499 -0.000106275 0.00682591)
(0.0641702 -7.42414e-05 0.00556073)
(0.0598049 -0.000188629 0.004723)
(0.0543218 -0.000501118 0.00500266)
(0.0487383 -0.000897384 0.00598286)
(0.0446977 -0.00116134 0.0063464)
(0.0426043 -0.00115076 0.00546379)
(0.0416741 -0.00087499 0.00403905)
(0.0413173 -0.000474025 0.00284242)
(0.0416762 -0.000146897 0.00201793)
(0.0429799 2.25726e-05 0.00139776)
(0.0450399 7.90909e-05 0.000771173)
(0.0475755 6.33743e-06 -8.6239e-05)
(0.0506725 -0.000292495 -0.00141485)
(0.0545484 -0.000737354 -0.003418)
(0.0591075 -0.00105829 -0.00619087)
(0.063777 -0.00104856 -0.00933925)
(0.0676407 -0.000832739 -0.0118432)
(0.0696387 -0.000536866 -0.0128425)
(0.069058 -0.000230605 -0.0123826)
(0.06603 -5.22802e-05 -0.0109731)
(0.0615889 -0.000212781 -0.00934414)
(0.0567136 -0.000514099 -0.00866125)
(0.0518666 -0.000594919 -0.00945809)
(0.0475089 -0.000465586 -0.0107079)
(0.0447347 -0.000279472 -0.0105267)
(0.0446721 -2.34986e-06 -0.0080939)
(0.047086 0.00043464 -0.00449293)
(0.0510226 0.000835743 -0.00131484)
(0.0558362 0.000951082 0.00102292)
(0.0612128 0.000892156 0.00324166)
(0.0667044 0.000874205 0.00604718)
(0.071765 0.000744011 0.00929585)
(0.0961127 5.20006e-05 0.0114043)
(0.0995569 -0.000664288 0.0139999)
(0.09884 -0.00103477 0.014046)
(0.0954234 -0.00103716 0.0117072)
(0.0923665 -0.000800734 0.00924127)
(0.0907932 -0.000549905 0.00839871)
(0.0897136 -0.000354123 0.00868672)
(0.08791 -0.000181786 0.00857101)
(0.0850726 -0.000107228 0.00725124)
(0.0810874 -0.00019852 0.00555613)
(0.0753313 -0.000540819 0.00511016)
(0.0679614 -0.00109596 0.00635545)
(0.0609249 -0.00159719 0.00755543)
(0.0561268 -0.00171647 0.00696343)
(0.0535765 -0.00139585 0.0052573)
(0.0523732 -0.000842866 0.00385012)
(0.0522865 -0.000370825 0.00311313)
(0.0534204 -0.000124233 0.00279424)
(0.0555201 -6.51252e-05 0.00259075)
(0.0582005 -0.000233149 0.00225993)
(0.0615576 -0.000782018 0.00154383)
(0.0660263 -0.00163278 6.57594e-05)
(0.0718027 -0.00229003 -0.00269306)
(0.0783905 -0.00228747 -0.00678653)
(0.0845605 -0.00179823 -0.0110933)
(0.0887823 -0.00117758 -0.013925)
(0.0900137 -0.000588194 -0.0145634)
(0.0879825 -0.000224211 -0.0133058)
(0.0835221 -0.000391725 -0.0110429)
(0.077839 -0.00077548 -0.00943489)
(0.0717147 -0.000863526 -0.00979053)
(0.0655034 -0.000693763 -0.0116248)
(0.0600053 -0.00052729 -0.0128638)
(0.0570855 -0.000292375 -0.0117654)
(0.0579049 0.000196142 -0.00866641)
(0.0618425 0.000700415 -0.0053538)
(0.0677294 0.000851211 -0.00266444)
(0.0748499 0.000741141 8.41756e-06)
(0.0824274 0.00077607 0.00339584)
(0.0898137 0.000667731 0.00747194)
(0.111369 -0.000707573 0.00656557)
(0.118143 -0.00133765 0.011585)
(0.11907 -0.00155513 0.0145355)
(0.114887 -0.00140816 0.0137537)
(0.110389 -0.00106533 0.0105856)
(0.108356 -0.000737957 0.00844865)
(0.107847 -0.000506513 0.00866556)
(0.106868 -0.00028129 0.00970228)
(0.104846 -0.000147765 0.00922373)
(0.102008 -0.000181756 0.00687893)
(0.0973558 -0.000414092 0.00503367)
(0.0897548 -0.000975169 0.00584683)
(0.0801829 -0.00172205 0.0080551)
(0.0715277 -0.00214521 0.00842579)
(0.0659117 -0.00194462 0.00661661)
(0.0630095 -0.00131221 0.00478591)
(0.0619898 -0.000707713 0.00400022)
(0.0624886 -0.000377525 0.00403682)
(0.0640362 -0.000301341 0.00444756)
(0.0660257 -0.000599965 0.00496136)
(0.0683607 -0.00154658 0.00539263)
(0.0717337 -0.00305162 0.0053344)
(0.0771008 -0.00436355 0.00392964)
(0.0848022 -0.00472083 0.000306967)
(0.0941597 -0.00399477 -0.00545205)
(0.102749 -0.0026231 -0.0113887)
(0.107877 -0.0012957 -0.0149027)
(0.108564 -0.000520608 -0.015171)
(0.105244 -0.000621152 -0.0130263)
(0.0994354 -0.00105886 -0.0104987)
(0.0927417 -0.00111027 -0.00975229)
(0.0857404 -0.000842629 -0.011276)
(0.0784643 -0.000677787 -0.0134466)
(0.0721879 -0.000575429 -0.014261)
(0.0691575 -0.000248919 -0.0131281)
(0.0705185 9.87913e-05 -0.0111375)
(0.0756122 7.4021e-05 -0.00912498)
(0.0833337 -0.000223965 -0.00663818)
(0.0924067 -0.000227293 -0.00309845)
(0.101958 -0.00020605 0.00141203)
(0.115659 -0.00267455 -0.00323812)
(0.127444 -0.00296287 0.00369324)
(0.133372 -0.00243811 0.0107474)
(0.129965 -0.00176824 0.0141703)
(0.123551 -0.00132646 0.0124353)
(0.120748 -0.000961727 0.00886831)
(0.12144 -0.000645429 0.0077252)
(0.122142 -0.000391373 0.00946077)
(0.121215 -0.000253397 0.0108881)
(0.119688 -0.000204355 0.00899385)
(0.117256 -0.000218216 0.00549332)
(0.111807 -0.000567263 0.00477473)
(0.102267 -0.00134503 0.00742923)
(0.0903459 -0.00211622 0.00935534)
(0.0801222 -0.00227747 0.00813079)
(0.0739365 -0.00175875 0.0058435)
(0.0712341 -0.00107742 0.00465276)
(0.0707915 -0.000639588 0.00470149)
(0.0715772 -0.000506051 0.0053795)
(0.0726839 -0.000935749 0.00629366)
(0.0736158 -0.00242965 0.00748379)
(0.0748186 -0.00485728 0.00899095)
(0.0776903 -0.00701542 0.0099419)
(0.0834383 -0.00788445 0.00881868)
(0.092707 -0.00732754 0.00449972)
(0.105305 -0.00555545 -0.00297269)
(0.117442 -0.00306594 -0.0106706)
(0.124016 -0.00125102 -0.0146978)
(0.123719 -0.00102613 -0.0144721)
(0.118592 -0.00148355 -0.0120615)
(0.111986 -0.00134871 -0.010172)
(0.105451 -0.000820061 -0.010467)
(0.0985265 -0.000599998 -0.0123095)
(0.0910257 -0.000556209 -0.0141434)
(0.0844595 -0.000438031 -0.015342)
(0.0811591 -0.000560438 -0.0162308)
(0.0824546 -0.00116537 -0.0165476)
(0.0881516 -0.0019653 -0.0153078)
(0.0962795 -0.00219333 -0.0123199)
(0.105056 -0.00216433 -0.00834675)
(0.113263 -0.00540574 -0.0130441)
(0.125467 -0.0059494 -0.00633128)
(0.137795 -0.00439176 0.00276347)
(0.139047 -0.00221276 0.0107079)
(0.130971 -0.00128101 0.0131261)
(0.125245 -0.00128796 0.0101548)
(0.127179 -0.00106947 0.00691216)
(0.131615 -0.000531736 0.00753869)
(0.132363 -0.000341291 0.010696)
(0.130737 -0.000517971 0.0110671)
(0.130322 -0.00038508 0.00696141)
(0.129334 -0.000148037 0.00388282)
(0.12395 -0.000581226 0.00576896)
(0.11255 -0.00142206 0.00910837)
(0.0983055 -0.00199908 0.00935936)
(0.0869383 -0.00190175 0.00723817)
(0.0809694 -0.00136987 0.00560459)
(0.0791589 -0.000860752 0.00526709)
(0.0795154 -0.000593748 0.00563597)
(0.0807368 -0.00101764 0.0062065)
(0.0819974 -0.00285153 0.00716808)
(0.0825243 -0.00607636 0.00927584)
(0.0826245 -0.00924109 0.0123227)
(0.0843984 -0.0107997 0.0143181)
(0.0899379 -0.0105248 0.0131472)
(0.100705 -0.00883549 0.00758252)
(0.116232 -0.00580131 -0.00150526)
(0.130222 -0.00279943 -0.00963113)
(0.135196 -0.00176949 -0.0132192)
(0.130629 -0.00209072 -0.0129169)
(0.123232 -0.00198916 -0.0108903)
(0.118378 -0.00117228 -0.00949853)
(0.114946 -0.000439631 -0.00988396)
(0.110002 -4.78274e-05 -0.0114179)
(0.103445 0.000141309 -0.0137223)
(0.0971709 -0.000464119 -0.0174244)
(0.0933525 -0.00208829 -0.0215424)
(0.0942559 -0.00386294 -0.0232099)
(0.0995769 -0.00448039 -0.0213159)
(0.105872 -0.00448626 -0.0176304)
(0.114352 -0.00766267 -0.0192789)
(0.122315 -0.00925328 -0.0128144)
(0.135239 -0.0077334 -0.00426987)
(0.142992 -0.0035341 0.00513096)
(0.138018 -0.000867841 0.0108537)
(0.128298 -0.00109289 0.01038)
(0.126068 -0.00187797 0.00658605)
(0.13316 -0.0012409 0.00503299)
(0.139358 -0.000211517 0.00777323)
(0.13716 -0.000459548 0.0105443)
(0.132632 -0.00127498 0.0082241)
(0.134021 -0.00116881 0.00363147)
(0.137598 -0.00056173 0.00367613)
(0.133699 -0.00051933 0.00757279)
(0.120406 -0.000964936 0.00958201)
(0.104405 -0.00128683 0.00852399)
(0.093115 -0.00127682 0.00708449)
(0.0883644 -0.00103075 0.00655571)
(0.0880447 -0.000744284 0.00646936)
(0.0899595 -0.00106298 0.00639315)
(0.0926409 -0.00286735 0.00660261)
(0.0943806 -0.00623984 0.00816214)
(0.093902 -0.0099635 0.011633)
(0.0923116 -0.0124036 0.0157212)
(0.0928834 -0.0128315 0.0177805)
(0.0989381 -0.0115637 0.0151776)
(0.112315 -0.00871651 0.00719098)
(0.129326 -0.00504526 -0.00277115)
(0.1383 -0.00260117 -0.00971432)
(0.132213 -0.00179268 -0.0116389)
(0.119367 -0.00164729 -0.00976524)
(0.112218 -0.0015374 -0.006764)
(0.114025 -0.00113161 -0.0050849)
(0.118597 -6.47236e-05 -0.0056882)
(0.119043 0.00108575 -0.00832384)
(0.115231 0.000772653 -0.0134788)
(0.109586 -0.00170585 -0.0207549)
(0.105223 -0.00484416 -0.0266137)
(0.105633 -0.00636224 -0.0275522)
(0.109677 -0.00645654 -0.0243594)
(0.118425 -0.00877911 -0.0231471)
(0.12311 -0.0114525 -0.016181)
(0.132262 -0.0113671 -0.00845596)
(0.142761 -0.0064911 -5.03814e-05)
(0.144602 -0.00128754 0.0067656)
(0.136673 -0.000107989 0.00859231)
(0.128146 -0.00191696 0.00581329)
(0.129323 -0.00265556 0.00290879)
(0.138701 -0.000902899 0.00399142)
(0.143599 0.000538497 0.00762077)
(0.137949 -0.000780759 0.00808596)
(0.131763 -0.0032232 0.00427522)
(0.136576 -0.0035346 0.00244496)
(0.144602 -0.00173656 0.00555373)
(0.14074 -0.00023612 0.00873357)
(0.12567 9.59511e-05 0.00895025)
(0.109793 -0.00026738 0.00825266)
(0.100127 -0.000728399 0.00830814)
(0.0971339 -0.00100074 0.00849086)
(0.0989142 -0.00150774 0.00800177)
(0.103286 -0.00318139 0.00693577)
(0.107055 -0.00619441 0.00688611)
(0.107315 -0.00966241 0.00950335)
(0.104347 -0.0123816 0.0141523)
(0.101164 -0.0135493 0.0184101)
(0.101958 -0.0131958 0.0188689)
(0.11054 -0.0111964 0.0128267)
(0.125335 -0.00754369 0.00238294)
(0.135409 -0.00340598 -0.00675268)
(0.129998 -0.000469469 -0.0103855)
(0.115072 0.000280614 -0.0082939)
(0.104456 -0.000821672 -0.00335776)
(0.10418 -0.0019701 0.0010153)
(0.112659 -0.00111532 0.0024285)
(0.122411 0.00117529 0.000237758)
(0.126817 0.00223001 -0.00559966)
(0.12529 7.99778e-05 -0.0145722)
(0.120098 -0.00405468 -0.0237174)
(0.115795 -0.00682896 -0.0286708)
(0.115622 -0.00743918 -0.0279797)
(0.123275 -0.00850736 -0.0258124)
(0.126001 -0.0118773 -0.0190801)
(0.131989 -0.0138043 -0.0111024)
(0.140812 -0.0103808 -0.00401361)
(0.147131 -0.00374588 0.00205453)
(0.145181 5.49698e-05 0.00538733)
(0.136695 -0.000752551 0.00459722)
(0.129792 -0.00297584 0.00178251)
(0.132604 -0.00259226 0.00117508)
(0.141883 6.60215e-05 0.00409644)
(0.145824 0.000909847 0.00664169)
(0.139643 -0.00237936 0.00511147)
(0.134728 -0.0064142 0.00265451)
(0.142321 -0.00614605 0.00431145)
(0.150209 -0.002247 0.0077431)
(0.144174 0.000843159 0.00871504)
(0.129256 0.00159437 0.00838116)
(0.115825 0.000828224 0.00915829)
(0.108283 -0.000582393 0.0104317)
(0.107319 -0.00237897 0.0103172)
(0.112298 -0.00452249 0.00799923)
(0.119177 -0.00682522 0.00544649)
(0.121849 -0.00918012 0.00614094)
(0.118594 -0.0113343 0.0105336)
(0.112705 -0.012659 0.0161069)
(0.108691 -0.0130148 0.0192401)
(0.111219 -0.0121944 0.0159502)
(0.121182 -0.00927397 0.00643501)
(0.130274 -0.00412672 -0.00372911)
(0.128023 0.000843689 -0.00912527)
(0.116431 0.00278196 -0.0081502)
(0.105965 0.00109158 -0.00273377)
(0.102384 -0.00175773 0.00359619)
(0.106989 -0.00222142 0.00760177)
(0.117568 0.000258528 0.00771884)
(0.128156 0.00278575 0.00330527)
(0.133988 0.00212238 -0.00558001)
(0.133476 -0.00180993 -0.0165078)
(0.128883 -0.00550997 -0.0248863)
(0.124494 -0.00694055 -0.0280575)
(0.130272 -0.00715021 -0.026166)
(0.130188 -0.0109312 -0.0219263)
(0.134874 -0.0143193 -0.0140524)
(0.140984 -0.0133926 -0.00699164)
(0.146572 -0.0076968 -0.00190123)
(0.148375 -0.00194027 0.00180354)
(0.144052 -0.000131095 0.00305612)
(0.135753 -0.00170961 0.00153233)
(0.130944 -0.00304936 9.17385e-05)
(0.135673 -0.00178568 0.00168014)
(0.144863 9.00908e-05 0.0047596)
(0.147426 -0.00126433 0.00519821)
(0.141175 -0.00609569 0.00307863)
(0.139035 -0.00925729 0.00326655)
(0.147268 -0.00648478 0.00648852)
(0.151999 -0.000845233 0.00818628)
(0.1449 0.00264961 0.00784439)
(0.132492 0.00320034 0.00871446)
(0.121925 0.00156651 0.0108306)
(0.11647 -0.00206691 0.0109045)
(0.118603 -0.00631749 0.00726939)
(0.127467 -0.00865012 0.00254304)
(0.134985 -0.00918862 0.00142121)
(0.134134 -0.00984038 0.00532517)
(0.12675 -0.0107917 0.0116934)
(0.118521 -0.011191 0.0170209)
(0.114834 -0.011089 0.0170414)
(0.118777 -0.00941416 0.0100195)
(0.125752 -0.00456794 -6.5208e-05)
(0.126643 0.00152949 -0.00727379)
(0.120351 0.00466033 -0.00878034)
(0.113263 0.00310577 -0.00545192)
(0.109073 -0.000448243 0.000410235)
(0.109287 -0.00212009 0.00608199)
(0.114891 -0.000545203 0.00922873)
(0.124235 0.00223332 0.00829816)
(0.134577 0.0029712 0.00233301)
(0.141355 0.000620575 -0.0079754)
(0.140816 -0.00286804 -0.0182863)
(0.135446 -0.00503945 -0.0246815)
(0.138747 -0.00506877 -0.0241005)
(0.136406 -0.00961533 -0.022944)
(0.14 -0.0136297 -0.0168995)
(0.144493 -0.0145627 -0.010158)
(0.146591 -0.0111778 -0.00514712)
(0.147012 -0.00537102 -0.00113753)
(0.145523 -0.000995169 0.00176355)
(0.140634 -0.000247795 0.00196125)
(0.134722 -0.00187364 0.000453746)
(0.134382 -0.00289255 0.000707256)
(0.141506 -0.00224309 0.00352586)
(0.148122 -0.00230295 0.00529335)
(0.146692 -0.00544102 0.00366677)
(0.14107 -0.00967607 0.00203532)
(0.141954 -0.00970159 0.00389072)
(0.148039 -0.00443307 0.00649649)
(0.1484 0.00139564 0.00735406)
(0.140683 0.00454108 0.00848128)
(0.13108 0.00439318 0.0101192)
(0.124375 0.000606889 0.00861512)
(0.122418 -0.00577987 0.00294222)
(0.128528 -0.0104213 -0.00304544)
(0.140583 -0.0103414 -0.00460403)
(0.146412 -0.00865313 -0.000380344)
(0.140714 -0.00844565 0.00663868)
(0.129502 -0.00863268 0.0132493)
(0.120801 -0.00841361 0.0161143)
(0.119224 -0.00738438 0.0125038)
(0.123213 -0.00365995 0.00403463)
(0.12579 0.00220281 -0.00439876)
(0.123917 0.00583147 -0.00894789)
(0.120761 0.00463403 -0.00882349)
(0.118445 0.00101043 -0.00526777)
(0.117307 -0.00109968 -0.000295234)
(0.118397 -0.000355743 0.00421191)
(0.122653 0.00133122 0.00659358)
(0.131544 0.00173156 0.00506506)
(0.143154 0.00101776 -0.00185846)
(0.148692 -0.000328675 -0.011823)
(0.14519 -0.0020628 -0.0199669)
(0.147376 -0.00266934 -0.0213955)
(0.14414 -0.00800489 -0.0222909)
(0.146289 -0.012184 -0.0182833)
(0.149639 -0.0136807 -0.0131589)
(0.148882 -0.0122824 -0.00886797)
(0.145647 -0.00809831 -0.00415212)
(0.14348 -0.00293101 0.000649193)
(0.141386 0.000275831 0.00272634)
(0.138207 -0.000113072 0.00153748)
(0.136948 -0.00259472 0.000703863)
(0.141074 -0.00399606 0.00300377)
(0.147713 -0.00377608 0.00582927)
(0.149646 -0.00480481 0.00485983)
(0.144898 -0.00807621 0.00145906)
(0.139605 -0.00985383 0.00100903)
(0.138452 -0.00678816 0.00421017)
(0.13731 -0.0010842 0.00788451)
(0.133307 0.00340793 0.0100766)
(0.129778 0.00521958 0.00914246)
(0.128676 0.00344103 0.0039704)
(0.127385 -0.0028092 -0.003066)
(0.128074 -0.0103664 -0.00763954)
(0.13789 -0.0126652 -0.00776374)
(0.150269 -0.00949489 -0.00335488)
(0.150792 -0.00680957 0.00333553)
(0.139365 -0.00606847 0.00975062)
(0.12686 -0.00533176 0.0139706)
(0.121286 -0.00404741 0.0133711)
(0.123253 -0.00125485 0.00745085)
(0.127365 0.0032017 -0.000838756)
(0.128955 0.00611076 -0.00767372)
(0.128797 0.00496256 -0.01074)
(0.128699 0.0018076 -0.0101864)
(0.128437 0.000244371 -0.00749088)
(0.127922 0.000905048 -0.00368157)
(0.128425 0.00116603 0.000505539)
(0.132692 -0.000577978 0.0027749)
(0.142564 -0.00144459 -2.68537e-06)
(0.15183 1.37259e-05 -0.00749129)
(0.152518 0.000462096 -0.0157028)
(0.154386 -0.00045761 -0.0180303)
(0.151861 -0.00571247 -0.0202823)
(0.152499 -0.00972869 -0.0181579)
(0.15538 -0.0113356 -0.0147694)
(0.154205 -0.0114458 -0.0118887)
(0.148403 -0.00931072 -0.00742457)
(0.143349 -0.00466182 -0.00125727)
(0.140861 0.000156805 0.00284717)
(0.139483 0.00160962 0.00301266)
(0.139409 -0.00103781 0.00203748)
(0.142257 -0.00438227 0.00335855)
(0.147576 -0.00513429 0.00618125)
(0.150681 -0.00460642 0.0060626)
(0.147159 -0.00556525 0.00207174)
(0.138499 -0.00709319 -0.000708899)
(0.130294 -0.00611579 0.00130306)
(0.125275 -0.00250234 0.00536404)
(0.123824 0.00124454 0.00695464)
(0.126713 0.00387888 0.00397527)
(0.131578 0.00442473 -0.00215862)
(0.13378 0.000568246 -0.00744122)
(0.133399 -0.00767521 -0.00867511)
(0.137746 -0.0139966 -0.00592921)
(0.149009 -0.0127061 -0.00101168)
(0.154291 -0.00770004 0.00437118)
(0.145757 -0.00443749 0.00910854)
(0.132033 -0.00275404 0.0124239)
(0.12398 -0.00102958 0.0126934)
(0.124285 0.00139523 0.00852247)
(0.128503 0.00424248 0.00147707)
(0.130993 0.00557479 -0.00475257)
(0.131016 0.00393071 -0.00789447)
(0.131542 0.0010448 -0.00886992)
(0.133664 -6.03666e-05 -0.00884649)
(0.135824 0.00105691 -0.00679576)
(0.136798 0.0012598 -0.00213006)
(0.137404 -0.00146554 0.00190341)
(0.141185 -0.00338999 0.000940409)
(0.148905 -0.00101697 -0.00492527)
(0.154546 0.00155826 -0.0121709)
(0.156145 0.000288804 -0.0140004)
(0.157434 -0.00333631 -0.0168573)
(0.157711 -0.00661562 -0.0167761)
(0.160724 -0.00835173 -0.0150401)
(0.161176 -0.00953349 -0.0135129)
(0.15473 -0.00906774 -0.0106192)
(0.146471 -0.00537505 -0.00475901)
(0.141695 -6.88193e-05 0.00135147)
(0.140411 0.00283727 0.00440899)
(0.141196 0.00103318 0.00466083)
(0.143347 -0.00300167 0.00457866)
(0.146653 -0.00500974 0.0057498)
(0.149156 -0.00452116 0.00642744)
(0.147386 -0.00408718 0.00411941)
(0.140416 -0.00423444 0.000122704)
(0.131865 -0.00334454 -0.00191045)
(0.126352 -0.00133671 -0.00102722)
(0.125604 0.00033146 0.000370304)
(0.129331 0.00171644 -0.000548883)
(0.135052 0.00302719 -0.00423648)
(0.138996 0.00206452 -0.00797187)
(0.140503 -0.00383496 -0.00861675)
(0.142793 -0.0119086 -0.00520248)
(0.149296 -0.0147349 0.000413615)
(0.154258 -0.0102136 0.00533617)
(0.148769 -0.00414721 0.0089699)
(0.136574 -0.000409494 0.0119354)
(0.127603 0.00155919 0.0127223)
(0.125436 0.00323189 0.00939195)
(0.126455 0.00510124 0.0038065)
(0.126345 0.00582391 -9.38625e-05)
(0.125432 0.00385866 -0.00119958)
(0.126536 0.000405598 -0.00211038)
(0.130678 -0.001209 -0.00375925)
(0.135739 6.91923e-05 -0.00317016)
(0.138346 0.00107267 0.00115264)
(0.137965 -0.0004988 0.00484271)
(0.137759 -0.00244283 0.00313175)
(0.141726 -0.00139204 -0.00288414)
(0.149644 0.000935608 -0.00917577)
(0.152732 0.000528673 -0.00982057)
(0.158454 -0.00144933 -0.0123455)
(0.161533 -0.00337625 -0.0134433)
(0.165544 -0.00503929 -0.0135402)
(0.16737 -0.00690924 -0.0138359)
(0.161462 -0.00743702 -0.0130558)
(0.151168 -0.00469297 -0.00846811)
(0.143666 0.000209916 -0.00140811)
(0.141194 0.00350533 0.00390246)
(0.142005 0.00253477 0.00588428)
(0.143829 -0.00120213 0.00588312)
(0.145577 -0.00386361 0.0058174)
(0.146215 -0.00414845 0.00606085)
(0.144132 -0.00349533 0.00499459)
(0.139372 -0.00271947 0.00182624)
(0.134597 -0.00131954 -0.00181609)
(0.132563 0.000151496 -0.00346687)
(0.13314 0.000317303 -0.00237091)
(0.135261 -3.74516e-05 -0.00086462)
(0.138417 0.000761147 -0.00197056)
(0.140764 0.00158037 -0.0047652)
(0.141871 -0.000937271 -0.005749)
(0.143734 -0.00757617 -0.00375944)
(0.148109 -0.0129572 0.000320214)
(0.152674 -0.0111457 0.00477692)
(0.150861 -0.00437572 0.00823378)
(0.142416 0.00153964 0.0105491)
(0.133767 0.00481153 0.0113984)
(0.128319 0.00593987 0.0097513)
(0.124863 0.00598037 0.00657313)
(0.122479 0.00513274 0.00411585)
(0.122354 0.00254629 0.00331016)
(0.125187 -0.00134739 0.00261814)
(0.130017 -0.00391137 0.000950795)
(0.134978 -0.00302758 0.00020895)
(0.137628 -0.000288933 0.00260002)
(0.137378 0.00114902 0.00594978)
(0.136434 0.000685142 0.00538803)
(0.138017 0.000537874 0.000135718)
(0.144234 0.00114967 -0.00575199)
(0.149597 0.00142822 -0.00589024)
(0.156255 -0.00042303 -0.00892737)
(0.161708 -0.00132294 -0.010592)
(0.167175 -0.00227496 -0.0112205)
(0.170008 -0.00406085 -0.0122382)
(0.165577 -0.00483044 -0.0134873)
(0.156007 -0.00256418 -0.0117497)
(0.147757 0.00150399 -0.00570873)
(0.143576 0.00390084 0.0010972)
(0.1423 0.00285626 0.00509765)
(0.14222 -2.96385e-05 0.00608544)
(0.142518 -0.00199074 0.00604522)
(0.142339 -0.00217121 0.00609993)
(0.140837 -0.00178739 0.00521008)
(0.138755 -0.00131834 0.00251235)
(0.138188 -0.000413928 -0.00080726)
(0.13998 6.87261e-05 -0.0026077)
(0.141734 -0.00113056 -0.00181386)
(0.141127 -0.00282225 0.000383446)
(0.139229 -0.00207139 0.00140047)
(0.138051 0.000598579 0.000954155)
(0.139122 0.000664283 0.00109003)
(0.142705 -0.00449594 0.00257777)
(0.147213 -0.0107449 0.00487274)
(0.150559 -0.0109848 0.00657297)
(0.149386 -0.00438215 0.00739851)
(0.142893 0.00328974 0.00864353)
(0.1349 0.00745938 0.00959725)
(0.128441 0.00759369 0.00886257)
(0.123833 0.00605699 0.00726384)
(0.12136 0.00480411 0.00670914)
(0.121976 0.0033912 0.00718188)
(0.12534 0.000771194 0.00682665)
(0.130003 -0.00222092 0.00506047)
(0.13424 -0.00287447 0.0037803)
(0.136389 -0.000298163 0.00482115)
(0.136569 0.00273665 0.00696164)
(0.136652 0.00396866 0.00697665)
(0.138292 0.00398194 0.00340089)
(0.142718 0.00324868 -0.00160521)
(0.147096 0.00123202 -0.00267305)
(0.153299 -0.00165682 -0.00667154)
(0.159914 -0.00229769 -0.00871837)
(0.165738 -0.00112419 -0.00949275)
(0.168222 -0.000474837 -0.0103644)
(0.165731 -0.000913511 -0.0118172)
(0.160399 -0.000211101 -0.0121757)
(0.155627 0.00244441 -0.00918401)
(0.152068 0.00439761 -0.00381455)
(0.148435 0.00344812 0.000792483)
(0.144281 0.00079701 0.0031281)
(0.140765 -0.00130723 0.00412843)
(0.139107 -0.0019937 0.00496902)
(0.139517 -0.00176311 0.00541233)
(0.142106 -0.0010187 0.00446356)
(0.146774 -5.41556e-05 0.00230131)
(0.15171 0.000114861 0.000148655)
(0.152907 -0.00127539 -6.6697e-05)
(0.148653 -0.00283838 0.00294702)
(0.142608 -0.00198954 0.00700024)
(0.13929 0.0012318 0.00801575)
(0.140081 0.00309104 0.00491918)
(0.143503 2.82463e-05 0.00131359)
(0.147358 -0.00638309 0.00186389)
(0.149792 -0.00897931 0.00548934)
(0.148379 -0.00372139 0.00712219)
(0.142269 0.00494921 0.00677)
(0.134516 0.0103735 0.00684133)
(0.128609 0.010923 0.00730601)
(0.125538 0.0087957 0.00701399)
(0.124773 0.00641504 0.00595418)
(0.125777 0.00450444 0.00494587)
(0.128025 0.00258809 0.00454089)
(0.13101 0.000722592 0.00440663)
(0.134553 0.000136794 0.00421586)
(0.137771 0.00168453 0.00479931)
(0.139497 0.00411027 0.00642986)
(0.139823 0.00559602 0.00758638)
(0.140258 0.00564615 0.00630877)
(0.142474 0.00420351 0.00233825)
(0.146022 0.000516836 0.000801365)
(0.151625 -0.00367526 -0.00423577)
(0.157239 -0.0057665 -0.00758648)
(0.16245 -0.00432243 -0.00857861)
(0.165351 -0.00114613 -0.00856653)
(0.163822 0.0011186 -0.008933)
(0.159077 0.00229069 -0.00945374)
(0.154915 0.00365822 -0.00871921)
(0.153344 0.00495251 -0.00626773)
(0.15302 0.00475563 -0.00323008)
(0.151465 0.00296837 -0.000872612)
(0.147844 0.000543135 0.000761529)
(0.143705 -0.00225239 0.00235599)
(0.141153 -0.00536877 0.00406228)
(0.141911 -0.0079459 0.00524638)
(0.146789 -0.00858031 0.00505194)
(0.153636 -0.00700775 0.00327644)
(0.15697 -0.00460175 0.00151168)
(0.153481 -0.00244493 0.00237081)
(0.146589 5.13391e-05 0.00528262)
(0.141567 0.00349642 0.00595369)
(0.139933 0.00604579 0.00214584)
(0.140451 0.00484457 -0.00329519)
(0.142646 -0.000442385 -0.00484067)
(0.145721 -0.00559962 -0.000827937)
(0.146675 -0.00483539 0.00393462)
(0.143811 0.00217851 0.00582724)
(0.1394 0.00970473 0.00588058)
(0.136708 0.0133232 0.00504446)
(0.136433 0.0128249 0.00294463)
(0.13691 0.0102747 0.000289506)
(0.136837 0.00733986 -0.00119947)
(0.136505 0.00463611 -0.00060447)
(0.136571 0.00269671 0.00140643)
(0.137226 0.00213815 0.00335824)
(0.138049 0.00290666 0.00469483)
(0.1384 0.00403667 0.00587303)
(0.138236 0.00471361 0.00695425)
(0.138729 0.00476846 0.0070937)
(0.14131 0.00365628 0.00512614)
(0.14741 -0.00367278 0.0066782)
(0.153793 -0.00506102 0.000329618)
(0.157476 -0.0046321 -0.00513211)
(0.157153 -0.00183797 -0.00815153)
(0.153874 0.0019451 -0.00903855)
(0.149706 0.0046056 -0.00868352)
(0.146372 0.00534364 -0.0078194)
(0.144653 0.00482875 -0.00713168)
(0.144673 0.00386159 -0.00689232)
(0.146442 0.00264894 -0.00654383)
(0.149674 0.00138623 -0.00533896)
(0.153093 0.000340199 -0.00328248)
(0.15483 -0.000780629 -0.00105243)
(0.153848 -0.00288521 0.000982261)
(0.151215 -0.00617368 0.00333689)
(0.149533 -0.00934639 0.00607093)
(0.1505 -0.0106669 0.00792603)
(0.152503 -0.00899987 0.00766606)
(0.15198 -0.00447149 0.0059599)
(0.148238 0.000899633 0.00431517)
(0.143805 0.00456702 0.00267105)
(0.140836 0.00499356 2.19832e-06)
(0.139993 0.00220365 -0.00330496)
(0.141433 -0.00201602 -0.00455048)
(0.144487 -0.00515329 -0.00165591)
(0.146786 -0.0047136 0.00344858)
(0.146553 6.67323e-06 0.00717059)
(0.145428 0.00628014 0.00764779)
(0.145725 0.0106673 0.00482029)
(0.147007 0.0120195 -0.000419703)
(0.147495 0.0108294 -0.00584869)
(0.1467 0.00780819 -0.00912412)
(0.145255 0.00420921 -0.00900513)
(0.143775 0.00210334 -0.00577781)
(0.142574 0.00253562 -0.000998287)
(0.141431 0.00421385 0.00361109)
(0.139844 0.00487699 0.00728001)
(0.138253 0.00346475 0.010138)
(0.138304 0.000900385 0.0118429)
(0.141439 -0.00158206 0.0109862)
(0.153129 -0.00285945 0.0123688)
(0.154917 -0.00262082 0.0098406)
(0.15805 -0.000851813 0.00507171)
(0.16105 0.00276901 -0.000153701)
(0.161833 0.00685056 -0.00465837)
(0.159565 0.00918184 -0.00796216)
(0.155279 0.00882206 -0.00983726)