/*--------------------------------*- C++ -*----------------------------------*\
| =========                 |                                                 |
| \\      /  F ield         | OpenFOAM: The Open Source CFD Toolbox           |
|  \\    /   O peration     | Version:  2306                                  |
|   \\  /    A nd           | Website:  www.openfoam.com                      |
|    \\/     M anipulation  |                                                 |
\*---------------------------------------------------------------------------*/
FoamFile
{
    version     2.0;
    format      ascii;
    arch        "LSB;label=32;scalar=64";
    class       volVectorField;
    location    "2.5";
    object      UMean;
}
// * * * * * * * * * * * * * * * * * * * * * * * * * * * * * * * * * * * * * //

dimensions      [0 1 -1 0 0 0 0];

internalField   nonuniform List<vector> 
60000
(
(0.0104778 1.05735e-05 0.00249594)
(0.0104141 -1.0038e-05 0.00225927)
(0.010276 -1.7506e-05 0.00199579)
(0.0101275 -1.50124e-05 0.00182899)
(0.00995633 -1.18054e-05 0.00169643)
(0.00964677 -1.10956e-05 0.0014904)
(0.00909039 -1.08307e-05 0.00123566)
(0.00825544 -1.0643e-05 0.00105294)
(0.00727685 -1.26544e-05 0.00101461)
(0.00643623 -1.78743e-05 0.00109491)
(0.00594114 -2.30405e-05 0.00120699)
(0.00579629 -2.47508e-05 0.00123525)
(0.00585743 -2.44619e-05 0.00108887)
(0.00597976 -2.09079e-05 0.000786344)
(0.00610556 -1.16955e-05 0.000456675)
(0.00623913 7.59324e-09 0.000184865)
(0.00643679 1.13954e-05 -3.11039e-05)
(0.00672939 1.84584e-05 -0.000242893)
(0.00708005 2.0455e-05 -0.000509504)
(0.00746362 1.85249e-05 -0.000874011)
(0.00791502 1.3876e-05 -0.00133605)
(0.00845011 7.02277e-06 -0.00182958)
(0.00899131 1.44346e-06 -0.00224552)
(0.0093669 -1.84688e-06 -0.00248621)
(0.00937783 -3.96401e-06 -0.00252148)
(0.00894503 -1.58052e-06 -0.00242594)
(0.00821017 1.12909e-06 -0.00229817)
(0.0074279 -3.60002e-07 -0.00217766)
(0.00678785 -5.01704e-06 -0.00209663)
(0.00638477 -4.59357e-06 -0.00206479)
(0.00626435 2.10113e-06 -0.00197549)
(0.00642166 1.00936e-05 -0.00165516)
(0.00680605 2.13753e-05 -0.00104478)
(0.00733815 3.49879e-05 -0.000315126)
(0.007947 4.79831e-05 0.000297694)
(0.00858761 5.41088e-05 0.000750225)
(0.00921526 5.73003e-05 0.00117122)
(0.00976662 5.86753e-05 0.0016694)
(0.0101741 5.4083e-05 0.00218304)
(0.0104081 3.64153e-05 0.00249994)
(0.0323204 -3.90867e-05 0.006347)
(0.0321638 -0.000139509 0.00563611)
(0.0316596 -0.000166384 0.00497656)
(0.0311161 -0.000140092 0.00468174)
(0.0305468 -9.43012e-05 0.00451419)
(0.0295902 -4.79876e-05 0.00409408)
(0.027937 -1.42166e-05 0.00344151)
(0.0255526 -1.49309e-05 0.0029191)
(0.0228146 -7.12028e-05 0.0027932)
(0.0203875 -0.000165274 0.00301386)
(0.018762 -0.000239136 0.00328579)
(0.018007 -0.000258772 0.00325102)
(0.0178298 -0.000234288 0.00275021)
(0.0179087 -0.000176175 0.00195327)
(0.0181279 -9.34557e-05 0.00117666)
(0.018497 -1.22322e-05 0.000546958)
(0.019126 4.2996e-05 7.22236e-06)
(0.0200694 6.39321e-05 -0.000573656)
(0.0212407 5.66238e-05 -0.00133034)
(0.0225851 2.48303e-05 -0.00235654)
(0.0241592 -2.12826e-05 -0.00364083)
(0.0259169 -5.83124e-05 -0.0050006)
(0.0275928 -6.54798e-05 -0.00612049)
(0.028744 -4.66832e-05 -0.0067082)
(0.0288644 -2.22866e-05 -0.0066753)
(0.0277428 -6.51929e-06 -0.00625523)
(0.0257369 -2.03832e-05 -0.00579282)
(0.0234684 -6.74492e-05 -0.00547962)
(0.0214044 -0.000120361 -0.00539521)
(0.0198542 -0.000134045 -0.00545489)
(0.0191112 -9.36555e-05 -0.00527169)
(0.0193137 -1.36057e-05 -0.00436923)
(0.0203314 9.72255e-05 -0.00268358)
(0.021871 0.000217362 -0.000736524)
(0.0236884 0.000315012 0.000905092)
(0.0256399 0.000356065 0.00218127)
(0.0275869 0.000351005 0.00337422)
(0.0293818 0.000313099 0.00467319)
(0.0308687 0.000235874 0.00589182)
(0.031891 0.00010705 0.00653047)
(0.0553418 -0.000230876 0.00944397)
(0.0551221 -0.000429311 0.00829899)
(0.0541614 -0.00046307 0.00716462)
(0.0531269 -0.000387586 0.00670683)
(0.0521689 -0.000270621 0.00666621)
(0.050738 -0.000150331 0.00631644)
(0.0483375 -6.24075e-05 0.00544792)
(0.044849 -6.21063e-05 0.00455254)
(0.0406317 -0.000196259 0.00419765)
(0.0364675 -0.000421058 0.00447843)
(0.0331787 -0.000597207 0.00494493)
(0.0312045 -0.000643653 0.00493897)
(0.0303241 -0.000580264 0.00419783)
(0.0300476 -0.000433963 0.00305548)
(0.0301582 -0.000235501 0.00199937)
(0.03065 -4.65428e-05 0.00117178)
(0.0316595 6.77053e-05 0.00045726)
(0.0332447 9.28912e-05 -0.000334231)
(0.0352777 5.06044e-05 -0.00139729)
(0.0376756 -5.22767e-05 -0.00288847)
(0.0405058 -0.000184816 -0.00484048)
(0.0436456 -0.000277071 -0.00703146)
(0.0466584 -0.000284442 -0.00896749)
(0.0488973 -0.000226882 -0.0100899)
(0.0495993 -0.000155314 -0.0101209)
(0.0483314 -0.000111411 -0.00935498)
(0.0454624 -0.000136119 -0.00841601)
(0.0418278 -0.000229922 -0.00777925)
(0.0381357 -0.000332383 -0.00768748)
(0.0349248 -0.000357129 -0.0080442)
(0.0328292 -0.000269778 -0.0081887)
(0.0323583 -8.47511e-05 -0.00721428)
(0.0335416 0.000178103 -0.00486688)
(0.0359238 0.000468136 -0.00191519)
(0.0389833 0.00070137 0.000711016)
(0.0423899 0.000800342 0.00281694)
(0.0458888 0.000772392 0.00474362)
(0.0492544 0.000644648 0.00675354)
(0.0522012 0.000416728 0.00863227)
(0.0543516 9.5588e-05 0.00967462)
(0.0786738 -0.000560773 0.0119083)
(0.0784644 -0.000850936 0.0105797)
(0.0769821 -0.000874312 0.00881665)
(0.0753752 -0.000730384 0.00788405)
(0.0740917 -0.000522664 0.00793257)
(0.0724961 -0.000304638 0.00797824)
(0.0699156 -0.000133429 0.00724568)
(0.0660729 -0.000100461 0.00602108)
(0.0610251 -0.000292149 0.00521053)
(0.0552373 -0.00066144 0.00537401)
(0.0497269 -0.000993026 0.00612479)
(0.0456654 -0.0011222 0.0064011)
(0.0433452 -0.00104741 0.00561022)
(0.0422306 -0.00081195 0.00421466)
(0.0419063 -0.000480856 0.00298281)
(0.0422696 -0.000165428 0.00213319)
(0.0434437 1.82642e-05 0.00148654)
(0.0454707 3.3878e-05 0.000787646)
(0.0481984 -8.06491e-05 -0.000220777)
(0.0515405 -0.000309715 -0.00178925)
(0.0556183 -0.000593227 -0.00409189)
(0.0602689 -0.000782394 -0.00702342)
(0.064904 -0.000783643 -0.0100228)
(0.0687196 -0.000644027 -0.0122003)
(0.0707333 -0.000466271 -0.0128424)
(0.0701863 -0.000334887 -0.0120329)
(0.0672165 -0.000333106 -0.0105856)
(0.0626827 -0.000454211 -0.0093664)
(0.0574859 -0.000595117 -0.0089793)
(0.0523281 -0.000636694 -0.00958079)
(0.0480875 -0.00053586 -0.0104666)
(0.0457763 -0.000294696 -0.0102424)
(0.0460301 9.12816e-05 -0.00807609)
(0.0486346 0.00056395 -0.00463243)
(0.0527863 0.000974396 -0.00119492)
(0.0577765 0.00116753 0.00172601)
(0.0630858 0.00113258 0.00440163)
(0.0683803 0.000904952 0.00715538)
(0.0732022 0.000501031 0.00985718)
(0.0768694 -4.0884e-05 0.0116994)
(0.100719 -0.00101053 0.0132187)
(0.100688 -0.00134989 0.0125443)
(0.0986409 -0.00134087 0.0103787)
(0.0964003 -0.001114 0.00854676)
(0.0949043 -0.00080733 0.00824856)
(0.093513 -0.000491369 0.00880919)
(0.0913713 -0.000228984 0.00873025)
(0.0880607 -0.000128865 0.00748868)
(0.0832609 -0.000306582 0.00602987)
(0.0766822 -0.000757097 0.00569804)
(0.068956 -0.0012602 0.00668777)
(0.0619952 -0.00156465 0.00759172)
(0.0572098 -0.00157043 0.00706263)
(0.0544925 -0.00129703 0.00544776)
(0.0532297 -0.000852476 0.0039953)
(0.0530504 -0.000414255 0.0032198)
(0.0539472 -0.000159313 0.00290338)
(0.0559012 -0.000165829 0.00268988)
(0.0587269 -0.000400346 0.00225392)
(0.0623915 -0.000847974 0.00125321)
(0.0672313 -0.00141568 -0.000709472)
(0.0732728 -0.00182099 -0.00389693)
(0.0798553 -0.00182891 -0.00800016)
(0.0859503 -0.00149686 -0.0119105)
(0.090284 -0.0010613 -0.0142048)
(0.0916488 -0.000722417 -0.0142542)
(0.0897169 -0.000617654 -0.0127243)
(0.0851708 -0.000723063 -0.0108432)
(0.0791111 -0.000864895 -0.00972443)
(0.0724043 -0.000891341 -0.0100652)
(0.0659187 -0.000791656 -0.0115658)
(0.0608384 -0.000589143 -0.0126816)
(0.0585155 -0.000232332 -0.0118321)
(0.0596759 0.000287139 -0.00900795)
(0.0638846 0.000813414 -0.0054736)
(0.0701217 0.0011024 -0.00207562)
(0.0773289 0.00109641 0.00125465)
(0.0848461 0.000836898 0.00478786)
(0.0919671 0.000339342 0.00850316)
(0.0976695 -0.000357451 0.0116779)
(0.118817 -0.00167012 0.0116245)
(0.119578 -0.00187576 0.0132297)
(0.116954 -0.00179434 0.0119853)
(0.113988 -0.0014969 0.0093946)
(0.112467 -0.00108274 0.00801268)
(0.111733 -0.000670838 0.00861595)
(0.110557 -0.000343532 0.00957613)
(0.108473 -0.00017138 0.00901876)
(0.105134 -0.000251595 0.0070467)
(0.0994249 -0.000640038 0.00569854)
(0.0907679 -0.00121775 0.00647524)
(0.08095 -0.00175603 0.00820903)
(0.0727085 -0.00199589 0.00846053)
(0.067254 -0.00181034 0.00680477)
(0.0642876 -0.00131427 0.00493938)
(0.0630581 -0.000774945 0.00406205)
(0.0631576 -0.000454714 0.00409747)
(0.0643322 -0.000487775 0.00456368)
(0.0662562 -0.000889437 0.00506669)
(0.0688789 -0.00169275 0.00526218)
(0.0728738 -0.00277782 0.00462109)
(0.0789676 -0.00367037 0.00242179)
(0.0870198 -0.00389566 -0.00173234)
(0.0961054 -0.00337843 -0.00724597)
(0.104429 -0.00239799 -0.0122855)
(0.109602 -0.00147351 -0.014839)
(0.110344 -0.0010337 -0.0145285)
(0.107042 -0.00105105 -0.0125911)
(0.101141 -0.00115762 -0.0106494)
(0.0939429 -0.00109074 -0.01007)
(0.0863051 -0.000914187 -0.0113606)
(0.0789975 -0.000754994 -0.0134791)
(0.073346 -0.000572815 -0.0145707)
(0.0710108 -0.000266411 -0.0137427)
(0.0727984 8.12059e-05 -0.0115489)
(0.0783614 0.000272573 -0.00873304)
(0.086309 0.000237951 -0.00541074)
(0.0954582 -3.39584e-05 -0.00150691)
(0.104923 -0.000522706 0.00299815)
(0.113431 -0.00114666 0.0077317)
(0.128379 -0.00305812 0.00518767)
(0.132097 -0.00258932 0.0103777)
(0.129494 -0.00211309 0.0123902)
(0.12524 -0.00183762 0.0107612)
(0.123779 -0.0014258 0.008163)
(0.124479 -0.000857748 0.00771038)
(0.124861 -0.000441271 0.00931525)
(0.124147 -0.000283014 0.0102354)
(0.122917 -0.000268061 0.00855502)
(0.12001 -0.000391118 0.00595515)
(0.113153 -0.000804987 0.0056542)
(0.102489 -0.00146748 0.00785276)
(0.0909381 -0.00205165 0.00938459)
(0.0815634 -0.00215148 0.00827942)
(0.0756843 -0.00174168 0.00602376)
(0.0727745 -0.00115375 0.004676)
(0.0718101 -0.000763021 0.00465531)
(0.0719728 -0.000794367 0.00541868)
(0.0725896 -0.00137059 0.00648092)
(0.0733729 -0.00265902 0.00767826)
(0.075025 -0.00452681 0.00874329)
(0.078997 -0.00618337 0.00874583)
(0.086055 -0.00683771 0.00648869)
(0.0960146 -0.00634596 0.00152713)
(0.107998 -0.00493328 -0.00518124)
(0.118954 -0.00314053 -0.0111789)
(0.12485 -0.00189751 -0.0141107)
(0.124512 -0.00158432 -0.0138399)
(0.119951 -0.00160259 -0.011968)
(0.113556 -0.00132743 -0.010371)
(0.106572 -0.000853473 -0.0104957)
(0.0992089 -0.000597444 -0.012384)
(0.091851 -0.000560341 -0.0147518)
(0.0859361 -0.000589462 -0.0164623)
(0.0833594 -0.000779931 -0.0171209)
(0.0854018 -0.00112952 -0.0164425)
(0.0914577 -0.00146501 -0.0142057)
(0.0997607 -0.00185278 -0.0107308)
(0.109121 -0.00240622 -0.0063449)
(0.119314 -0.00296051 -0.00095998)
(0.128738 -0.00552025 -0.0034533)
(0.136366 -0.00401071 0.00413328)
(0.136347 -0.0023462 0.00979233)
(0.130636 -0.0018027 0.011203)
(0.127258 -0.00179428 0.00897886)
(0.129308 -0.00130806 0.00693898)
(0.132563 -0.000594643 0.00778699)
(0.133009 -0.00035994 0.0099903)
(0.13204 -0.000556455 0.00993264)
(0.132332 -0.000568478 0.00689622)
(0.130887 -0.000405232 0.0048657)
(0.123916 -0.000705152 0.00653393)
(0.112045 -0.00146707 0.00926058)
(0.0989917 -0.00199545 0.00945933)
(0.0887713 -0.00191443 0.00744692)
(0.0829682 -0.00144072 0.00564702)
(0.0807004 -0.00101805 0.00513472)
(0.0803693 -0.000987848 0.00550803)
(0.0806742 -0.00162691 0.00628636)
(0.0808565 -0.00327906 0.00756737)
(0.0808912 -0.00589463 0.00963799)
(0.0819357 -0.00844671 0.0119222)
(0.0857466 -0.00971854 0.012607)
(0.0933879 -0.00944786 0.0100558)
(0.10506 -0.00791432 0.00420524)
(0.119035 -0.0055296 -0.00329642)
(0.129989 -0.00336612 -0.00953495)
(0.133071 -0.00241913 -0.0124231)
(0.129219 -0.00228392 -0.0122464)
(0.123349 -0.00194583 -0.0106007)
(0.11908 -0.00117243 -0.009305)
(0.115692 -0.000402665 -0.00975279)
(0.110838 -2.82987e-05 -0.0119897)
(0.104397 -0.000123671 -0.0153549)
(0.0984607 -0.000903054 -0.0191921)
(0.0957427 -0.00224362 -0.022044)
(0.0977048 -0.00337531 -0.0222319)
(0.103349 -0.00406529 -0.0197199)
(0.11045 -0.00476854 -0.0156294)
(0.118723 -0.00558372 -0.0103314)
(0.127728 -0.00834662 -0.00977105)
(0.136236 -0.00635757 -0.00168352)
(0.139944 -0.00312829 0.00556391)
(0.135805 -0.00139127 0.00936394)
(0.129406 -0.00167732 0.00874072)
(0.128853 -0.00195632 0.00618729)
(0.134053 -0.00111528 0.00553993)
(0.137799 -0.000310707 0.00756458)
(0.136103 -0.000688679 0.00921121)
(0.133717 -0.00150612 0.00754458)
(0.135694 -0.00137098 0.00456664)
(0.137495 -0.000683094 0.0048601)
(0.132183 -0.000620085 0.00798426)
(0.119627 -0.00111354 0.00971611)
(0.105475 -0.00143975 0.00879416)
(0.0951872 -0.00139045 0.00723862)
(0.0903676 -0.00121623 0.0064517)
(0.0895622 -0.00123519 0.00622511)
(0.0906025 -0.00182775 0.0062138)
(0.0917567 -0.00350373 0.00680755)
(0.0919486 -0.00639915 0.00874843)
(0.0913149 -0.00956771 0.0120429)
(0.0916679 -0.0115557 0.0150414)
(0.0952825 -0.011809 0.0153156)
(0.103747 -0.0105449 0.0114825)
(0.116628 -0.00804296 0.00422425)
(0.129115 -0.00508653 -0.00373239)
(0.133694 -0.00300687 -0.00907071)
(0.128085 -0.00218601 -0.0103861)
(0.118606 -0.0019226 -0.00865726)
(0.11357 -0.00157522 -0.00609819)
(0.115458 -0.000864235 -0.00483996)
(0.119361 0.000118553 -0.0061032)
(0.119456 0.000783453 -0.0100688)
(0.115267 0.00012579 -0.0161296)
(0.110224 -0.00208328 -0.0224438)
(0.107788 -0.00447205 -0.0261377)
(0.10957 -0.00589991 -0.025722)
(0.114314 -0.00682484 -0.0221351)
(0.120137 -0.00797129 -0.0167487)
(0.128969 -0.0105876 -0.0136006)
(0.135898 -0.00907689 -0.00587422)
(0.141662 -0.00496344 0.00126344)
(0.141419 -0.00147811 0.00602675)
(0.135248 -0.000977889 0.00696672)
(0.130086 -0.00208065 0.00495304)
(0.13198 -0.00207997 0.00330707)
(0.138287 -0.00072373 0.00437155)
(0.140815 -0.00023008 0.00673771)
(0.137164 -0.00174944 0.00701223)
(0.134457 -0.00342873 0.0047535)
(0.138533 -0.00316809 0.00388395)
(0.143035 -0.00159545 0.00635699)
(0.138393 -0.000460948 0.00898022)
(0.125176 -0.000264372 0.00933018)
(0.111178 -0.000551259 0.00863845)
(0.102227 -0.001005 0.00835149)
(0.0992912 -0.00155363 0.00821163)
(0.100537 -0.00234206 0.00763805)
(0.103323 -0.00386096 0.00704431)
(0.104981 -0.00651986 0.00771097)
(0.104111 -0.00972498 0.0105922)
(0.102056 -0.0121377 0.0146267)
(0.101851 -0.0129954 0.0170199)
(0.106015 -0.0123077 0.0153841)
(0.115192 -0.0101253 0.00920282)
(0.125868 -0.00668738 0.000611332)
(0.130616 -0.00322822 -0.00629276)
(0.125157 -0.00101813 -0.00860301)
(0.113743 -0.000492661 -0.00634876)
(0.105803 -0.00112334 -0.00200957)
(0.10699 -0.00151375 0.00140513)
(0.115201 -0.000545319 0.00181854)
(0.123437 0.0011624 -0.00170052)
(0.126312 0.0015488 -0.00880982)
(0.124238 -0.000574744 -0.0174827)
(0.120663 -0.00395747 -0.0244268)
(0.118744 -0.00649456 -0.0270991)
(0.120072 -0.00799435 -0.0252926)
(0.123714 -0.00951637 -0.0204093)
(0.131267 -0.0117352 -0.016284)
(0.13654 -0.0113913 -0.00899598)
(0.142193 -0.0076512 -0.00258011)
(0.1449 -0.00294731 0.00202603)
(0.142018 -0.000711701 0.00415256)
(0.135587 -0.00142547 0.00346942)
(0.13196 -0.00246496 0.00180859)
(0.135028 -0.00180031 0.0018754)
(0.141223 -0.000459763 0.00400927)
(0.143124 -0.00103718 0.00567239)
(0.13961 -0.00377216 0.00494258)
(0.138256 -0.00586459 0.00386212)
(0.143482 -0.00497207 0.00534864)
(0.147481 -0.00201648 0.00800739)
(0.141807 0.000398105 0.00907524)
(0.129102 0.00104108 0.00902354)
(0.117185 0.000259489 0.00944219)
(0.110572 -0.00129353 0.0100854)
(0.10996 -0.00308925 0.00972314)
(0.113673 -0.00491056 0.00813325)
(0.117775 -0.00702133 0.00684138)
(0.118339 -0.00950985 0.00811303)
(0.115098 -0.0116905 0.0121303)
(0.111477 -0.0128433 0.0160138)
(0.111034 -0.0127084 0.0165129)
(0.115333 -0.0110357 0.0121232)
(0.122555 -0.00755944 0.00404231)
(0.127046 -0.00317404 -0.00376529)
(0.124005 0.000364232 -0.00742716)
(0.115057 0.00159653 -0.00589217)
(0.106725 0.000410563 -0.000877644)
(0.10488 -0.00136057 0.00439371)
(0.110746 -0.00133352 0.00703458)
(0.120736 0.000756728 0.00552565)
(0.129271 0.00244237 -0.000445339)
(0.133071 0.00134146 -0.00950119)
(0.132707 -0.00211312 -0.0185281)
(0.130155 -0.00544647 -0.0243633)
(0.128 -0.00770113 -0.025548)
(0.128194 -0.0098001 -0.0224324)
(0.1348 -0.011591 -0.0184387)
(0.138678 -0.0126147 -0.0117373)
(0.143226 -0.0102345 -0.00571436)
(0.146007 -0.00559284 -0.00149587)
(0.145425 -0.00186261 0.00120507)
(0.141031 -0.000971583 0.0020186)
(0.135392 -0.00189773 0.00115955)
(0.133567 -0.00240095 0.000712705)
(0.137872 -0.0017572 0.0021462)
(0.14385 -0.00160323 0.00421317)
(0.144904 -0.00360456 0.00465033)
(0.14201 -0.0066351 0.00384139)
(0.142254 -0.00758521 0.00448183)
(0.147065 -0.00500214 0.0067762)
(0.14887 -0.00083064 0.00822698)
(0.142611 0.00198431 0.00845643)
(0.131983 0.00224386 0.00909203)
(0.122978 0.000297056 0.0100959)
(0.119155 -0.00296386 0.0097784)
(0.121808 -0.00617104 0.00742748)
(0.128175 -0.00822838 0.00456765)
(0.132016 -0.00950607 0.00423041)
(0.129739 -0.0106947 0.00781376)
(0.123802 -0.0115762 0.0127952)
(0.11883 -0.0115943 0.015386)
(0.117796 -0.0103278 0.0134256)
(0.120804 -0.00736275 0.00704646)
(0.124429 -0.00293123 -0.000901927)
(0.12412 0.00133077 -0.00634087)
(0.119119 0.00327039 -0.00691565)
(0.113148 0.00216163 -0.00324438)
(0.110245 -0.000303178 0.00209367)
(0.11226 -0.00130712 0.00634476)
(0.118955 0.000223034 0.00758591)
(0.127948 0.00240186 0.00470137)
(0.135997 0.0024956 -0.00221934)
(0.140755 -9.63288e-05 -0.0111522)
(0.140921 -0.00336637 -0.0189833)
(0.137581 -0.00604455 -0.0232244)
(0.134456 -0.00877249 -0.0229253)
(0.140369 -0.0106537 -0.0194889)
(0.1427 -0.0128834 -0.0140886)
(0.145698 -0.0119409 -0.00849193)
(0.146504 -0.00827525 -0.00433061)
(0.145386 -0.00398422 -0.00107809)
(0.142933 -0.00132202 0.00109576)
(0.139111 -0.00102184 0.00136341)
(0.135945 -0.00204416 0.000764053)
(0.13711 -0.00286833 0.00137532)
(0.142335 -0.00327437 0.00326608)
(0.146066 -0.00447542 0.00433158)
(0.144834 -0.00695375 0.00362029)
(0.142491 -0.00873596 0.00320555)
(0.143597 -0.00743574 0.00468318)
(0.146129 -0.00314884 0.00669302)
(0.144544 0.00140728 0.00781584)
(0.137941 0.00363484 0.0084799)
(0.130314 0.00266696 0.00852961)
(0.125562 -0.00114643 0.00661746)
(0.126263 -0.00602887 0.00283886)
(0.132943 -0.00918828 -0.000734056)
(0.140641 -0.00978523 -0.00137182)
(0.142235 -0.00951606 0.00241037)
(0.136441 -0.00958005 0.00846934)
(0.128114 -0.00941043 0.012831)
(0.122392 -0.00811407 0.0131805)
(0.121374 -0.00552523 0.00916542)
(0.123428 -0.00168846 0.00223484)
(0.124782 0.00236539 -0.00452808)
(0.123279 0.00453728 -0.00800049)
(0.120371 0.0035973 -0.00709569)
(0.118538 0.00096746 -0.00330471)
(0.118779 -0.000591425 0.000942588)
(0.121486 0.000102803 0.00391638)
(0.127225 0.00163755 0.00431889)
(0.135618 0.00192336 0.00102884)
(0.144035 0.000514 -0.0056952)
(0.148105 -0.00145115 -0.0136048)
(0.146128 -0.00362995 -0.0196338)
(0.141892 -0.00685919 -0.0217678)
(0.147574 -0.00912526 -0.0194014)
(0.148391 -0.0120307 -0.0156774)
(0.149259 -0.0120171 -0.0112072)
(0.147624 -0.00952395 -0.00731398)
(0.144496 -0.00580846 -0.00326127)
(0.142098 -0.00233873 0.000517964)
(0.140338 -0.000604398 0.00206255)
(0.138758 -0.00113945 0.00150406)
(0.139158 -0.00296785 0.00139059)
(0.142711 -0.00441331 0.00301305)
(0.146593 -0.00525198 0.00449759)
(0.146686 -0.00660921 0.00374686)
(0.142963 -0.00827522 0.00210859)
(0.139094 -0.00808094 0.00253287)
(0.136825 -0.00488984 0.00522814)
(0.134569 -0.000311924 0.00792197)
(0.131578 0.00304591 0.00865304)
(0.129342 0.00367295 0.00642109)
(0.128526 0.000956634 0.00163735)
(0.129189 -0.00439097 -0.00330139)
(0.133637 -0.00934579 -0.00588511)
(0.142168 -0.0107186 -0.00522603)
(0.148291 -0.0092328 -0.0011403)
(0.145781 -0.00768982 0.00507074)
(0.136472 -0.00673928 0.0102577)
(0.12736 -0.00515044 0.0121626)
(0.123477 -0.00263573 0.0102136)
(0.124772 0.000389985 0.00484085)
(0.127767 0.00337601 -0.00214758)
(0.129152 0.00498891 -0.00784283)
(0.128869 0.00408828 -0.01002)
(0.128635 0.00177589 -0.00886814)
(0.128973 0.000446118 -0.00604618)
(0.12973 0.000687135 -0.00276046)
(0.131973 0.000903363 -7.92674e-05)
(0.13735 -4.69588e-06 7.02416e-05)
(0.145224 -0.00101697 -0.00360752)
(0.151387 -0.00115293 -0.0100449)
(0.152193 -0.00178154 -0.0163744)
(0.149374 -0.00477377 -0.0198966)
(0.15466 -0.00685473 -0.0179759)
(0.154684 -0.00977264 -0.0160397)
(0.154219 -0.0103669 -0.0130857)
(0.151186 -0.00920365 -0.00990271)
(0.146235 -0.00666824 -0.00558156)
(0.14223 -0.00318502 -0.000563988)
(0.140442 -0.000391553 0.00253722)
(0.140123 -5.6861e-05 0.00277755)
(0.141176 -0.00217587 0.0023954)
(0.143976 -0.00459919 0.00347474)
(0.147069 -0.00553912 0.00489378)
(0.14731 -0.00567815 0.00411839)
(0.142833 -0.00616602 0.00150708)
(0.135384 -0.00623705 0.000271866)
(0.128594 -0.00453524 0.00196861)
(0.124762 -0.00138201 0.00444261)
(0.124517 0.00159172 0.00460827)
(0.12732 0.00304474 0.00140299)
(0.131034 0.00195724 -0.00349052)
(0.133498 -0.00241467 -0.0068383)
(0.136256 -0.00850547 -0.00669505)
(0.14243 -0.0120448 -0.00381855)
(0.149249 -0.0108954 0.000494508)
(0.149696 -0.00759034 0.00555673)
(0.141806 -0.00486152 0.00980709)
(0.131541 -0.00261009 0.0115396)
(0.125743 -0.00012745 0.0102183)
(0.125831 0.00225231 0.00608284)
(0.128711 0.00399043 0.000260198)
(0.130778 0.00446186 -0.00497769)
(0.131425 0.00317423 -0.00773365)
(0.132443 0.00107761 -0.00819112)
(0.134529 9.26565e-05 -0.00724572)
(0.136693 0.000498779 -0.00485755)
(0.138322 0.000392316 -0.00157277)
(0.140454 -0.00116552 6.8691e-05)
(0.144581 -0.00231879 -0.00214543)
(0.150126 -0.00154318 -0.00751687)
(0.154187 -0.000789535 -0.013348)
(0.155126 -0.00285601 -0.0172097)
(0.159173 -0.00457899 -0.0152899)
(0.159908 -0.00688082 -0.0151145)
(0.159706 -0.00779397 -0.0138209)
(0.156903 -0.00775282 -0.0117845)
(0.150896 -0.00644495 -0.00819382)
(0.144674 -0.00338049 -0.00289237)
(0.141384 -4.75675e-05 0.00199612)
(0.141088 0.00107385 0.00428537)
(0.142444 -0.000717815 0.00441523)
(0.14462 -0.00352066 0.00444588)
(0.146655 -0.00490787 0.00505051)
(0.146844 -0.00467455 0.00471563)
(0.143491 -0.00414801 0.00237929)
(0.137004 -0.00361175 -0.000522484)
(0.130334 -0.00239446 -0.00185545)
(0.126654 -0.000627643 -0.00150601)
(0.127006 0.000871148 -0.00119944)
(0.130448 0.00174398 -0.0024599)
(0.135222 0.00156366 -0.00515536)
(0.139204 -0.00113299 -0.00707774)
(0.142068 -0.00665452 -0.00608182)
(0.145835 -0.011747 -0.00244803)
(0.150087 -0.012315 0.00206142)
(0.15065 -0.00864144 0.00632469)
(0.144664 -0.00398942 0.00976144)
(0.135207 -0.000434038 0.0115936)
(0.128148 0.00199836 0.0110173)
(0.125686 0.00368218 0.00791146)
(0.125809 0.00466296 0.0036268)
(0.12604 0.00451116 0.000284502)
(0.126374 0.00277768 -0.0012382)
(0.128425 0.000324731 -0.00195066)
(0.132356 -0.000911228 -0.00234215)
(0.136369 -0.000323445 -0.00104914)
(0.138618 0.000189002 0.00180098)
(0.139232 -0.000759031 0.00306719)
(0.140554 -0.00185745 0.000362914)
(0.144731 -0.00155912 -0.00500201)
(0.151123 -0.000819736 -0.0101875)
(0.15659 -0.00185209 -0.0136954)
(0.159907 -0.0025298 -0.0116443)
(0.163149 -0.00393793 -0.0127151)
(0.164544 -0.0048554 -0.0131104)
(0.162599 -0.00546008 -0.0127534)
(0.156246 -0.00501553 -0.0105964)
(0.14826 -0.00264155 -0.00582967)
(0.142951 0.000552144 6.58134e-05)
(0.141695 0.00201289 0.00427758)
(0.14285 0.000613463 0.00562918)
(0.144427 -0.00216098 0.00545837)
(0.145268 -0.00394948 0.00531085)
(0.144621 -0.00393786 0.00496091)
(0.141849 -0.00301805 0.00332658)
(0.137589 -0.00194081 0.000453053)
(0.134042 -0.000757343 -0.00218521)
(0.132913 0.000279171 -0.003248)
(0.133918 0.000623149 -0.00275976)
(0.135992 0.000519556 -0.00218542)
(0.138884 0.0005365 -0.00308946)
(0.141857 -0.000410183 -0.00472777)
(0.144057 -0.00394997 -0.00458721)
(0.146497 -0.00884067 -0.00192737)
(0.149531 -0.0110781 0.00188607)
(0.15073 -0.00854405 0.00572385)
(0.147362 -0.00314279 0.0088603)
(0.140118 0.00181571 0.0105631)
(0.132724 0.00466139 0.0105832)
(0.127595 0.00553123 0.00911931)
(0.124629 0.00504626 0.00673629)
(0.123357 0.00360123 0.00449074)
(0.124204 0.00114954 0.00313468)
(0.127402 -0.00172677 0.00231579)
(0.131816 -0.00327873 0.00153433)
(0.135685 -0.00237349 0.00173358)
(0.137795 -0.000293712 0.00347498)
(0.13819 0.000778111 0.00469868)
(0.138573 0.000511522 0.00278846)
(0.141326 5.49623e-05 -0.00186105)
(0.147275 -0.000200888 -0.00653824)
(0.15441 -0.000993829 -0.00971019)
(0.158399 -0.00117666 -0.0086941)
(0.163215 -0.00195781 -0.0102676)
(0.166267 -0.00239197 -0.011383)
(0.16578 -0.00283801 -0.0122376)
(0.16051 -0.00254189 -0.0119614)
(0.152677 -0.000709027 -0.00899194)
(0.146236 0.00170368 -0.00344084)
(0.143046 0.00261489 0.00217793)
(0.142276 0.00130048 0.00530296)
(0.142378 -0.000863264 0.00592057)
(0.142338 -0.0021589 0.00567968)
(0.141682 -0.0021779 0.00521327)
(0.140288 -0.00155783 0.00379529)
(0.138912 -0.000869547 0.00126722)
(0.138752 -0.000359448 -0.00115149)
(0.139815 -0.000372081 -0.00214227)
(0.14058 -0.00110766 -0.00141743)
(0.139982 -0.00178825 0.000132739)
(0.139185 -0.00129615 0.00105165)
(0.139725 -0.000553337 0.00104667)
(0.141752 -0.00222312 0.00154284)
(0.144851 -0.00645675 0.00327293)
(0.147879 -0.00942031 0.00526977)
(0.148788 -0.0075984 0.00673791)
(0.145998 -0.00188785 0.00787887)
(0.139915 0.0038834 0.00886241)
(0.13302 0.00681058 0.00927604)
(0.127569 0.0067284 0.00874466)
(0.124196 0.00523946 0.00770411)
(0.122911 0.00377477 0.00694569)
(0.124014 0.00218932 0.00658307)
(0.127381 -2.16902e-05 0.00600234)
(0.131653 -0.00190737 0.00505817)
(0.135185 -0.00180601 0.00468109)
(0.137172 0.000371406 0.00551285)
(0.13801 0.0026296 0.0062678)
(0.138996 0.00338689 0.00489949)
(0.141463 0.00283362 0.00120893)
(0.146123 0.0016587 -0.00306981)
(0.152343 0.000194077 -0.00640679)
(0.156464 -0.00153448 -0.00702769)
(0.161745 -0.00169413 -0.00874566)
(0.165096 -0.000825209 -0.00967647)
(0.165514 -6.22727e-05 -0.010523)
(0.162767 0.000380117 -0.0111501)
(0.158259 0.00134958 -0.010277)
(0.153759 0.00285576 -0.00697683)
(0.149831 0.00336976 -0.00225385)
(0.146201 0.00193414 0.00166729)
(0.142915 -0.000321527 0.00368721)
(0.140639 -0.00170804 0.00450782)
(0.14015 -0.00186547 0.00492595)
(0.141622 -0.00132449 0.00470241)
(0.144632 -0.000568658 0.0034148)
(0.148142 -7.46512e-05 0.00161896)
(0.150311 -0.000359955 0.000678415)
(0.149507 -0.00123417 0.00153932)
(0.145826 -0.00160984 0.00394479)
(0.141954 -0.000588629 0.00607413)
(0.140752 0.000992171 0.00582777)
(0.142359 0.000671236 0.00374499)
(0.14519 -0.00260184 0.00259451)
(0.147592 -0.00607397 0.00382041)
(0.148023 -0.00557779 0.00603045)
(0.145398 -0.00040332 0.00719235)
(0.14001 0.0059763 0.00706676)
(0.134012 0.00974534 0.00682799)
(0.129602 0.009873 0.00679962)
(0.127357 0.00782564 0.00636905)
(0.126856 0.0054851 0.00537804)
(0.127728 0.00359921 0.00446575)
(0.129869 0.00200952 0.00417194)
(0.132836 0.000886545 0.00434243)
(0.135991 0.000894215 0.00472269)
(0.138749 0.00222664 0.00552757)
(0.140497 0.00391883 0.00654592)
(0.141428 0.00465902 0.00639364)
(0.142645 0.00393206 0.00400857)
(0.14553 0.00211665 1.35638e-05)
(0.150509 -8.88141e-06 -0.0040366)
(0.154758 -0.00392684 -0.0051183)
(0.1593 -0.00422394 -0.00735389)
(0.162017 -0.00230859 -0.00813421)
(0.162327 0.000203808 -0.00838605)
(0.160134 0.00195538 -0.00867436)
(0.156733 0.00304006 -0.00859382)
(0.154021 0.00399919 -0.00742246)
(0.152605 0.00445037 -0.00503825)
(0.151368 0.00350758 -0.0022271)
(0.149039 0.00121809 9.47322e-05)
(0.145694 -0.00149292 0.00179964)
(0.142872 -0.00409206 0.00324478)
(0.142393 -0.00635657 0.0043655)
(0.144952 -0.0075681 0.00465477)
(0.149564 -0.00704297 0.0038987)
(0.153529 -0.00511569 0.00267369)
(0.153959 -0.00284156 0.00220268)
(0.150207 -0.000611431 0.00307573)
(0.144853 0.00175324 0.00410252)
(0.141383 0.00376858 0.00314221)
(0.1408 0.00413934 -1.05918e-05)
(0.142122 0.00195543 -0.00264922)
(0.144151 -0.00168708 -0.00217729)
(0.145619 -0.00363229 0.00109154)
(0.145326 -0.0013634 0.00444565)
(0.143174 0.00424382 0.00575507)
(0.140601 0.00966619 0.00509803)
(0.139025 0.0120701 0.0034601)
(0.138415 0.0112331 0.00148281)
(0.138071 0.00868873 -0.000154106)
(0.137611 0.00601089 -0.000615923)
(0.137321 0.00389654 0.000362663)
(0.137509 0.00261578 0.00215396)
(0.137994 0.00236053 0.00388809)
(0.138549 0.00290165 0.00526384)
(0.139045 0.00357272 0.00634398)
(0.139698 0.00378852 0.00665629)
(0.141208 0.00311759 0.00541172)
(0.144421 0.00124456 0.00246778)
(0.149325 -0.00154915 -0.00147115)
(0.154418 -0.00397371 -0.00197742)
(0.155888 -0.00235429 -0.00574567)
(0.1544 0.000534006 -0.00772237)
(0.15123 0.00327631 -0.00826275)
(0.147916 0.00470037 -0.00804562)
(0.145635 0.00475772 -0.00759385)
(0.144983 0.00408402 -0.0071873)
(0.146017 0.00316748 -0.00671159)
(0.148338 0.00205479 -0.00574323)
(0.151099 0.000698675 -0.00402941)
(0.153031 -0.000837176 -0.0018173)
(0.153181 -0.00272804 0.000474691)
(0.151817 -0.00520387 0.00261375)
(0.150272 -0.00779437 0.0046293)
(0.149933 -0.00927863 0.00633758)
(0.150827 -0.00874104 0.00706515)
(0.151361 -0.00617361 0.00637114)
(0.149823 -0.00219292 0.00476645)
(0.146341 0.00179369 0.00300547)
(0.142871 0.00385777 0.00106045)
(0.140984 0.00305897 -0.00123441)
(0.141147 0.000244943 -0.00290545)
(0.143068 -0.00263271 -0.00246529)
(0.145521 -0.0036726 0.000422124)
(0.147018 -0.00189255 0.00415763)
(0.147175 0.00225583 0.00626328)
(0.146926 0.00690697 0.00534898)
(0.147168 0.0099868 0.00180307)
(0.147589 0.0105264 -0.00278675)
(0.147416 0.00880959 -0.0065143)
(0.146445 0.00597537 -0.00793042)
(0.145036 0.00347719 -0.00660406)
(0.143622 0.00243371 -0.00316753)
(0.142371 0.00288159 0.00113167)
(0.141249 0.00364531 0.00519905)
(0.140318 0.00337754 0.00846156)
(0.140064 0.00176924 0.0103611)
(0.141475 -0.000495856 0.0101568)
(0.145165 -0.00257364 0.00747027)
(0.150202 -0.00390377 0.0029233)
(0.156948 -0.00054009 0.00644232)
(0.159323 0.00193739 0.00221267)
(0.160685 0.00499006 -0.00220486)
(0.159983 0.00735783 -0.00610428)
(0.157163 0.00802103 -0.0089399)
(0.153429 0.00691493 -0.0103708)