/*--------------------------------*- C++ -*----------------------------------*\
| =========                 |                                                 |
| \\      /  F ield         | OpenFOAM: The Open Source CFD Toolbox           |
|  \\    /   O peration     | Version:  2306                                  |
|   \\  /    A nd           | Website:  www.openfoam.com                      |
|    \\/     M anipulation  |                                                 |
\*---------------------------------------------------------------------------*/
FoamFile
{
    version     2.0;
    format      ascii;
    arch        "LSB;label=32;scalar=64";
    class       volScalarField;
    location    "3.5";
    object      nut;
}
// * * * * * * * * * * * * * * * * * * * * * * * * * * * * * * * * * * * * * //

dimensions      [0 2 -1 0 0 0 0];

internalField   nonuniform List<scalar> 
60000
(
9.23865e-05
9.54437e-05
9.53652e-05
9.27082e-05
8.96555e-05
8.73216e-05
8.53746e-05
8.31608e-05
7.99423e-05
7.47219e-05
6.73868e-05
5.98802e-05
5.48727e-05
5.30757e-05
5.33041e-05
5.39581e-05
5.44007e-05
5.53646e-05
5.75223e-05
6.04965e-05
6.36979e-05
6.71745e-05
7.14647e-05
7.68808e-05
8.26445e-05
8.68672e-05
8.7784e-05
8.47051e-05
7.82714e-05
7.07253e-05
6.47092e-05
6.08549e-05
5.86838e-05
5.82098e-05
5.96588e-05
6.29899e-05
6.76262e-05
7.34827e-05
8.03365e-05
8.70415e-05
9.21837e-05
9.68472e-05
9.83214e-05
9.61498e-05
9.24978e-05
8.96136e-05
8.77313e-05
8.58653e-05
8.30423e-05
7.86649e-05
7.25962e-05
6.568e-05
5.97941e-05
5.61497e-05
5.44759e-05
5.37322e-05
5.35327e-05
5.43572e-05
5.63785e-05
5.91483e-05
6.24447e-05
6.66026e-05
7.18756e-05
7.80101e-05
8.40624e-05
8.85512e-05
9.0012e-05
8.76411e-05
8.2202e-05
7.58979e-05
7.01795e-05
6.50041e-05
6.06372e-05
5.82323e-05
5.86616e-05
6.17115e-05
6.64358e-05
7.24696e-05
7.92838e-05
8.60458e-05
8.8242e-05
9.50886e-05
9.90033e-05
9.79516e-05
9.3642e-05
8.97965e-05
8.78256e-05
8.66923e-05
8.51635e-05
8.28113e-05
7.91331e-05
7.33294e-05
6.60351e-05
5.9383e-05
5.49758e-05
5.25706e-05
5.14446e-05
5.15798e-05
5.29863e-05
5.52489e-05
5.81661e-05
6.2086e-05
6.73016e-05
7.356e-05
8.02058e-05
8.61123e-05
8.97906e-05
9.0006e-05
8.69386e-05
8.22244e-05
7.69436e-05
7.0945e-05
6.43252e-05
5.86825e-05
5.61129e-05
5.73307e-05
6.12563e-05
6.69581e-05
7.37855e-05
8.09178e-05
7.90726e-05
8.80348e-05
9.52368e-05
9.66777e-05
9.23654e-05
8.73182e-05
8.49852e-05
8.47365e-05
8.49087e-05
8.49627e-05
8.43977e-05
8.13019e-05
7.4234e-05
6.4722e-05
5.64432e-05
5.12615e-05
4.84869e-05
4.7374e-05
4.76564e-05
4.8877e-05
5.06189e-05
5.31174e-05
5.70106e-05
6.24625e-05
6.93059e-05
7.69859e-05
8.4147e-05
8.87644e-05
8.96131e-05
8.74257e-05
8.3512e-05
7.82298e-05
7.09628e-05
6.21749e-05
5.48263e-05
5.18349e-05
5.31729e-05
5.74658e-05
6.38444e-05
7.10844e-05
6.27656e-05
7.22019e-05
8.30283e-05
8.91187e-05
8.66869e-05
8.05931e-05
7.75417e-05
7.82277e-05
8.0205e-05
8.24021e-05
8.48175e-05
8.58599e-05
8.24224e-05
7.30181e-05
6.10493e-05
5.1538e-05
4.58188e-05
4.26964e-05
4.12797e-05
4.0808e-05
4.05148e-05
4.04271e-05
4.16255e-05
4.47902e-05
4.98264e-05
5.76032e-05
6.85151e-05
7.9212e-05
8.60781e-05
8.79701e-05
8.62931e-05
8.30705e-05
7.81679e-05
6.97295e-05
5.85278e-05
4.94372e-05
4.55919e-05
4.63195e-05
5.03049e-05
5.59211e-05
4.47069e-05
4.84668e-05
5.88047e-05
7.09358e-05
7.37773e-05
6.78752e-05
6.35572e-05
6.52997e-05
6.94376e-05
7.32174e-05
7.72483e-05
8.21766e-05
8.54699e-05
8.19401e-05
7.03215e-05
5.63023e-05
4.58815e-05
3.97376e-05
3.62535e-05
3.40124e-05
3.19435e-05
2.99905e-05
2.98049e-05
3.26581e-05
3.69699e-05
3.95428e-05
4.32238e-05
5.64515e-05
7.14164e-05
7.98668e-05
8.13576e-05
8.00733e-05
7.91058e-05
7.62181e-05
6.75582e-05
5.48648e-05
4.45606e-05
4.05226e-05
4.11525e-05
4.28419e-05
3.81868e-05
3.99666e-05
3.97551e-05
4.4259e-05
5.21753e-05
4.82262e-05
4.09802e-05
4.3468e-05
5.15495e-05
5.71194e-05
6.06461e-05
6.63642e-05
7.60773e-05
8.38107e-05
8.0968e-05
6.72353e-05
5.16065e-05
4.09733e-05
3.51654e-05
3.19848e-05
3.00812e-05
2.88569e-05
2.77217e-05
2.71804e-05
3.05577e-05
3.80165e-05
3.9612e-05
3.37191e-05
4.4283e-05
5.9864e-05
6.51784e-05
6.43226e-05
6.62762e-05
7.09702e-05
7.19047e-05
6.53184e-05
5.32736e-05
4.23783e-05
3.87852e-05
3.83869e-05
3.1758e-05
3.24638e-05
3.84337e-05
3.35292e-05
3.2282e-05
3.30776e-05
2.13307e-05
1.63234e-05
2.71556e-05
3.8021e-05
3.91181e-05
3.75292e-05
4.68152e-05
6.71466e-05
8.20855e-05
7.98321e-05
6.39701e-05
4.78483e-05
3.82275e-05
3.39159e-05
3.30178e-05
3.46784e-05
3.65303e-05
3.48916e-05
2.85271e-05
2.54536e-05
3.50112e-05
3.69638e-05
2.7053e-05
3.23657e-05
3.532e-05
2.81238e-05
2.72255e-05
3.86642e-05
5.47285e-05
6.40899e-05
6.31012e-05
5.29517e-05
4.07883e-05
3.52072e-05
2.85663e-05
2.35505e-05
2.63641e-05
3.28802e-05
2.5597e-05
2.94194e-05
2.44637e-05
7.16226e-06
1.22336e-05
1.83697e-05
2.56585e-05
1.88419e-05
1.42524e-05
2.89086e-05
5.98606e-05
8.05022e-05
7.71859e-05
6.02259e-05
4.50763e-05
3.70663e-05
3.51354e-05
3.79933e-05
4.31018e-05
4.57452e-05
4.22002e-05
3.05129e-05
2.13478e-05
2.99146e-05
2.76971e-05
1.45093e-05
2.04526e-05
2.71543e-05
3.1876e-05
3.28673e-05
3.07395e-05
4.17254e-05
5.47152e-05
5.82687e-05
4.97834e-05
3.67595e-05
3.18774e-05
2.33975e-05
2.09805e-05
2.52079e-05
2.78429e-05
2.53342e-05
3.27455e-05
2.18223e-05
8.4917e-06
1.73339e-05
1.26182e-05
2.21161e-05
1.14215e-05
1.78447e-05
2.56271e-05
5.67405e-05
7.67151e-05
7.16798e-05
5.53876e-05
4.15818e-05
3.57933e-05
3.77792e-05
4.54098e-05
5.2627e-05
5.35731e-05
4.56201e-05
2.80352e-05
1.89817e-05
2.43668e-05
1.82744e-05
2.57098e-05
3.22769e-05
2.77457e-05
3.20668e-05
3.63608e-05
3.24208e-05
3.45825e-05
4.47141e-05
5.11069e-05
4.52075e-05
4.05782e-05
2.69888e-05
2.35324e-05
2.32009e-05
2.55735e-05
2.66259e-05
2.68319e-05
3.03362e-05
1.4822e-05
1.32308e-05
1.90742e-05
1.15221e-05
2.37546e-05
1.07522e-05
2.44816e-05
2.64123e-05
5.24124e-05
6.85522e-05
6.29436e-05
4.76851e-05
3.4992e-05
3.27443e-05
4.07182e-05
5.38172e-05
6.1592e-05
5.80207e-05
4.19836e-05
2.09228e-05
1.89474e-05
2.0667e-05
2.45854e-05
3.15876e-05
2.7489e-05
1.76812e-05
1.75153e-05
2.49743e-05
2.76908e-05
2.84824e-05
3.76502e-05
4.71927e-05
4.42516e-05
3.45501e-05
2.69668e-05
2.87247e-05
2.53812e-05
2.62296e-05
2.47138e-05
2.07162e-05
2.15739e-05
6.67483e-06
1.56737e-05
1.74889e-05
1.3144e-05
1.8624e-05
1.28816e-05
2.72459e-05
2.42594e-05
4.17953e-05
5.19996e-05
4.5887e-05
3.17455e-05
2.16285e-05
2.84744e-05
4.17004e-05
5.81322e-05
6.39674e-05
5.3503e-05
3.24281e-05
2.02936e-05
2.04318e-05
2.05038e-05
2.65583e-05
3.19056e-05
3.34093e-05
2.75124e-05
1.80593e-05
1.92656e-05
2.43398e-05
2.31979e-05
3.69156e-05
3.70682e-05
3.82811e-05
3.10116e-05
3.17273e-05
3.05368e-05
2.34148e-05
2.37332e-05
1.75643e-05
1.37005e-05
1.49346e-05
5.84254e-06
1.66419e-05
1.56779e-05
1.48961e-05
1.4327e-05
1.81352e-05
2.67447e-05
1.90686e-05
1.92312e-05
2.34145e-05
2.62302e-05
2.47168e-05
2.51865e-05
2.87538e-05
3.77285e-05
5.56896e-05
5.67339e-05
4.16503e-05
2.76139e-05
2.36784e-05
1.91138e-05
2.0342e-05
2.69229e-05
3.6407e-05
4.16363e-05
3.6693e-05
2.658e-05
2.40284e-05
2.21118e-05
2.04823e-05
1.99923e-05
3.28896e-05
3.32863e-05
3.42418e-05
3.52201e-05
2.82402e-05
2.22438e-05
1.8449e-05
1.03135e-05
1.24994e-05
1.09668e-05
1.07948e-05
1.64867e-05
1.50776e-05
1.73388e-05
1.53976e-05
2.29181e-05
3.31748e-05
3.00272e-05
1.42468e-05
1.99263e-05
3.04061e-05
2.54316e-05
2.2939e-05
2.05339e-05
3.40019e-05
4.87394e-05
4.33031e-05
3.15051e-05
2.72375e-05
2.09862e-05
1.60135e-05
1.60528e-05
2.23847e-05
3.37172e-05
3.97963e-05
3.56033e-05
2.69275e-05
2.4977e-05
1.51078e-05
1.25726e-05
1.91413e-05
2.9955e-05
3.48467e-05
3.7108e-05
3.31082e-05
2.89943e-05
2.27976e-05
1.28899e-05
9.98852e-06
1.43681e-05
1.26473e-05
1.37283e-05
1.45416e-05
1.65959e-05
2.08264e-05
2.07968e-05
2.17517e-05
2.01692e-05
1.73426e-05
2.00878e-05
2.696e-05
3.03318e-05
2.15876e-05
1.7731e-05
1.89344e-05
3.65792e-05
4.02941e-05
3.1085e-05
2.59146e-05
2.0085e-05
1.28261e-05
1.37702e-05
1.38952e-05
1.29808e-05
2.01576e-05
2.38235e-05
2.01253e-05
2.00192e-05
2.29183e-05
2.64937e-05
1.85936e-05
2.29357e-05
3.17586e-05
3.45776e-05
3.1534e-05
3.22718e-05
2.93515e-05
1.8061e-05
7.88137e-06
1.30367e-05
1.64005e-05
1.39412e-05
1.19251e-05
1.28054e-05
1.78969e-05
2.11995e-05
2.04917e-05
1.77936e-05
1.9493e-05
2.19716e-05
2.22349e-05
2.87112e-05
2.91657e-05
1.70278e-05
1.2665e-05
2.98606e-05
3.85572e-05
3.23315e-05
2.335e-05
1.65655e-05
1.96008e-05
2.33805e-05
2.1017e-05
1.75317e-05
1.60611e-05
1.69188e-05
1.74166e-05
2.02068e-05
2.58452e-05
3.01683e-05
3.04969e-05
2.72699e-05
2.71783e-05
2.77716e-05
2.42699e-05
2.78715e-05
3.23209e-05
2.43167e-05
1.13266e-05
6.13664e-06
1.1787e-05
1.32118e-05
1.23661e-05
1.34014e-05
1.31054e-05
1.37895e-05
1.95082e-05
2.2594e-05
2.19602e-05
2.03301e-05
1.7426e-05
2.42751e-05
3.16256e-05
2.37374e-05
6.17967e-06
1.7342e-05
3.14918e-05
3.36168e-05
2.667e-05
1.9057e-05
1.92251e-05
1.83452e-05
1.7169e-05
1.54932e-05
1.26322e-05
1.24955e-05
1.98626e-05
2.55092e-05
2.73601e-05
2.69031e-05
2.71604e-05
3.00165e-05
3.20686e-05
2.76066e-05
1.82491e-05
1.89386e-05
2.89825e-05
3.06245e-05
2.35324e-05
1.29039e-05
6.38736e-06
9.3311e-06
1.08125e-05
1.28768e-05
1.51323e-05
2.06459e-05
2.61604e-05
2.54585e-05
2.17238e-05
1.83975e-05
1.46013e-05
1.99347e-05
3.01193e-05
2.7949e-05
1.18455e-05
8.74609e-06
2.20434e-05
2.78363e-05
2.75355e-05
2.34447e-05
1.73521e-05
1.23834e-05
1.76801e-05
2.24004e-05
1.63033e-05
1.1565e-05
2.18511e-05
2.9188e-05
2.93344e-05
2.06868e-05
2.09969e-05
2.27842e-05
2.55461e-05
2.50511e-05
1.80655e-05
1.4766e-05
1.73251e-05
2.07647e-05
2.3235e-05
2.35345e-05
2.13917e-05
1.55953e-05
6.56892e-06
9.5765e-06
2.16992e-05
3.01853e-05
3.02926e-05
2.27769e-05
2.12591e-05
2.18426e-05
1.54511e-05
1.48431e-05
3.09099e-05
3.90309e-05
2.54868e-05
9.91366e-06
2.65299e-05
3.31494e-05
3.40036e-05
3.46631e-05
3.49272e-05
3.19795e-05
2.53778e-05
2.20496e-05
2.19862e-05
1.73682e-05
1.72465e-05
2.25734e-05
2.29052e-05
2.33464e-05
2.01978e-05
1.74244e-05
1.71837e-05
1.71664e-05
1.72977e-05
2.09903e-05
2.23897e-05
1.65558e-05
1.32943e-05
1.59902e-05
1.86656e-05
2.22272e-05
2.25868e-05
1.8205e-05
1.76938e-05
2.5486e-05
3.00641e-05
2.59664e-05
2.23623e-05
2.52034e-05
2.38981e-05
1.62483e-05
1.21514e-05
2.25148e-05
2.33856e-05
6.96058e-06
2.35345e-05
3.81089e-05
4.40213e-05
4.96812e-05
5.11973e-05
4.52312e-05
3.47396e-05
2.40075e-05
1.70902e-05
1.39293e-05
1.40825e-05
1.94534e-05
2.36584e-05
2.39279e-05
2.12842e-05
1.88099e-05
1.69603e-05
1.47141e-05
1.6821e-05
1.93704e-05
1.75435e-05
1.20116e-05
1.03466e-05
1.62677e-05
1.95205e-05
1.79557e-05
1.63934e-05
1.87341e-05
2.00233e-05
1.52469e-05
7.73472e-06
8.80852e-06
1.29006e-05
2.09317e-05
2.66246e-05
2.49157e-05
1.79824e-05
9.92684e-06
1.20586e-05
8.21879e-06
1.61955e-05
3.38077e-05
4.33408e-05
4.56831e-05
4.17437e-05
3.486e-05
2.95621e-05
2.72564e-05
2.59192e-05
2.37276e-05
2.15301e-05
2.13377e-05
2.30861e-05
2.17816e-05
1.66611e-05
1.4019e-05
1.95217e-05
2.21808e-05
2.20644e-05
2.3017e-05
2.24773e-05
1.87136e-05
1.33056e-05
8.47893e-06
6.53867e-06
1.02702e-05
1.37822e-05
1.26093e-05
1.06395e-05
1.48575e-05
1.9211e-05
1.76412e-05
1.45832e-05
2.13793e-05
3.02889e-05
3.34851e-05
2.86339e-05
1.99011e-05
1.41685e-05
1.21131e-05
1.64898e-05
2.79025e-05
3.40063e-05
3.15611e-05
2.48952e-05
1.98109e-05
1.87309e-05
2.20891e-05
2.78533e-05
3.0454e-05
2.89992e-05
2.68825e-05
2.46877e-05
1.17539e-05
1.14492e-05
1.24768e-05
1.30565e-05
1.16206e-05
9.06924e-06
1.17109e-05
1.51514e-05
1.46587e-05
1.55982e-05
1.92469e-05
1.9791e-05
1.62015e-05
1.14632e-05
1.25474e-05
1.48799e-05
1.29095e-05
1.22769e-05
1.75512e-05
1.92387e-05
1.81684e-05
2.51698e-05
3.31402e-05
3.34876e-05
2.62302e-05
1.75354e-05
1.39976e-05
1.50709e-05
1.91019e-05
2.16811e-05
2.14697e-05
2.1175e-05
1.95327e-05
1.55513e-05
1.1483e-05
1.61342e-05
2.29719e-05
2.37582e-05
1.94457e-05
1.44842e-05
1.27275e-05
1.23076e-05
1.1335e-05
9.59924e-06
8.96748e-06
1.07903e-05
1.4385e-05
1.66908e-05
1.74503e-05
2.06197e-05
2.40857e-05
2.22347e-05
1.59671e-05
1.21637e-05
1.21301e-05
1.18127e-05
9.46047e-06
6.9988e-06
1.11917e-05
1.54557e-05
1.78092e-05
1.87714e-05
1.73033e-05
1.25317e-05
8.29268e-06
9.25841e-06
1.13179e-05
1.25849e-05
1.41238e-05
1.56379e-05
1.75465e-05
1.84633e-05
1.6132e-05
1.14654e-05
8.04607e-06
7.98184e-06
9.3696e-06
1.07008e-05
1.18725e-05
1.29173e-05
1.44306e-05
1.50243e-05
1.42795e-05
1.11107e-05
9.11105e-06
1.03023e-05
1.25752e-05
1.33991e-05
1.11735e-05
7.97837e-06
8.65319e-06
9.98945e-06
9.62153e-06
1.04075e-05
1.40628e-05
1.92158e-05
2.33883e-05
2.34247e-05
1.96401e-05
1.79412e-05
2.00686e-05
2.28762e-05
2.60924e-05
2.61443e-05
2.02494e-05
1.01535e-05
2.75346e-06
8.01227e-06
1.18718e-05
1.60253e-05
2.05992e-05
2.30609e-05
2.22292e-05
1.75348e-05
1.26108e-05
1.22324e-05
1.14542e-05
6.57049e-06
7.96966e-06
1.28095e-05
7.45337e-05
7.87306e-05
8.26751e-05
8.63297e-05
8.86081e-05
8.87587e-05
8.72689e-05
8.52467e-05
8.30515e-05
7.99248e-05
7.54684e-05
7.08361e-05
6.75317e-05
6.57365e-05
6.45969e-05
6.34866e-05
6.27745e-05
6.33379e-05
6.54643e-05
6.85047e-05
7.16476e-05
7.48212e-05
7.85692e-05
8.33117e-05
8.83017e-05
9.13692e-05
9.06962e-05
8.65886e-05
8.06574e-05
7.46254e-05
6.94853e-05
6.47508e-05
5.98162e-05
5.57408e-05
5.37749e-05
5.36061e-05
5.47045e-05
5.77471e-05
6.31279e-05
6.92997e-05
7.25595e-05
7.77865e-05
8.31081e-05
8.78851e-05
9.11011e-05
9.20334e-05
9.0932e-05
8.87256e-05
8.61846e-05
8.33687e-05
7.99743e-05
7.60618e-05
7.23958e-05
6.95192e-05
6.71056e-05
6.49042e-05
6.35653e-05
6.37597e-05
6.53623e-05
6.77815e-05
7.06124e-05
7.41215e-05
7.88429e-05
8.48222e-05
9.07946e-05
9.44326e-05
9.43532e-05
9.10039e-05
8.53679e-05
7.93145e-05
7.45923e-05
7.04471e-05
6.4994e-05
5.86894e-05
5.414e-05
5.25505e-05
5.3561e-05
5.68258e-05
6.18086e-05
6.72731e-05
6.82572e-05
7.4283e-05
8.04162e-05
8.59774e-05
9.01994e-05
9.23226e-05
9.21586e-05
9.03833e-05
8.81897e-05
8.64517e-05
8.47961e-05
8.19575e-05
7.78482e-05
7.37462e-05
7.01503e-05
6.67266e-05
6.39472e-05
6.26266e-05
6.28553e-05
6.4201e-05
6.63129e-05
6.93496e-05
7.39213e-05
8.02575e-05
8.72639e-05
9.27021e-05
9.50679e-05
9.44001e-05
9.06048e-05
8.50074e-05
8.06347e-05
7.77683e-05
7.30742e-05
6.46793e-05
5.5981e-05
5.11012e-05
5.04435e-05
5.27882e-05
5.71053e-05
6.24637e-05
6.14741e-05
6.79151e-05
7.43521e-05
8.01395e-05
8.49191e-05
8.82813e-05
8.96034e-05
8.89738e-05
8.75891e-05
8.70876e-05
8.7578e-05
8.68963e-05
8.34319e-05
7.85053e-05
7.38628e-05
6.92786e-05
6.46559e-05
6.09536e-05
5.88493e-05
5.8201e-05
5.86275e-05
6.00022e-05
6.2962e-05
6.83236e-05
7.56933e-05
8.32124e-05
8.91388e-05
9.29966e-05
9.33215e-05
8.95616e-05
8.55248e-05
8.4149e-05
8.2134e-05
7.42601e-05
6.17151e-05
5.14617e-05
4.69661e-05
4.71114e-05
5.02451e-05
5.53059e-05
5.1786e-05
5.79691e-05
6.4057e-05
6.94454e-05
7.37786e-05
7.76559e-05
8.0657e-05
8.19925e-05
8.19836e-05
8.24069e-05
8.45879e-05
8.69214e-05
8.62485e-05
8.2169e-05
7.71554e-05
7.19894e-05
6.60019e-05
5.98317e-05
5.47451e-05
5.11188e-05
4.85374e-05
4.66742e-05
4.62954e-05
4.88767e-05
5.46588e-05
6.27853e-05
7.19889e-05
8.13998e-05
8.85907e-05
8.9597e-05
8.65548e-05
8.59657e-05
8.76294e-05
8.44002e-05
7.24039e-05
5.72546e-05
4.65176e-05
4.20671e-05
4.2568e-05
4.62452e-05
4.0153e-05
4.44395e-05
4.95043e-05
5.42518e-05
5.71121e-05
5.94092e-05
6.29953e-05
6.68101e-05
6.90996e-05
7.02515e-05
7.25779e-05
7.70106e-05
8.10064e-05
8.11135e-05
7.78528e-05
7.32467e-05
6.71776e-05
5.97589e-05
5.23083e-05
4.57153e-05
3.98287e-05
3.48175e-05
3.22352e-05
3.31533e-05
3.59822e-05
3.88915e-05
4.42457e-05
5.56547e-05
7.07474e-05
8.04863e-05
8.09368e-05
8.00649e-05
8.4368e-05
8.82933e-05
8.33416e-05
6.95736e-05
5.40029e-05
4.24099e-05
3.73498e-05
3.74698e-05
3.14436e-05
3.146e-05
3.37571e-05
3.78014e-05
4.03144e-05
3.87463e-05
3.79024e-05
4.20824e-05
4.75247e-05
4.96654e-05
4.98783e-05
5.28605e-05
6.07903e-05
6.87751e-05
7.19598e-05
7.06764e-05
6.62212e-05
5.9419e-05
5.15741e-05
4.37732e-05
3.64731e-05
3.05214e-05
2.68311e-05
2.58229e-05
2.83223e-05
3.0018e-05
2.77687e-05
2.79882e-05
4.04382e-05
5.83718e-05
6.60264e-05
6.48344e-05
6.87036e-05
7.87006e-05
8.45666e-05
8.06571e-05
6.91764e-05
5.37101e-05
3.98152e-05
3.33191e-05
2.96408e-05
2.65425e-05
2.58086e-05
2.62349e-05
2.87089e-05
2.88299e-05
2.22144e-05
1.76921e-05
2.18355e-05
2.70511e-05
2.64575e-05
2.30144e-05
2.58499e-05
3.86539e-05
5.3214e-05
6.12476e-05
6.1838e-05
5.72383e-05
5.03364e-05
4.32738e-05
3.74517e-05
3.46668e-05
3.53896e-05
3.51743e-05
3.10716e-05
2.84038e-05
2.51214e-05
1.99764e-05
2.08955e-05
3.18665e-05
4.3767e-05
3.96102e-05
3.51105e-05
4.70806e-05
6.59696e-05
7.72754e-05
7.93691e-05
7.16155e-05
5.36446e-05
3.68811e-05
3.24941e-05
2.71912e-05
2.64466e-05
2.62104e-05
2.25136e-05
2.43035e-05
2.36395e-05
1.32713e-05
1.10972e-05
1.36951e-05
1.6897e-05
1.29654e-05
6.85266e-06
1.20407e-05
2.31862e-05
4.22297e-05
5.34757e-05
5.43016e-05
4.84017e-05
4.12861e-05
3.68316e-05
3.66712e-05
4.11139e-05
4.6317e-05
4.45871e-05
3.5703e-05
2.89479e-05
2.06893e-05
1.65884e-05
1.92577e-05
2.34882e-05
1.97671e-05
1.37647e-05
1.9792e-05
2.32634e-05
4.81592e-05
6.95044e-05
7.97584e-05
7.14458e-05
4.88949e-05
4.08407e-05
2.77366e-05
2.54844e-05
2.91128e-05
2.7926e-05
2.02306e-05
2.23168e-05
1.99674e-05
1.02414e-05
1.85288e-05
1.96774e-05
1.75322e-05
1.23394e-05
1.43262e-05
1.87121e-05
1.71322e-05
3.65112e-05
4.86022e-05
4.72124e-05
3.89528e-05
3.25009e-05
3.08252e-05
3.42305e-05
4.20346e-05
4.79259e-05
4.27479e-05
3.23158e-05
2.44762e-05
1.59954e-05
1.53754e-05
1.44168e-05
1.91108e-05
1.82967e-05
2.64225e-05
3.14302e-05
1.78724e-05
3.58082e-05
6.59485e-05
7.89124e-05
6.46599e-05
5.27871e-05
3.13763e-05
2.20132e-05
2.49174e-05
3.13146e-05
2.79442e-05
1.83215e-05
1.97933e-05
1.57236e-05
1.56368e-05
2.56009e-05
2.20374e-05
1.53801e-05
1.39422e-05
2.32544e-05
2.55991e-05
1.54224e-05
3.00752e-05
3.99047e-05
3.55657e-05
2.64053e-05
2.0592e-05
2.14872e-05
2.99831e-05
4.06989e-05
4.34568e-05
3.37897e-05
2.53856e-05
1.71247e-05
9.73574e-06
1.36781e-05
2.10382e-05
2.94768e-05
2.4839e-05
2.10257e-05
3.07632e-05
2.17707e-05
3.30064e-05
6.73306e-05
7.3334e-05
6.15717e-05
3.96222e-05
2.36588e-05
1.99221e-05
2.54414e-05
3.01722e-05
2.43385e-05
1.75515e-05
1.93592e-05
1.49031e-05
1.66663e-05
2.2709e-05
2.09326e-05
1.75737e-05
1.71486e-05
2.71176e-05
2.66708e-05
1.24902e-05
1.82928e-05
2.46213e-05
2.18449e-05
1.61603e-05
1.55828e-05
2.15675e-05
2.8582e-05
3.53718e-05
3.16629e-05
2.29085e-05
1.80063e-05
1.04623e-05
8.8753e-06
1.83075e-05
2.64779e-05
3.60715e-05
3.29306e-05
1.92227e-05
3.08793e-05
2.11969e-05
3.89288e-05
6.84221e-05
6.39886e-05
4.91919e-05
3.11057e-05
2.25444e-05
2.21824e-05
2.48104e-05
2.48507e-05
1.90702e-05
1.83465e-05
1.7936e-05
1.27411e-05
1.62767e-05
2.25221e-05
2.23751e-05
1.67467e-05
1.58339e-05
2.49074e-05
2.61858e-05
1.86146e-05
9.58533e-06
1.66374e-05
2.1305e-05
1.62798e-05
1.6956e-05
2.04486e-05
2.08139e-05
2.51039e-05
1.91556e-05
1.78726e-05
1.51082e-05
1.13507e-05
1.32509e-05
2.00016e-05
2.34184e-05
3.14284e-05
3.0377e-05
2.25649e-05
3.13009e-05
1.23288e-05
4.9417e-05
5.50103e-05
5.73198e-05
4.30567e-05
3.20459e-05
2.79076e-05
2.40208e-05
2.12822e-05
1.76773e-05
1.68277e-05
1.89524e-05
1.67881e-05
1.62925e-05
2.24617e-05
2.50546e-05
1.99632e-05
1.07772e-05
1.40729e-05
2.61198e-05
2.68452e-05
1.86023e-05
2.13417e-05
2.32578e-05
1.97011e-05
1.1287e-05
1.223e-05
1.11539e-05
1.77616e-05
1.78968e-05
1.51299e-05
1.86851e-05
1.6761e-05
1.29969e-05
1.15603e-05
1.65804e-05
1.6358e-05
2.29198e-05
2.27552e-05
2.54865e-05
2.02244e-05
2.19014e-05
3.55533e-05
5.85469e-05
5.74932e-05
4.62783e-05
3.85901e-05
3.26825e-05
2.65205e-05
2.07243e-05
1.75652e-05
1.99227e-05
2.15956e-05
2.13449e-05
2.29472e-05
2.41928e-05
2.07992e-05
1.56672e-05
1.37236e-05
1.72543e-05
1.88942e-05
2.3024e-05
2.64784e-05
2.01796e-05
1.40582e-05
1.50028e-05
1.08456e-05
1.01438e-05
1.65706e-05
2.06961e-05
1.53851e-05
1.81308e-05
1.81996e-05
1.38177e-05
9.30979e-06
8.74983e-06
1.17259e-05
1.67048e-05
2.02023e-05
1.78913e-05
2.1089e-05
5.87925e-06
1.08684e-05
4.21105e-05
6.41919e-05
6.53218e-05
5.55685e-05
4.47184e-05
3.44183e-05
2.59688e-05
1.94203e-05
1.91887e-05
2.37831e-05
2.66432e-05
2.48863e-05
2.15105e-05
1.90153e-05
1.62579e-05
1.34549e-05
1.52966e-05
2.12454e-05
2.57463e-05
2.42096e-05
1.43537e-05
7.5876e-06
1.30043e-05
1.2396e-05
1.2006e-05
1.5734e-05
2.30576e-05
2.02869e-05
1.61485e-05
1.48812e-05
1.30925e-05
1.25559e-05
1.55428e-05
1.60787e-05
1.34372e-05
2.01192e-05
2.37396e-05
2.15134e-05
1.95734e-05
2.12636e-05
1.91381e-05
3.92526e-05
6.12562e-05
6.67795e-05
5.71716e-05
3.9747e-05
2.40938e-05
1.5594e-05
1.35133e-05
1.69324e-05
2.31912e-05
2.64654e-05
2.37122e-05
2.13074e-05
1.91336e-05
1.34163e-05
1.0401e-05
1.46982e-05
1.75267e-05
1.55598e-05
1.06287e-05
1.30047e-05
1.89088e-05
1.93835e-05
1.61035e-05
1.39063e-05
1.77416e-05
2.15362e-05
1.94307e-05
1.58853e-05
1.40824e-05
1.49857e-05
1.69948e-05
1.80895e-05
1.82326e-05
2.10918e-05
2.61311e-05
2.48265e-05
2.19351e-05
1.8426e-05
2.26002e-05
2.4133e-05
2.7876e-05
4.40913e-05
5.41371e-05
4.73898e-05
2.96902e-05
1.36385e-05
1.09405e-05
1.4868e-05
1.41559e-05
1.43082e-05
2.12234e-05
2.62294e-05
2.52168e-05
2.05275e-05
1.87383e-05
1.77927e-05
1.20749e-05
7.80507e-06
1.00035e-05
1.503e-05
2.39963e-05
3.05668e-05
2.74873e-05
1.79271e-05
1.49508e-05
1.89862e-05
2.24942e-05
2.38257e-05
2.11822e-05
1.58484e-05
1.5667e-05
1.76866e-05
1.98191e-05
2.53069e-05
3.01458e-05
2.88199e-05
2.31669e-05
1.43542e-05
1.32461e-05
2.05959e-05
2.47445e-05
1.97125e-05
2.86183e-05
4.37333e-05
4.26864e-05
3.04723e-05
1.66542e-05
6.05306e-06
7.72647e-06
1.24257e-05
1.48519e-05
1.80878e-05
2.5836e-05
3.37619e-05
3.60599e-05
2.91769e-05
1.78637e-05
1.42571e-05
1.59308e-05
1.53711e-05
1.55703e-05
2.36484e-05
3.01019e-05
2.49349e-05
1.96294e-05
2.42556e-05
2.95596e-05
3.30346e-05
3.1956e-05
2.52469e-05
1.62591e-05
1.5819e-05
2.31724e-05
2.81317e-05
2.82205e-05
2.46596e-05
1.9744e-05
2.13004e-05
1.66007e-05
1.38472e-05
1.7738e-05
2.25853e-05
1.91766e-05
1.38271e-05
2.01003e-05
2.14027e-05
1.81027e-05
1.80726e-05
1.70373e-05
1.31581e-05
1.43922e-05
2.08615e-05
2.79768e-05
3.64553e-05
3.95876e-05
3.00724e-05
1.41583e-05
1.25143e-05
1.73296e-05
1.86078e-05
1.91082e-05
1.53134e-05
1.33683e-05
1.89559e-05
2.24564e-05
2.77045e-05
3.03147e-05
2.92948e-05
2.86858e-05
2.84937e-05
2.47307e-05
1.71861e-05
1.43804e-05
1.71272e-05
1.74888e-05
1.93423e-05
2.22325e-05
1.95918e-05
1.69841e-05
1.4888e-05
1.44186e-05
1.24423e-05
1.18937e-05
1.52047e-05
1.60247e-05
1.16789e-05
6.65638e-06
1.14273e-05
1.48791e-05
1.61804e-05
1.99884e-05
2.56794e-05
2.80842e-05
2.58249e-05
2.45841e-05
2.37472e-05
1.58324e-05
1.1263e-05
1.91317e-05
2.51443e-05
2.70887e-05
2.53144e-05
2.0248e-05
1.82788e-05
2.07012e-05
2.44546e-05
2.36146e-05
1.85203e-05
2.10706e-05
2.89945e-05
3.28262e-05
2.99193e-05
2.27994e-05
1.56497e-05
1.1804e-05
1.49063e-05
1.88004e-05
1.29033e-05
1.35519e-05
1.54856e-05
1.34976e-05
1.25883e-05
1.93548e-05
2.55766e-05
2.68565e-05
2.32647e-05
1.68939e-05
9.44345e-06
6.60105e-06
1.18283e-05
1.50067e-05
1.61769e-05
1.85721e-05
1.95954e-05
1.55587e-05
1.0605e-05
8.32129e-06
3.26415e-06
1.07309e-05
2.2018e-05
2.79012e-05
2.78094e-05
2.36174e-05
1.96954e-05
1.96989e-05
2.08463e-05
1.90294e-05
1.50529e-05
1.61559e-05
2.1101e-05
2.54495e-05
2.83281e-05
2.94491e-05
2.75316e-05
2.30091e-05
1.82586e-05
1.48528e-05
1.07678e-05
9.69917e-06
1.01266e-05
1.26191e-05
1.35044e-05
1.35817e-05
1.6835e-05
2.17473e-05
2.41128e-05
2.21537e-05
1.93532e-05
2.03465e-05
2.2912e-05
2.45355e-05
2.47852e-05
2.2264e-05
1.82257e-05
1.49818e-05
1.157e-05
7.62931e-06
5.5935e-06
6.42234e-06
9.51438e-06
1.60281e-05
2.18174e-05
2.19128e-05
1.87905e-05
1.84696e-05
1.72302e-05
1.33167e-05
1.26481e-05
1.24545e-05
8.20296e-06
5.89277e-06
8.85603e-06
1.28118e-05
1.70215e-05
1.73395e-05
1.37737e-05
1.15483e-05
9.70846e-06
9.2181e-06
1.18912e-05
1.39637e-05
1.25131e-05
9.02415e-06
1.03056e-05
1.45886e-05
1.5376e-05
1.40459e-05
1.42524e-05
1.36977e-05
1.09656e-05
9.14637e-06
1.05519e-05
1.4258e-05
1.64146e-05
1.46493e-05
1.21543e-05
1.15973e-05
1.21518e-05
1.67781e-05
2.26498e-05
2.44811e-05
2.21677e-05
1.83414e-05
1.40828e-05
1.10687e-05
1.23517e-05
1.60702e-05
1.89727e-05
1.83934e-05
1.36741e-05
8.78953e-06
9.27885e-06
1.06309e-05
1.04078e-05
9.6348e-06
1.02843e-05
1.0989e-05
1.89007e-05
1.76784e-05
1.75591e-05
2.06419e-05
2.34943e-05
2.40046e-05
2.39424e-05
2.35902e-05
2.02507e-05
1.39028e-05
1.0202e-05
1.30569e-05
1.39057e-05
1.11339e-05
1.01791e-05
1.46132e-05
1.83183e-05
1.85353e-05
1.71798e-05
1.61941e-05
1.49728e-05
1.8508e-05
2.59803e-05
2.78571e-05
2.2873e-05
1.83878e-05
1.65146e-05
1.58323e-05
1.88185e-05
2.47493e-05
2.78546e-05
2.46096e-05
1.98114e-05
1.62214e-05
1.06177e-05
7.81106e-06
7.89823e-06
6.47625e-06
1.20374e-05
1.75265e-05
5.47637e-05
5.94267e-05
6.36272e-05
6.73629e-05
7.01666e-05
7.13041e-05
7.08494e-05
6.96489e-05
6.82808e-05
6.65177e-05
6.44627e-05
6.30217e-05
6.28493e-05
6.36397e-05
6.47173e-05
6.57276e-05
6.70042e-05
6.91015e-05
7.18438e-05
7.42216e-05
7.56042e-05
7.63858e-05
7.73179e-05
7.93129e-05
8.25443e-05
8.55666e-05
8.67692e-05
8.58484e-05
8.32154e-05
7.9139e-05
7.32214e-05
6.49578e-05
5.57091e-05
4.89364e-05
4.55548e-05
4.41173e-05
4.3551e-05
4.41919e-05
4.64629e-05
5.01588e-05
5.24894e-05
5.77191e-05
6.33693e-05
6.88165e-05
7.31035e-05
7.53398e-05
7.55658e-05
7.43786e-05
7.24079e-05
7.02139e-05
6.83681e-05
6.71978e-05
6.66737e-05
6.65354e-05
6.65811e-05
6.68241e-05
6.77179e-05
6.96105e-05
7.20746e-05
7.42401e-05
7.56519e-05
7.6726e-05
7.82807e-05
8.11039e-05
8.49824e-05
8.83955e-05
9.00594e-05
8.9551e-05
8.7156e-05
8.38995e-05
7.9756e-05
7.32456e-05
6.36748e-05
5.38126e-05
4.71743e-05
4.39096e-05
4.27282e-05
4.31144e-05
4.49251e-05
4.81082e-05
4.86988e-05
5.45405e-05
6.12625e-05
6.80162e-05
7.3865e-05
7.77181e-05
7.93176e-05
7.89042e-05
7.71289e-05
7.50801e-05
7.35548e-05
7.24244e-05
7.13065e-05
7.01333e-05
6.89527e-05
6.77844e-05
6.71275e-05
6.76415e-05
6.91943e-05
7.0994e-05
7.2402e-05
7.35743e-05
7.52874e-05
7.83698e-05
8.27717e-05
8.71745e-05
9.03592e-05
9.1401e-05
9.00984e-05
8.82259e-05
8.67131e-05
8.35298e-05
7.51441e-05
6.18758e-05
5.00732e-05
4.35416e-05
4.09585e-05
4.04107e-05
4.14989e-05
4.42723e-05
4.38619e-05
4.97561e-05
5.68346e-05
6.42757e-05
7.1385e-05
7.70474e-05
8.0663e-05
8.19609e-05
8.12485e-05
7.986e-05
7.90267e-05
7.84397e-05
7.72351e-05
7.53699e-05
7.30805e-05
7.01468e-05
6.6854e-05
6.44722e-05
6.37629e-05
6.42468e-05
6.5008e-05
6.57682e-05
6.71717e-05
7.00968e-05
7.48322e-05
8.03832e-05
8.56972e-05
8.93936e-05
8.99099e-05
8.92294e-05
9.01263e-05
9.14032e-05
8.73956e-05
7.37579e-05
5.63541e-05
4.45028e-05
3.92106e-05
3.71913e-05
3.739e-05
3.96487e-05
3.82682e-05
4.34776e-05
4.98076e-05
5.66304e-05
6.38021e-05
7.0648e-05
7.64527e-05
8.04122e-05
8.19109e-05
8.18364e-05
8.20667e-05
8.28464e-05
8.27645e-05
8.12817e-05
7.88252e-05
7.48588e-05
6.88757e-05
6.23673e-05
5.74847e-05
5.47305e-05
5.32174e-05
5.22777e-05
5.24283e-05
5.46592e-05
5.93618e-05
6.56352e-05
7.29377e-05
8.03777e-05
8.4077e-05
8.41274e-05
8.60671e-05
9.17745e-05
9.53974e-05
8.74093e-05
6.78247e-05
4.92615e-05
3.9226e-05
3.47127e-05
3.33604e-05
3.46963e-05
3.29153e-05
3.71253e-05
4.1701e-05
4.62525e-05
5.09901e-05
5.66089e-05
6.33334e-05
7.02417e-05
7.51916e-05
7.73747e-05
7.88037e-05
8.12537e-05
8.36898e-05
8.44593e-05
8.35888e-05
8.05259e-05
7.36825e-05
6.36729e-05
5.37456e-05
4.60203e-05
4.02266e-05
3.59749e-05
3.43124e-05
3.61821e-05
4.07343e-05
4.5624e-05
5.10071e-05
6.10736e-05
7.03949e-05
7.16577e-05
7.18216e-05
7.97596e-05
9.25689e-05
9.66676e-05
8.28036e-05
5.98552e-05
4.30445e-05
3.45302e-05
3.05588e-05
3.02042e-05
2.86467e-05
3.23603e-05
3.54827e-05
3.76582e-05
3.85791e-05
3.93008e-05
4.20469e-05
4.83809e-05
5.63678e-05
6.20488e-05
6.49462e-05
6.82481e-05
7.33262e-05
7.80618e-05
8.11359e-05
8.183e-05
7.74256e-05
6.6976e-05
5.38969e-05
4.2082e-05
3.25196e-05
2.56544e-05
2.34274e-05
2.59904e-05
3.13531e-05
3.62432e-05
3.60064e-05
3.53458e-05
4.77185e-05
5.3308e-05
4.77863e-05
5.17822e-05
7.20241e-05
9.24236e-05
9.39986e-05
7.5261e-05
5.25084e-05
3.82281e-05
3.0687e-05
2.72929e-05
2.5655e-05
2.86348e-05
3.15539e-05
3.28926e-05
3.25263e-05
3.03081e-05
2.80641e-05
2.92822e-05
3.25543e-05
3.6873e-05
3.98571e-05
4.13329e-05
4.52158e-05
5.26297e-05
6.19749e-05
7.0132e-05
7.23515e-05
6.59643e-05
5.35124e-05
4.12009e-05
3.26055e-05
2.71447e-05
2.3452e-05
2.23623e-05
2.58064e-05
3.15558e-05
3.33383e-05
2.99598e-05
2.58404e-05
3.59288e-05
2.78013e-05
1.67632e-05
2.97281e-05
6.50642e-05
9.00994e-05
8.83452e-05
6.79859e-05
4.73446e-05
3.52445e-05
2.78981e-05
2.64699e-05
2.50147e-05
2.80694e-05
3.06679e-05
3.14926e-05
3.01726e-05
2.65702e-05
2.36431e-05
2.50599e-05
2.42738e-05
2.20728e-05
1.97058e-05
2.02951e-05
2.49393e-05
2.7192e-05
3.56836e-05
4.94976e-05
5.41331e-05
4.74382e-05
3.73795e-05
3.24573e-05
3.36734e-05
3.6262e-05
3.55156e-05
3.17519e-05
3.24334e-05
3.54083e-05
2.82498e-05
2.60222e-05
2.18526e-05
2.8239e-05
7.20253e-06
2.3069e-05
2.14046e-05
6.08259e-05
8.66548e-05
8.36397e-05
6.31533e-05
4.48044e-05
3.41847e-05
3.40353e-05
2.56919e-05
2.4285e-05
2.85355e-05
3.29773e-05
3.37783e-05
3.08393e-05
2.51666e-05
2.09089e-05
2.16526e-05
2.09753e-05
1.99096e-05
2.23209e-05
3.05141e-05
3.69363e-05
2.91079e-05
1.54608e-05
2.88747e-05
3.57433e-05
3.17331e-05
2.82598e-05
3.22736e-05
4.01612e-05
4.53495e-05
4.0901e-05
3.11603e-05
3.29905e-05
3.50766e-05
2.07423e-05
2.32052e-05
1.99174e-05
2.80087e-05
8.27635e-06
3.3369e-05
2.04802e-05
5.86768e-05
8.53494e-05
8.09598e-05
5.94904e-05
4.40244e-05
4.2754e-05
3.25627e-05
2.3503e-05
2.40846e-05
3.15507e-05
3.70833e-05
3.69902e-05
3.13959e-05
2.1638e-05
1.60366e-05
1.86248e-05
1.95513e-05
1.7625e-05
1.74127e-05
2.53026e-05
3.40351e-05
2.78546e-05
1.10055e-05
2.17745e-05
2.79471e-05
2.68097e-05
2.8001e-05
3.21789e-05
3.77245e-05
4.02559e-05
3.00904e-05
2.00012e-05
2.65804e-05
2.45763e-05
1.62972e-05
2.01381e-05
1.89476e-05
2.70241e-05
1.5228e-05
3.6692e-05
2.05516e-05
5.9083e-05
8.49895e-05
7.56659e-05
5.46142e-05
4.78582e-05
3.71127e-05
2.58515e-05
1.99569e-05
2.55689e-05