/*--------------------------------*- C++ -*----------------------------------*\
| =========                 |                                                 |
| \\      /  F ield         | OpenFOAM: The Open Source CFD Toolbox           |
|  \\    /   O peration     | Version:  2306                                  |
|   \\  /    A nd           | Website:  www.openfoam.com                      |
|    \\/     M anipulation  |                                                 |
\*---------------------------------------------------------------------------*/
FoamFile
{
    version     2.0;
    format      ascii;
    arch        "LSB;label=32;scalar=64";
    class       volScalarField;
    location    "3.5";
    object      p;
}
// * * * * * * * * * * * * * * * * * * * * * * * * * * * * * * * * * * * * * //

dimensions      [0 2 -2 0 0 0 0];

internalField   nonuniform List<scalar> 
60000
(
2.06944e-05
-4.2697e-05
-4.95742e-05
-7.20632e-06
3.93855e-05
6.53777e-05
7.89164e-05
9.38888e-05
9.82103e-05
7.82701e-05
5.17365e-05
5.163e-05
8.98135e-05
0.000148172
0.000196735
0.000204173
0.00016447
0.000114875
7.83822e-05
3.91582e-05
-1.55884e-05
-6.28046e-05
-6.99429e-05
-1.92103e-05
6.10606e-05
0.000123957
0.000151197
0.000138581
9.93915e-05
8.9914e-05
0.000143803
0.000205606
0.000226193
0.000215691
0.000195989
0.000173761
0.000150406
0.000140288
0.00013364
9.75634e-05
2.2203e-05
-4.32428e-05
-5.16539e-05
-9.7504e-06
3.77821e-05
6.46592e-05
7.83922e-05
9.31191e-05
9.71778e-05
7.69131e-05
5.00955e-05
4.99316e-05
8.82339e-05
0.000146889
0.000195961
0.000204097
0.000164858
0.000115413
7.9152e-05
3.99108e-05
-1.50678e-05
-6.29805e-05
-7.07862e-05
-2.02577e-05
6.0077e-05
0.000122825
0.00014997
0.000137422
9.81839e-05
8.81948e-05
0.000142076
0.000204825
0.000226235
0.000216302
0.000197275
0.000175641
0.000152329
0.000142006
0.000135824
9.95878e-05
2.19488e-05
-4.64727e-05
-5.64733e-05
-1.4094e-05
3.51877e-05
6.36731e-05
7.78381e-05
9.24956e-05
9.65607e-05
7.6048e-05
4.84812e-05
4.74562e-05
8.54462e-05
0.000144758
0.000195216
0.000204815
0.000166132
0.000116438
7.99664e-05
4.0335e-05
-1.53172e-05
-6.43843e-05
-7.25798e-05
-2.16452e-05
5.92392e-05
0.000121723
0.000148673
0.000136163
9.60237e-05
8.4828e-05
0.000139008
0.000203315
0.000225656
0.000216479
0.000198526
0.00017751
0.000153603
0.000142506
0.000137107
0.00010042
1.97268e-05
-5.28412e-05
-6.45797e-05
-2.0706e-05
3.12965e-05
6.21676e-05
7.71376e-05
9.19801e-05
9.63164e-05
7.56945e-05
4.70719e-05
4.4519e-05
8.15268e-05
0.000141604
0.000194496
0.000206605
0.000168603
0.000118142
8.09343e-05
4.04386e-05
-1.64238e-05
-6.69431e-05
-7.52227e-05
-2.30053e-05
5.91997e-05
0.000121289
0.000147559
0.000134424
9.25453e-05
7.94728e-05
0.000134846
0.000201358
0.000224394
0.000215818
0.000199598
0.000179453
0.00015426
0.000141671
0.000137758
9.9912e-05
1.65989e-05
-6.13787e-05
-7.50266e-05
-2.9654e-05
2.56456e-05
5.96926e-05
7.59931e-05
9.13901e-05
9.63688e-05
7.59471e-05
4.65569e-05
4.22121e-05
7.72825e-05
0.000137297
0.000193056
0.000209059
0.000172371
0.00012088
8.24094e-05
4.03705e-05
-1.8168e-05
-7.08203e-05
-7.89793e-05
-2.51999e-05
5.8425e-05
0.000120364
0.000146474
0.000132188
8.75339e-05
7.29214e-05
0.000130383
0.000199836
0.000222981
0.000214243
0.000200246
0.000182012
0.000155242
0.00014071
0.000138536
9.91947e-05
1.15401e-05
-7.22884e-05
-8.80304e-05
-4.10132e-05
1.74758e-05
5.55593e-05
7.41555e-05
9.05531e-05
9.62266e-05
7.65179e-05
4.70716e-05
4.17819e-05
7.44721e-05
0.000132972
0.000190557
0.000211405
0.000177279
0.000125042
8.50153e-05
4.06641e-05
-2.08275e-05
-7.68094e-05
-8.59251e-05
-3.02684e-05
5.48183e-05
0.000113357
0.000139409
0.000127674
8.08968e-05
6.50969e-05
0.000126145
0.000199904
0.000223025
0.000212807
0.0002007
0.00018574
0.000157545
0.000141004
0.000140913
0.000104464
1.66565e-05
-8.42536e-05
-0.000107535
-5.77857e-05
5.10804e-06
4.82471e-05
7.08507e-05
8.96735e-05
9.58254e-05
7.59422e-05
4.79823e-05
4.32401e-05
7.46519e-05
0.00013096
0.000188208
0.000213189
0.000182849
0.000130781
8.93018e-05
4.20387e-05
-2.39691e-05
-8.5638e-05
-9.81917e-05
-4.04747e-05
4.8758e-05
0.000105311
0.0001249
0.000114157
6.77586e-05
5.43741e-05
0.000121092
0.000201129
0.000225876
0.000214241
0.000202605
0.00019023
0.000161308
0.000142311
0.000145792
0.000117419
3.3879e-05
-8.94615e-05
-0.000129283
-8.30481e-05
-1.35278e-05
3.70599e-05
6.46756e-05
8.73073e-05
9.57301e-05
7.41593e-05
4.53663e-05
4.36148e-05
7.8693e-05
0.000133415
0.000188891
0.00021509
0.000188608
0.000137969
9.53721e-05
4.47193e-05
-2.71906e-05
-9.51728e-05
-0.000110797
-4.99376e-05
4.75529e-05
0.000107719
0.00011605
9.90475e-05
4.5695e-05
3.65223e-05
0.000112647
0.00019941
0.0002259
0.000217926
0.000209709
0.00019764
0.000163467
0.000140018
0.000149057
0.000136509
6.33125e-05
-8.56449e-05
-0.000150332
-0.00011269
-3.90891e-05
2.23991e-05
5.68604e-05
8.21161e-05
9.34301e-05
7.31189e-05
4.20416e-05
3.90702e-05
7.59256e-05
0.000137338
0.000194334
0.000218849
0.000194267
0.00014637
0.000102944
4.78834e-05
-3.01439e-05
-0.000101188
-0.000114085
-4.55374e-05
6.3025e-05
0.000128948
0.000125434
8.40856e-05
1.82219e-05
8.59691e-06
9.92809e-05
0.000197093
0.000223259
0.000212218
0.000209299
0.000203681
0.00016536
0.000134237
0.000145566
0.000156699
0.000104737
-6.69909e-05
-0.000166186
-0.000149614
-7.19326e-05
3.14456e-06
4.70681e-05
7.54259e-05
8.93715e-05
7.07888e-05
3.97137e-05
3.59407e-05
6.81922e-05
0.00012686
0.000190024
0.000222023
0.000198809
0.000154834
0.000111789
5.13212e-05
-3.46211e-05
-0.000105494
-0.000108895
-2.58646e-05
9.98531e-05
0.000175822
0.000158516
8.51835e-05
-3.08614e-06
-2.53785e-05
7.94479e-05
0.000187854
0.000215164
0.000204126
0.000206368
0.000205245
0.000166058
0.000129999
0.000138645
0.000173096
0.000150576
-2.54157e-05
-0.000164267
-0.000176559
-0.000113371
-2.3718e-05
3.44032e-05
6.94515e-05
8.5838e-05
7.12571e-05
3.70862e-05
3.13539e-05
5.91552e-05
0.000111056
0.000168876
0.000205691
0.000194723
0.00015945
0.000120461
5.56698e-05
-3.99167e-05
-0.000111004
-0.000102894
-2.94674e-06
0.000144129
0.00024019
0.000218161
0.00011032
-1.07566e-05
-5.60502e-05
4.68635e-05
0.000166789
0.00019663
0.000188506
0.000203609
0.000209173
0.000176474
0.000136621
0.000137792
0.000183827
0.000187329
3.05767e-05
-0.000135473
-0.000181191
-0.000142371
-5.66201e-05
1.40594e-05
6.34887e-05
8.5198e-05
7.48975e-05
3.91582e-05
3.04136e-05
5.26298e-05
9.83762e-05
0.000146349
0.000173283
0.00016559
0.000145609
0.000119329
6.20146e-05
-3.79425e-05
-0.000107331
-9.56388e-05
1.17984e-05
0.000171232
0.000292514
0.000289556
0.000164549
1.18523e-05
-6.68726e-05
2.34296e-05
0.000135747
0.000169615
0.000166089
0.000199721
0.000220223
0.000195411
0.000159106
0.000150708
0.000191023
0.000204391
8.40803e-05
-8.41472e-05
-0.000158809
-0.000149168
-9.05975e-05
-1.13257e-05
5.30102e-05
8.42706e-05
8.09043e-05
4.28096e-05
3.02985e-05
5.17253e-05
9.3124e-05
0.000133107
0.000146881
0.000128431
0.000108043
9.83299e-05
6.11593e-05
-1.51291e-05
-8.21255e-05
-7.20249e-05
2.3814e-05
0.000167349
0.000301836
0.000339338
0.000232762
6.73249e-05
-2.96184e-05
1.75561e-05
0.000104317
0.000141467
0.000157213
0.000192889
0.000225805
0.000216175
0.000189146
0.000176646
0.000191575
0.00020128
0.00012382
-1.94241e-05
-0.000110602
-0.000130415
-0.000102133
-3.15228e-05
4.41358e-05
8.24869e-05
7.7036e-05
4.4252e-05
2.82847e-05
4.83141e-05
8.92746e-05
0.000128664
0.000138587
0.000107614
6.92216e-05
7.45272e-05
5.59237e-05
-6.89034e-06
-4.92895e-05
-4.6981e-05
2.78869e-05
0.000144349
0.000266731
0.000347621
0.000283522
0.000133137
2.48382e-05
2.68526e-05
7.8422e-05
0.000117656
0.000147353
0.000191407
0.00022683
0.000226687
0.000211241
0.000192477
0.00018075
0.000187036
0.000154696
5.05655e-05
-4.17387e-05
-8.91453e-05
-9.26237e-05
-3.50143e-05
4.04691e-05
8.50939e-05
7.29269e-05
4.32504e-05
2.65828e-05
4.12894e-05
8.02033e-05
0.000123308
0.000141411
0.000114348
7.18943e-05
6.94304e-05
5.89981e-05
1.20535e-06
-6.32801e-05
-3.33394e-05
3.03907e-05
0.000114161
0.00023193
0.000330053
0.000310311
0.000184256
7.43028e-05
3.99865e-05
5.57518e-05
9.81992e-05
0.000137114
0.000181637
0.000216542
0.000228972
0.000220534
0.000196981
0.000157852
0.000175052
0.000165329
0.000106564
3.16845e-05
-3.34645e-05
-6.6892e-05
-2.6489e-05
4.74226e-05
9.36197e-05
6.95149e-05
3.54946e-05
2.3994e-05
3.96627e-05
7.23487e-05
0.000111603
0.000136886
0.000125298
9.15431e-05
8.4767e-05
6.83829e-05
1.0382e-05
-4.46363e-05
-1.62189e-05
4.98302e-05
9.77694e-05
0.000183597
0.000287669
0.000313877
0.000217977
0.000112994
5.3261e-05
3.34607e-05
8.09283e-05
0.000119297
0.000157046
0.000200074
0.000228117
0.00022688
0.000197534
0.000166773
0.000167186
0.000165128
0.000132841
7.98589e-05
2.10849e-05
-2.47194e-05
-5.66548e-06
5.64181e-05
8.71663e-05
7.27102e-05
2.64548e-05
1.2629e-05
3.4194e-05
6.7203e-05
0.000106438
0.000130974
0.000124852
0.000100374
8.79326e-05
7.42203e-05
2.66864e-05
-2.21211e-05
8.16291e-06
7.71702e-05
0.000109951
0.000151512
0.000235576
0.000278492
0.00022658
0.000146765
7.60957e-05
4.23023e-05
6.5777e-05
9.17047e-05
0.000142826
0.000182714
0.00021201
0.000227461
0.000201961
0.00016522
0.000141369
0.000140332
0.000130324
0.000104551
6.94352e-05
3.02254e-05
2.81899e-05
6.27818e-05
7.78108e-05
5.51615e-05
1.94262e-05
9.41378e-06
2.53356e-05
5.67502e-05
9.82568e-05
0.000133867
0.000136499
0.000112466
8.85206e-05
7.44215e-05
3.77645e-05
-2.85955e-06
1.90733e-05
9.12964e-05
0.00011991
0.000138988
0.00020581
0.000243248
0.000214776
0.000150249
8.12748e-05
4.71444e-05
6.41277e-05
0.000114472
0.000147583
0.00018806
0.000209625
0.000225697
0.000198185
0.000158531
0.000116248
0.00011587
0.00011038
9.29342e-05
7.53327e-05
7.10606e-05
7.87538e-05
8.47867e-05
7.39747e-05
4.15844e-05
8.07844e-06
4.92737e-07
6.45388e-06
3.23076e-05
6.82059e-05
0.000113823
0.000137373
0.000117987
0.000104879
9.26492e-05
7.15069e-05
3.51089e-05
3.4736e-05
9.47307e-05
0.000112748
0.000127186
0.000194044
0.000233585
0.000210758
0.000139083
7.16196e-05
5.15693e-05
7.17824e-05
0.00010453
0.000141011
0.000186844
0.000216403
0.000223434
0.000191545
0.000143786
0.00010218
9.84136e-05
8.04491e-05
7.55344e-05
6.96527e-05
6.60344e-05
7.66713e-05
9.18928e-05
8.14743e-05
5.15039e-05
2.22108e-05
7.78508e-06
3.19459e-06
2.40874e-06
1.88781e-05
5.78967e-05
9.65499e-05
0.000102622
9.71274e-05
0.000105498
0.000110058
8.16535e-05
5.32109e-05
6.66829e-05
7.86515e-05
0.000111321
0.000171767
0.000225858
0.000207489
0.000133314
6.57001e-05
4.26159e-05
5.57813e-05
8.48022e-05
0.000120812
0.000170648
0.000203411
0.000201835
0.000172194
0.00013509
0.000110611
5.88428e-05
4.12176e-05
3.60438e-05
4.24588e-05
6.88633e-05
9.18146e-05
9.49095e-05
7.12043e-05
4.27842e-05
2.6613e-05
1.93523e-05
1.04752e-05
-2.40258e-06
-4.77447e-06
1.50851e-05
4.91257e-05
7.35233e-05
8.39586e-05
9.86924e-05
0.000117957
0.000106806
6.83607e-05
4.33256e-05
5.70596e-05
0.000107042
0.000175893
0.000228742
0.000210162
0.000120936
2.78954e-05
-2.01461e-05
2.84914e-07
5.14864e-05
0.000107034
0.000156045
0.000189206
0.000190709
0.000171652
0.000147278
0.000149278
0.000127209
8.88769e-05
5.48637e-05
3.7272e-05
5.76904e-05
8.1528e-05
9.00874e-05
7.18516e-05
4.6744e-05
3.05302e-05
2.09604e-05
1.43012e-05
9.54702e-06
7.16613e-06
1.13029e-05
1.80363e-05
3.7415e-05
6.22507e-05
9.4113e-05
0.000117928
0.000113528
8.52342e-05
5.93283e-05
5.9531e-05
9.84468e-05
0.000166752
0.000246774
0.000231723
0.000139336
2.29936e-05
-6.34852e-05
-5.04278e-05
4.06769e-06
8.18408e-05
0.000156851
0.000191794
0.000177628
0.000149556
0.000140731
0.000137976
0.000133674
0.000115925
9.09267e-05
7.35553e-05
5.86354e-05
5.59165e-05
5.95974e-05
5.42483e-05
4.8908e-05
4.44434e-05
3.37991e-05
2.32618e-05
2.16761e-05
3.37357e-05
4.18878e-05
4.49797e-05
4.76393e-05
6.01525e-05
9.00309e-05
0.00011415
0.000117517
9.89221e-05
7.77357e-05
7.54096e-05
9.96875e-05
0.000144175
0.000190996
0.000203166
0.000146757
6.04891e-05
-5.96882e-06
-2.06435e-05
9.32923e-06
6.93982e-05
0.000130322
0.000164937
0.00016301
0.000145535
0.00013326
0.000149165
0.000145232
0.00011313
6.65602e-05
2.4007e-05
1.59216e-05
2.19709e-05
3.62375e-05
5.09962e-05
6.37327e-05
7.06675e-05
6.57484e-05
5.20001e-05
3.23359e-05
2.87394e-05
3.26738e-05
4.20601e-05
6.2721e-05
8.38989e-05
0.000104545
0.000121632
0.000128947
0.000117932
9.65715e-05
7.63551e-05
7.22148e-05
9.84115e-05
0.000145839
0.000172595
0.000146203
8.31954e-05
2.50489e-05
5.24593e-06
-8.00426e-07
5.32495e-05
0.000101633
0.000134893
0.000139638
0.000131621
0.000135272
0.000147146
0.000144324
0.000115094
6.64348e-05
1.92271e-05
-6.93591e-06
-3.84812e-06
1.31073e-05
3.54213e-05
5.69674e-05
7.0186e-05
6.62651e-05
5.22406e-05
5.27804e-05
5.62054e-05
6.20408e-05
6.06775e-05
5.90612e-05
7.98441e-05
0.000119654
0.000156017
0.000165065
0.000145929
0.000108066
7.14619e-05
5.17027e-05
5.54011e-05
8.97493e-05
0.000128828
0.000135115
0.000100314
5.19027e-05
1.9711e-05
2.03351e-05
4.75459e-05
8.14027e-05
0.000110822
0.000125511
0.000131749
0.000131076
0.000128506
5.1149e-08
-9.03748e-05
-0.000117273
-9.12621e-05
-4.01894e-05
1.49868e-05
6.09337e-05
7.49235e-05
4.89762e-05
1.91862e-05
2.69001e-05
7.27166e-05
0.000126042
0.000157132
0.000149692
0.000114424
8.70465e-05
7.66022e-05
5.89144e-05
1.38982e-05
-3.95967e-05
-5.98045e-05
-1.54428e-05
8.76665e-05
0.00019016
0.000234916
0.000239199
0.000235195
0.000223162
0.000221052
0.000239529
0.00026054
0.000274029
0.000269728
0.000241133
0.000204941
0.000201261
0.00022862
0.000219313
0.000132102
2.68451e-06
-8.88509e-05
-0.000117463
-9.25496e-05
-4.18796e-05
1.31392e-05
5.95948e-05
7.39213e-05
4.78177e-05
1.76152e-05
2.50858e-05
7.12563e-05
0.000125014
0.00015649
0.000149361
0.000114186
8.68604e-05
7.65896e-05
5.91192e-05
1.41101e-05
-3.98948e-05
-6.11788e-05
-1.81896e-05
8.38804e-05
0.000186186
0.000231269
0.000235707
0.000232388
0.00022131
0.000219373
0.000237563
0.000258549
0.00027275
0.0002696
0.000241895
0.000206035
0.000202426
0.000230403
0.000222487
0.000136228
3.95342e-06
-9.01665e-05
-0.000120684
-9.61875e-05
-4.50296e-05
1.08586e-05
5.8336e-05
7.32695e-05
4.67533e-05
1.54908e-05
2.23664e-05
6.89613e-05
0.000123562
0.000155746
0.00014904
0.00011379
8.64499e-05
7.65263e-05
5.95154e-05
1.43682e-05
-4.05996e-05
-6.31603e-05
-2.12088e-05
8.06139e-05
0.000183404
0.00022868
0.000232539
0.000229846
0.00022009
0.000218139
0.00023541
0.000255659
0.00027066
0.000269625
0.00024337
0.000207165
0.000203535
0.000232561
0.000227088
0.00014029
2.50234e-06
-9.58002e-05
-0.000128025
-0.000102656
-4.98671e-05
7.82229e-06
5.71458e-05
7.31129e-05
4.60778e-05
1.31224e-05
1.8843e-05
6.57883e-05
0.000121618
0.000154958
0.000148792
0.000113193
8.57351e-05
7.65471e-05
6.01244e-05
1.46357e-05
-4.17285e-05
-6.53815e-05
-2.34745e-05
7.94115e-05
0.000183385
0.00022838
0.00023037
0.000227716
0.00021938
0.000217423
0.00023363
0.000252443
0.000267635
0.000269072
0.000244964
0.00020793
0.000204364
0.000235312
0.000233567
0.000144884
-1.49316e-06
-0.000105846
-0.000139787
-0.000112265
-5.66889e-05
3.66659e-06
5.573e-05
7.33015e-05
4.59788e-05
1.15052e-05
1.56871e-05
6.23556e-05
0.000119099
0.000153879
0.000148492
0.000112298
8.46006e-05
7.65458e-05
6.09858e-05
1.46854e-05
-4.34064e-05
-6.79839e-05
-2.53135e-05
7.92612e-05
0.000184992
0.000229616
0.000228935
0.000225816
0.000218783
0.000217079
0.000232876
0.000250024
0.000264117
0.000266876
0.000245075
0.000207237
0.000204316
0.000239519
0.000242637
0.000151685
-5.74195e-06
-0.000119216
-0.000155835
-0.000125391
-6.62115e-05
-2.47707e-06
5.33317e-05
7.31944e-05
4.61293e-05
1.09941e-05
1.4703e-05
6.07875e-05
0.000116976
0.000152443
0.000148025
0.000111198
8.31522e-05
7.65908e-05
6.22339e-05
1.45467e-05
-4.60261e-05
-7.27452e-05
-3.01258e-05
7.5762e-05
0.000183212
0.000226802
0.000224361
0.000222508
0.000217629
0.00021666
0.000233384
0.000249774
0.000261551
0.0002633
0.000242483
0.000203286
0.000202194
0.000245541
0.000251628
0.000165425
-4.73905e-06
-0.000131419
-0.000175212
-0.000142126
-7.88061e-05
-1.16417e-05
4.86922e-05
7.19512e-05
4.53329e-05
1.01133e-05
1.516e-05
6.25498e-05
0.0001179
0.000151928
0.000147531
0.000110038
8.1621e-05
7.68681e-05
6.40693e-05
1.44242e-05
-5.11777e-05
-8.46574e-05
-4.54617e-05
6.24606e-05
0.000173177
0.000215258
0.000208459
0.000209958
0.000211928
0.000213942
0.000233729
0.000251735
0.000261454
0.00025974
0.000237715
0.000194195
0.000194093
0.000252137
0.00026895
0.00019284
9.31472e-06
-0.000133432
-0.000192828
-0.000162158
-9.47507e-05
-2.34988e-05
4.06454e-05
6.924e-05
4.44228e-05
8.98797e-06
1.26067e-05
6.20165e-05
0.000120879
0.000154324
0.000148399
0.000109216
8.00447e-05
7.7269e-05
6.61079e-05
1.41543e-05
-6.03219e-05
-0.000104737
-7.40364e-05
3.45764e-05
0.000154211
0.000199278
0.000183528
0.00018431
0.000195141
0.000204626
0.000228749
0.000250326
0.000262258
0.000257651
0.000234045
0.000182377
0.000178888
0.000254701
0.000293909
0.000234102
3.85125e-05
-0.000123261
-0.000199329
-0.000182251
-0.000114789
-3.80334e-05
2.9852e-05
6.40682e-05
4.40667e-05
1.08282e-05
1.1698e-05
5.57756e-05
0.00011534
0.000154725
0.000151149
0.000110061
7.87675e-05
7.73424e-05
6.73087e-05
1.29474e-05
-6.94812e-05
-0.000121921
-0.000100897
3.08261e-06
0.000128968
0.000182432
0.00015897
0.000151785
0.00016674
0.000186715
0.000221147
0.000245293
0.000254408
0.000249458
0.000234883
0.000177339
0.000163223
0.000250259
0.00032131
0.000284221
8.30731e-05
-0.000102316
-0.000195185
-0.000199951
-0.000138051
-5.52395e-05
1.76857e-05
5.76728e-05
4.2536e-05
1.14318e-05
1.23875e-05
5.05635e-05
0.00010402
0.000143337
0.000147991
0.000112018
7.87897e-05
7.70854e-05
6.69899e-05
9.62041e-06
-7.47005e-05
-0.000127292
-0.000106247
-7.96361e-06
0.000112946
0.00016888
0.000140596
0.000113992
0.000129307
0.00015863
0.000208835
0.000243169
0.000250673
0.000242197
0.00023273
0.000183691
0.000159035
0.000242297
0.000343121
0.000330687
0.000140719
-6.73284e-05
-0.000184817
-0.000211922
-0.000164771
-7.38682e-05
6.97656e-06
5.27896e-05
4.16968e-05
1.20114e-05
1.208e-05
4.64554e-05
9.32452e-05
0.000126979
0.000132305
0.000104307
7.60049e-05
7.5528e-05
6.45116e-05
3.82518e-06
-8.0033e-05
-0.000124653
-9.11017e-05
7.18683e-06
0.000120231
0.000168669
0.000133963
8.83524e-05
9.14467e-05
0.000121653
0.000186567
0.000237011
0.000254482
0.000243136
0.000237313
0.000202006
0.000171299
0.000239452
0.000353499
0.000359922
0.000199927
-1.46738e-05
-0.000158321
-0.000214555
-0.00019263
-9.77657e-05
-5.91393e-06
5.03937e-05
4.28533e-05
1.1741e-05
7.76252e-06
4.13211e-05
8.4634e-05
0.000112175
0.000112937
8.73608e-05
6.3894e-05
6.79212e-05
5.73604e-05
-3.45578e-06
-8.70159e-05
-0.000120115
-6.69734e-05
3.37507e-05
0.00013897
0.000182949
0.000144386
8.67923e-05
7.0664e-05
8.48457e-05
0.000156628
0.000215803
0.000256871
0.000242449
0.000244981
0.000222583
0.000194994
0.000242202
0.000352645
0.000366567
0.000246531
4.64322e-05
-0.000112509
-0.00019814
-0.000201467
-0.000123475
-2.25156e-05
4.49064e-05
4.09961e-05
1.06929e-05
-1.2491e-07
3.47397e-05
8.15789e-05
0.000105987
9.74186e-05
6.84481e-05
4.78408e-05
4.82024e-05
4.71892e-05
-5.45463e-06
-8.87793e-05
-0.000118857
-5.5136e-05
4.63516e-05
0.000140905
0.000193773
0.000164435
0.000105805
6.35037e-05
6.56288e-05
0.000124068
0.000183647
0.000223852
0.000234648
0.000250442
0.000241016
0.000212625
0.00023763
0.000336978
0.000350491
0.000272524
0.000104866
-5.34046e-05
-0.000159202
-0.000192792
-0.000135447
-4.10647e-05
3.71133e-05
4.22938e-05
1.05623e-05
-6.5283e-06
2.91448e-05
8.16571e-05
0.000108844
9.26511e-05
5.98732e-05
3.7328e-05
4.53268e-05
4.71272e-05
3.70429e-06
-7.76833e-05
-9.68505e-05
-4.21846e-05
4.23979e-05
0.000124754
0.000189697
0.000182181
0.000131681
8.00789e-05
7.22546e-05
0.00010374
0.000149476
0.000184327
0.00021049
0.00024454
0.000252985
0.000223074
0.000219921
0.000304615
0.000315041
0.000278633
0.000153723
9.84066e-06
-0.000105292
-0.000164266
-0.000136868
-5.74153e-05
2.62262e-05
3.85298e-05
1.16357e-05
-5.57481e-06
2.44343e-05
7.86067e-05
0.000111448
0.000102482
7.81286e-05
5.51941e-05
5.51511e-05
5.08269e-05
5.37722e-06
-6.33779e-05
-7.03072e-05
-2.22331e-05
4.02853e-05
0.000117431
0.000187639
0.000201547
0.000155605
0.000110434
8.55411e-05
9.33436e-05
0.000122772
0.000155354
0.000184488
0.000221197
0.000248288
0.000229092
0.000210332
0.000260594
0.000269353
0.00026182
0.000186707
7.02711e-05
-3.96175e-05
-0.000111495
-0.000115429
-5.56782e-05
7.66906e-06
3.03759e-05
7.65516e-06
-4.12744e-06
2.29188e-05
7.63637e-05
0.000115476
0.000117726
9.48893e-05
7.00066e-05
6.55506e-05
4.53391e-05
-1.95725e-05
-5.96351e-05
-4.96282e-05
5.50821e-06
4.87551e-05
0.000123592
0.000180285
0.000220772
0.000185264
0.000126451
9.00995e-05
8.66079e-05
0.000107351
0.000134009
0.000164428
0.000203754
0.000242872
0.000241778
0.000213007
0.000230706
0.000229755
0.000237567
0.000190331
0.00010169
2.06096e-05
-2.76815e-05
-4.53155e-05
-2.89467e-05
1.44298e-06
9.52135e-06
-4.77053e-06
-1.04481e-05
1.87861e-05
7.47822e-05
0.000120452
0.000128638
0.000106243
8.44619e-05
7.31552e-05
5.65017e-05
-4.84972e-06
-4.6074e-05
-2.95781e-05
3.31742e-05
7.4082e-05
0.000107112
0.000169943
0.000217954
0.00019759
0.000140762
9.48356e-05
7.75422e-05
9.5175e-05
0.000122565
0.000156537
0.000191626
0.000234594
0.00025221
0.000219087
0.000206692
0.000186531
0.000196974
0.000180179
0.000122723
7.09274e-05
4.77725e-05
3.80128e-05
2.5607e-05
1.25905e-05
7.14677e-06
-1.46562e-05
-2.2446e-05
6.1824e-06
6.98237e-05
0.000121473
0.000144299
0.000121094
9.72641e-05
7.59845e-05
6.04178e-05
2.44044e-05
-1.90533e-05
-1.58487e-05
3.39509e-05
9.27226e-05
0.000123383
0.000179131
0.000212901
0.000200078
0.000144162
9.43149e-05
7.77255e-05
9.06373e-05
0.000119437
0.000152618
0.000191703
0.000235289
0.000249274
0.000216742
0.000178081
0.000137011
0.000153673
0.000158808
0.000121879
8.53423e-05
9.59045e-05
0.000115062
9.01997e-05
4.40842e-05
6.09477e-06
-1.5729e-05
-2.31781e-05
-1.09195e-05
3.03868e-05
8.51209e-05
0.000125016
0.000138924
0.000121784
8.59315e-05
6.93002e-05
5.15208e-05
1.71335e-05
-2.29785e-06
8.57875e-06
8.12424e-05
0.000131283
0.000206823
0.000218069
0.00019886
0.000140448
9.23119e-05
7.86053e-05
8.97974e-05
0.000111019
0.000146766
0.000182411
0.00022197
0.000234759
0.000206952
0.000158002
0.000116949
0.000109383
0.000118992
0.000118111
0.000102945
9.05551e-05
0.000102878
0.00010028
7.66326e-05
3.75781e-05
5.87112e-06
-1.46927e-05
-1.5443e-05
-1.34068e-06
2.98124e-05
6.56629e-05
9.8123e-05
0.000110391
0.000104857
9.11343e-05
8.32747e-05
5.80512e-05
2.42765e-05
8.98608e-06
4.14431e-05
9.9993e-05
0.000177917
0.00021451
0.000193063
0.000130201
8.197e-05
7.24167e-05
9.07813e-05
0.000113096
0.00014043
0.000170136
0.000197105
0.000202697
0.00018249
0.000149458
0.000121217
8.91416e-05
8.24017e-05
8.3172e-05
8.30737e-05
0.000104964
0.000118638
0.000114815
8.00194e-05
4.05281e-05
1.69464e-05
5.8589e-07
-1.83937e-05
-2.59128e-05
-1.6623e-05
6.55106e-06
3.58882e-05
6.54205e-05
8.90684e-05
0.000101101
9.6297e-05
7.40347e-05
4.25316e-05
2.22855e-05
4.87143e-05
9.81005e-05
0.000170603
0.000206408
0.000182333
0.000116706
5.33674e-05
3.93133e-05
5.99366e-05
0.000103091
0.000143877
0.000169472
0.000182955
0.000184098
0.000173937
0.000156377
0.0001539
0.00013864
0.00010826
8.89421e-05
8.01054e-05
9.36898e-05
0.00011185
0.000113823
8.38187e-05
4.57931e-05
2.29798e-05
1.36921e-05
5.4894e-06
-5.77213e-06
-1.39427e-05
-1.6365e-05
-1.08626e-05
4.41884e-06
3.66002e-05
7.24028e-05
8.91064e-05
8.36503e-05
6.7088e-05
5.4906e-05
6.56815e-05
9.98304e-05
0.000155523
0.00019914
0.000191511
0.000128824
5.55098e-05
2.1807e-05
2.33752e-05
6.64258e-05
0.000123967
0.000172865
0.000189567
0.00017178
0.000147795
0.000146904
0.000143843
0.000140026
0.000121788
0.00010139
8.76441e-05
8.48567e-05
9.10928e-05
9.13061e-05
7.17236e-05
4.92191e-05
3.70518e-05
2.9738e-05
2.73009e-05
3.18155e-05
4.32451e-05
4.31404e-05
3.33271e-05
2.32641e-05
3.23825e-05
5.99215e-05
8.45446e-05
8.23339e-05
6.322e-05
5.22395e-05
6.39385e-05
9.51824e-05
0.00013544
0.000169487
0.000174035
0.000133502
7.10313e-05
2.35843e-05
1.22522e-05
4.64728e-05
9.70543e-05
0.000143213
0.000166171
0.000159333
0.00014163
0.000130249
0.000147642
0.00014616
0.000121575
8.73199e-05
5.84166e-05
4.82071e-05
4.92104e-05
5.11378e-05
5.11471e-05
5.50428e-05
6.25504e-05
6.14836e-05
4.99235e-05
3.51921e-05
2.10865e-05
3.84459e-05
4.85509e-05
5.92842e-05
7.18338e-05
8.2592e-05
9.81954e-05
9.94744e-05
8.87595e-05
7.58899e-05
6.8749e-05
7.62177e-05
0.00010152
0.000135681
0.000152422
0.000131291
8.22253e-05
3.54829e-05
2.06768e-05
4.93383e-05
7.57864e-05
0.000114808
0.000139776
0.000140093
0.000131603
0.000130339
0.000153575
0.000149905
0.00011976
7.32309e-05
3.18457e-05
5.59692e-06
3.2269e-06
1.20309e-05
2.88808e-05
5.08886e-05
6.80885e-05
6.94345e-05
5.72291e-05
4.9033e-05
6.09023e-05
6.07453e-05
5.91401e-05
6.1265e-05
8.04791e-05
0.000114143
0.000141536
0.000146685
0.000127819
9.47264e-05
6.4526e-05
5.70536e-05
6.73769e-05
9.51241e-05
0.000125522
0.000127548
9.96222e-05
6.1581e-05
4.35935e-05
4.64276e-05
7.0328e-05
9.2134e-05
0.000111091
0.000121734
0.00013132
0.000139053
0.000151101
8.61424e-05
1.87646e-05
-3.9654e-05
-6.42316e-05
-5.19182e-05
-1.46769e-05
3.66752e-05
6.88172e-05
5.48904e-05
1.88941e-05
9.65611e-06
4.00507e-05
8.10257e-05
0.000101366
9.36755e-05
7.33874e-05
6.61008e-05
6.86155e-05
5.74901e-05
2.74958e-05
-3.5387e-06
-1.524e-05
9.39294e-06
7.89596e-05
0.000161457
0.000216187
0.000245452
0.000252059
0.000238075
0.000233971
0.000253
0.000284004
0.000314007
0.000325414
0.000312816
0.000278724
0.000248004
0.000230705
0.000201782
0.000154118
8.90268e-05
2.08875e-05
-3.85747e-05
-6.38737e-05
-5.20967e-05
-1.51733e-05
3.61438e-05
6.85875e-05
5.49914e-05
1.90237e-05
9.62288e-06
4.00236e-05
8.11929e-05
0.00010152
9.36381e-05
7.30586e-05
6.56444e-05
6.83079e-05
5.71923e-05
2.7057e-05
-4.17554e-06
-1.60553e-05
8.11712e-06
7.71336e-05
0.00015939
0.00021378
0.000242792
0.000249443
0.00023504
0.000229947
0.000248274
0.000279206
0.000310369
0.000323693
0.000312723
0.000279482
0.000248824
0.000232548
0.000204711
0.000156943
9.08036e-05
2.13429e-05
-3.93907e-05
-6.56101e-05
-5.39334e-05
-1.68368e-05
3.50328e-05
6.83371e-05
5.51456e-05
1.87146e-05
8.7102e-06
3.91899e-05
8.09007e-05
0.000101478
9.33144e-05
7.23866e-05
6.50884e-05
6.83305e-05
5.72486e-05
2.66879e-05
-5.00452e-06
-1.72127e-05
6.42535e-06
7.52204e-05
0.00015789
0.000212064
0.000240827
0.000247746
0.00023295
0.000226571
0.000243267
0.000272813
0.000305334
0.000322368
0.000314578
0.000281669
0.000251449
0.000235936
0.000208324
0.000159518
9.08971e-05
1.92133e-05
-4.32556e-05
-7.04058e-05
-5.83085e-05
-2.03642e-05
3.29219e-05
6.77122e-05
5.4842e-05
1.73043e-05
6.16968e-06
3.67758e-05
7.94952e-05
0.000100452
9.21635e-05
7.09876e-05
6.43091e-05
6.87509e-05
5.78238e-05
2.6458e-05
-6.00442e-06
-1.85404e-05
4.82238e-06
7.41124e-05
0.000158172
0.000212173
0.000240328
0.000247538
0.000232355
0.000224781
0.000239487
0.000266029
0.000299079
0.000321071
0.000317755
0.000285849
0.000256416
0.000241467
0.000213068
0.000162263
8.95862e-05
1.47093e-05
-5.00591e-05
-7.83306e-05
-6.55439e-05
-2.61485e-05
2.94485e-05
6.6392e-05
5.37797e-05
1.45916e-05
1.82029e-06
3.22863e-05
7.60665e-05
9.75506e-05
8.93243e-05
6.81045e-05
6.27473e-05
6.92532e-05
5.88314e-05
2.60863e-05
-7.51108e-06
-2.02504e-05
3.16341e-06
7.39522e-05
0.00016065
0.000214763
0.000241594
0.000248413
0.000232865
0.000224846
0.000238568
0.000260807
0.000292116
0.00031862
0.000319981
0.000291709
0.000264147
0.000249778
0.00021961
0.000166183
8.72891e-05
8.49221e-06
-5.91247e-05
-8.91716e-05
-7.59398e-05
-3.45462e-05
2.43783e-05
6.41955e-05
5.19785e-05
1.10729e-05
-3.5096e-06
2.61819e-05
7.02467e-05
9.17429e-05
8.37939e-05
6.29159e-05
5.9739e-05
6.94545e-05
6.00976e-05
2.5492e-05
-9.94712e-06
-2.34237e-05
-1.16413e-06
7.0934e-05
0.00016197
0.000218611
0.000244811
0.000249761
0.000233089
0.000225871
0.000241244
0.000259637
0.000286128
0.000314604
0.000318822
0.000298197
0.000275046
0.000261971
0.000229192
0.00017319
8.64664e-05
1.28038e-06
-6.86437e-05
-0.000102205
-8.96515e-05
-4.66541e-05
1.67562e-05
6.07483e-05
4.95278e-05
7.50626e-06
-7.87249e-06
2.10311e-05
6.16701e-05
8.25374e-05
7.45116e-05
5.50081e-05
5.51128e-05
6.93146e-05
6.18657e-05
2.52476e-05
-1.29253e-05
-2.94914e-05
-1.27624e-05
5.72711e-05
0.000152928
0.000214858
0.000245233
0.000250757
0.000230629
0.000223759
0.000245011
0.000263222
0.000283276
0.000309916
0.000315971
0.000302746
0.000288934
0.000275931
0.000244259
0.00018646
8.92335e-05
-2.81512e-06
-7.70473e-05
-0.000115777
-0.000105311
-6.3481e-05
4.36013e-06
5.36216e-05
4.53104e-05
5.06628e-06
-1.15793e-05
1.64603e-05
5.5806e-05
7.45264e-05
6.4627e-05
4.52205e-05
4.94381e-05
6.93521e-05
6.45346e-05
2.57093e-05
-1.60411e-05
-3.91122e-05
-3.39253e-05
2.94406e-05
0.000129985
0.000197858
0.000232359
0.000245797
0.000226516
0.000215344
0.000238169
0.000262709
0.000282864
0.000306119
0.000310367
0.000300072
0.000303373
0.000300072
0.00026811
0.000210151
9.81837e-05
-2.20073e-06
-8.35818e-05
-0.000126499
-0.000120299
-8.16687e-05
-1.21255e-05
4.13622e-05
3.74386e-05
-6.48604e-07
-1.60874e-05
9.24886e-06
4.18254e-05
5.66724e-05
5.06267e-05
3.46313e-05
4.32014e-05
6.95667e-05
6.77473e-05
2.61745e-05
-1.98226e-05
-5.21147e-05
-6.10265e-05
-9.40106e-06
9.5387e-05
0.000171802
0.00020707
0.000226465
0.000218727
0.00020658
0.000223428
0.000242063
0.000267585
0.00030056
0.000302824
0.000295191
0.000312214
0.000326281
0.000302137
0.000246921
0.000117911
5.73833e-06
-8.32969e-05
-0.000132938
-0.000131562
-9.73564e-05
-2.71189e-05
2.72908e-05
2.69845e-05
-9.2984e-06
-2.42504e-05
-2.98764e-06
2.14247e-05
2.88338e-05
2.27041e-05
1.27707e-05
3.12973e-05
6.68448e-05
6.94331e-05
2.57747e-05
-2.17249e-05
-5.91156e-05
-8.13487e-05
-4.61911e-05
5.6911e-05
0.000145003
0.000181011
0.000198164
0.000200555
0.000193745
0.00020964
0.000217161
0.000233664
0.000274343
0.000290572
0.000288544
0.000307699
0.000344997
0.00034184
0.00029245
0.000152978
2.62827e-05
-7.34043e-05
-0.000134031
-0.000140889
-8.82645e-05
-3.11351e-05
2.17903e-05
1.97958e-05
-1.80223e-05
-3.51328e-05
-1.85879e-05
-1.93752e-07
5.21842e-06
2.42127e-07