/*--------------------------------*- C++ -*----------------------------------*\
| =========                 |                                                 |
| \\      /  F ield         | OpenFOAM: The Open Source CFD Toolbox           |
|  \\    /   O peration     | Version:  2306                                  |
|   \\  /    A nd           | Website:  www.openfoam.com                      |
|    \\/     M anipulation  |                                                 |
\*---------------------------------------------------------------------------*/
FoamFile
{
    version     2.0;
    format      ascii;
    arch        "LSB;label=32;scalar=64";
    class       surfaceScalarField;
    location    "3.5";
    object      phi_0;
}
// * * * * * * * * * * * * * * * * * * * * * * * * * * * * * * * * * * * * * //

dimensions      [0 3 -1 0 0 0 0];

oriented        oriented;

internalField   nonuniform List<scalar> 
175300
(
6.43516e-06
1.1031e-06
9.09129e-07
6.39449e-06
8.8408e-07
1.56353e-06
6.24514e-06
3.70409e-07
2.11062e-06
6.09666e-06
-9.43398e-08
2.32357e-06
5.98565e-06
-2.82679e-07
2.2344e-06
5.87828e-06
-2.10534e-07
1.95018e-06
5.74866e-06
-7.78936e-08
1.58219e-06
5.57531e-06
-2.3692e-08
1.25886e-06
5.28506e-06
-2.51421e-08
1.10669e-06
4.80409e-06
-4.22149e-08
1.15094e-06
4.22537e-06
-1.37677e-07
1.2975e-06
3.7675e-06
-3.46793e-07
1.40177e-06
3.56634e-06
-5.86453e-07
1.43023e-06
3.59161e-06
-7.6995e-07
1.39738e-06
3.72416e-06
-8.27654e-07
1.25377e-06
3.82769e-06
-6.67115e-07
9.54491e-07
3.88062e-06
-3.48279e-07
5.54029e-07
3.98745e-06
-7.0445e-08
1.59788e-07
4.1862e-06
1.13783e-07
-1.63124e-07
4.41213e-06
2.52357e-07
-4.03136e-07
4.61437e-06
3.20235e-07
-5.83466e-07
4.80601e-06
1.9837e-07
-7.14891e-07
5.0512e-06
-1.32385e-07
-8.46569e-07
5.37645e-06
-4.32629e-07
-1.09436e-06
5.68764e-06
-4.87964e-07
-1.45944e-06
5.84268e-06
-3.63696e-07
-1.74726e-06
5.75663e-06
-1.78598e-07
-1.87029e-06
5.41189e-06
8.5325e-08
-1.97568e-06
4.86557e-06
3.13218e-07
-2.04572e-06
4.34781e-06
1.63508e-07
-1.93186e-06
4.04822e-06
-2.29415e-07
-1.78743e-06
3.92969e-06
-3.85512e-07
-1.81299e-06
3.93292e-06
-2.62763e-07
-1.89831e-06
4.06705e-06
-7.3867e-08
-1.7773e-06
4.32143e-06
1.88815e-07
-1.38956e-06
4.63374e-06
5.67167e-07
-9.00936e-07
4.98451e-06
8.63979e-07
-5.04605e-07
5.41944e-06
8.68873e-07
-2.17442e-07
5.89891e-06
7.91557e-07
7.50098e-08
9.22924e-07
4.04261e-07
2.15192e-05
3.0275e-06
3.32487e-06
2.16833e-05
2.15436e-06
5.07869e-06
2.13404e-05
5.95294e-07
6.29023e-06
2.07862e-05
-6.65336e-07
6.61395e-06
2.02873e-05
-1.08447e-06
6.29407e-06
1.98751e-05
-8.0907e-07
5.62547e-06
1.94454e-05
-4.09258e-07
4.77336e-06
1.88444e-05
-2.0296e-07
3.94487e-06
1.78583e-05
-1.33201e-07
3.44883e-06
1.63546e-05
-1.68263e-07
3.45528e-06
1.4601e-05
-5.19695e-07
3.83168e-06
1.31601e-05
-1.29848e-06
4.22492e-06
1.24015e-05
-2.21517e-06
4.39037e-06
1.225e-05
-2.83891e-06
4.21585e-06
1.23824e-05
-2.86684e-06
3.63304e-06
1.25185e-05
-2.1718e-06
2.68325e-06
1.2679e-05
-1.09464e-06
1.57193e-06
1.3068e-05
-2.37451e-07
5.33284e-07
1.37043e-05
3.01815e-07
-3.27462e-07
1.44462e-05
6.3412e-07
-1.00523e-06
1.52289e-05
6.88697e-07
-1.54071e-06
1.60971e-05
4.17898e-08
-1.96665e-06
1.71429e-05
-1.15399e-06
-2.437e-06
1.83174e-05
-2.10223e-06
-3.21058e-06
1.93259e-05
-2.18842e-06
-4.21761e-06
1.97959e-05
-1.65766e-06
-4.9769e-06
1.94791e-05
-8.79412e-07
-5.28825e-06
1.8372e-05
6.32502e-08
-5.42501e-06
1.67709e-05
6.78623e-07
-5.38343e-06
1.523e-05
1.3635e-07
-5.09404e-06
1.40886e-05
-9.61848e-07
-5.00099e-06
1.33561e-05
-1.30096e-06
-5.35644e-06
1.31034e-05
-9.12106e-07
-5.61766e-06
1.34241e-05
-3.53708e-07
-5.11307e-06
1.42132e-05
5.12095e-07
-3.86243e-06
1.52571e-05
1.74722e-06
-2.42717e-06
1.64884e-05
2.70268e-06
-1.27661e-06
1.79462e-05
2.6704e-06
-3.49122e-07
1.94839e-05
2.46497e-06
5.40997e-07
2.74769e-06
1.73006e-06
4.02074e-05
4.73993e-06
5.67181e-06
4.09878e-05
2.98138e-06
8.58521e-06
4.05831e-05
2.268e-07
1.04974e-05
3.94557e-05
-1.81479e-06
1.09064e-05
3.83158e-05
-2.3537e-06
1.03209e-05
3.74541e-05
-1.76095e-06
9.36868e-06
3.66917e-05
-1.03172e-06
8.25074e-06
3.56804e-05
-5.99939e-07
7.05496e-06
3.4063e-05
-3.67941e-07
6.10991e-06
3.16224e-05
-3.58892e-07
5.7848e-06
2.86299e-05
-9.36193e-07
6.15618e-06
2.58558e-05
-2.40209e-06
6.88955e-06
2.40156e-05
-4.33892e-06
7.43173e-06
2.32132e-05
-5.75488e-06
7.29486e-06
2.3027e-05
-5.84922e-06
6.36625e-06
2.30269e-05
-4.44665e-06
4.85821e-06
2.32336e-05
-2.34471e-06
3.12491e-06
2.39057e-05
-7.10721e-07
1.47994e-06
2.5027e-05
2.36422e-07
1.34715e-07
2.63911e-05
8.02783e-07
-1.02135e-06
2.79341e-05
6.2047e-07
-1.89733e-06
2.97372e-05
-1.04727e-06
-2.54934e-06
3.18877e-05
-3.74752e-06
-3.27066e-06
3.42266e-05
-5.7755e-06
-4.54332e-06
3.62427e-05
-5.88737e-06
-6.31008e-06
3.73123e-05
-4.56339e-06
-7.78373e-06
3.69916e-05
-2.62742e-06
-8.47442e-06
3.52646e-05
-4.81058e-07
-8.63422e-06
3.26443e-05
7.8149e-07
-8.34e-06
2.99452e-05
-1.93599e-07
-7.74948e-06
2.76098e-05
-2.11756e-06
-7.67941e-06
2.57181e-05
-2.65147e-06
-8.50276e-06
2.46157e-05
-1.96958e-06
-9.29084e-06
2.4707e-05
-1.08732e-06
-8.80248e-06
2.59005e-05
3.94809e-07
-6.90243e-06
2.77669e-05
2.71503e-06
-4.53013e-06
3.00877e-05
4.57462e-06
-2.54386e-06
3.28413e-05
4.51951e-06
-9.08917e-07
3.57626e-05
4.04298e-06
7.69827e-07
4.4386e-06
2.90403e-06
6.23783e-05
5.09667e-06
6.92638e-06
6.44363e-05
2.55612e-06
1.13445e-05
6.43274e-05
-1.15673e-06
1.4428e-05
6.25222e-05
-3.61074e-06
1.52141e-05
6.04063e-05
-3.9983e-06
1.43121e-05
5.8876e-05
-2.95673e-06
1.29853e-05
5.77824e-05
-1.87073e-06
1.17757e-05
5.65096e-05
-1.20108e-06
1.05312e-05
5.45249e-05
-7.48115e-07
9.22086e-06
5.14849e-05
-5.95618e-07
8.22496e-06
4.74342e-05
-1.1612e-06
8.07285e-06
4.30354e-05
-3.03173e-06
8.92972e-06
3.93371e-05
-6.02794e-06
1.0167e-05
3.70137e-05
-8.69123e-06
1.05847e-05
3.58931e-05
-9.36682e-06
9.65751e-06
3.54125e-05
-7.49938e-06
7.79723e-06
3.54737e-05
-4.34484e-06
5.60257e-06
3.63218e-05
-1.81072e-06
3.45627e-06
3.78875e-05
-3.33952e-07
1.61774e-06
3.98807e-05
3.3932e-07
2.50599e-07
4.22336e-05
-3.50023e-07
-8.84895e-07
4.50901e-05
-3.58325e-06
-1.52681e-06
4.85797e-05
-8.72592e-06
-2.15539e-06
5.24714e-05
-1.2606e-05
-3.7421e-06
5.60214e-05
-1.29083e-05
-6.49796e-06
5.82986e-05
-1.02904e-05
-9.30103e-06
5.85849e-05
-6.33336e-06
-1.10299e-05
5.67349e-05
-2.11099e-06
-1.16265e-05
5.33661e-05
3.72143e-07
-1.11364e-05
4.95332e-05
-8.53748e-07
-9.93843e-06
4.5801e-05
-3.58878e-06
-9.45686e-06
4.22306e-05
-4.27546e-06
-1.05913e-05
3.9362e-05
-3.2895e-06
-1.23173e-05
3.8209e-05
-2.33822e-06
-1.27238e-05
3.91637e-05
-7.30694e-07
-1.09776e-05
4.16796e-05
2.37599e-06
-8.01432e-06
4.52073e-05
5.00858e-06
-5.22422e-06
4.95504e-05
4.99173e-06
-2.86928e-06
5.42843e-05
3.80682e-06
-6.27276e-08
4.53819e-06
2.89534e-06
8.67959e-05
2.22418e-06
5.56368e-06
9.11776e-05
-4.62829e-07
1.19933e-05
9.22041e-05
-4.38325e-06
1.71787e-05
8.98999e-05
-6.32396e-06
1.92753e-05
8.64568e-05
-5.9378e-06
1.83399e-05
8.39328e-05
-4.24133e-06
1.63327e-05
8.25195e-05
-2.77265e-06
1.48973e-05
8.12519e-05
-1.91534e-06
1.40062e-05
7.93094e-05
-1.26621e-06
1.28703e-05
7.62356e-05
-9.23587e-07
1.12051e-05
7.17273e-05
-1.17189e-06
9.83804e-06
6.59208e-05
-2.77905e-06
1.00503e-05
5.97719e-05
-6.29937e-06
1.19582e-05
5.47076e-05
-1.03955e-05
1.36556e-05
5.14971e-05
-1.24774e-05
1.33977e-05
4.98036e-05
-1.09648e-05
1.14886e-05
4.9285e-05
-7.12351e-06
9.03618e-06
5.00059e-05
-3.71745e-06
6.62821e-06
5.17629e-05
-1.60977e-06
4.54922e-06
5.41182e-05
-6.53612e-07
2.98549e-06
5.69385e-05
-2.06402e-06
2.14048e-06
6.04793e-05
-7.73358e-06
2.17179e-06
6.51175e-05
-1.67042e-05
2.47391e-06
7.083e-05
-2.39951e-05
1.30898e-06
7.67389e-05
-2.5255e-05
-2.48892e-06
8.13978e-05
-2.08901e-05
-7.63235e-06
8.35374e-05
-1.36203e-05
-1.18103e-05
8.26528e-05
-5.83503e-06
-1.40413e-05
7.92516e-05
-9.86291e-07
-1.39924e-05
7.46021e-05
-1.94159e-06
-1.20563e-05
6.95687e-05
-5.32161e-06
-1.04775e-05
6.4244e-05
-5.99999e-06
-1.12907e-05
5.8999e-05
-4.52164e-06
-1.38641e-05
5.51992e-05
-3.56372e-06
-1.58791e-05
5.4282e-05
-2.50718e-06
-1.56089e-05
5.63508e-05
3.23722e-07
-1.32473e-05
6.0663e-05
2.92757e-06
-1.03171e-05
6.66536e-05
2.17738e-06
-7.56279e-06
7.35945e-05
-2.7849e-07
-4.22746e-06
3.85977e-07
3.92045e-07
0.000109748
-8.10811e-06
-1.6553e-07
0.000118162
-8.76159e-06
7.90363e-06
0.000122249
-1.14632e-05
1.64708e-05
0.000120456
-1.09995e-05
2.18382e-05
0.000115556
-8.3522e-06
2.23447e-05
0.000111614
-5.54829e-06
1.96894e-05
0.000109894
-3.70551e-06
1.73424e-05
0.000109034
-2.70327e-06
1.67341e-05
0.000107618
-1.89831e-06
1.6673e-05
0.000105133
-1.44706e-06
1.52243e-05
0.000101132
-1.27607e-06
1.2347e-05
9.50151e-05
-1.87864e-06
1.062e-05
8.6861e-05
-4.78574e-06
1.22749e-05
7.81712e-05
-9.6688e-06
1.56503e-05
7.11568e-05
-1.35903e-05
1.70865e-05
6.67821e-05
-1.36455e-05
1.56627e-05
6.47928e-05
-1.00835e-05
1.30737e-05
6.48134e-05
-6.12643e-06
1.05628e-05
6.62582e-05
-3.32126e-06
8.52204e-06
6.83487e-05
-1.81093e-06
7.15739e-06
7.06972e-05
-3.86656e-06
7.00888e-06
7.36118e-05
-1.26778e-05
8.59681e-06
7.79148e-05
-2.70313e-05
1.10413e-05
8.43783e-05
-3.96815e-05
1.17223e-05
9.29916e-05
-4.4203e-05
8.20226e-06
0.000102135
-3.93519e-05
6.38833e-07
0.000108889
-2.74103e-05
-8.21761e-06
0.000111289
-1.36379e-05
-1.44279e-05
0.000109405
-4.27863e-06
-1.65364e-05
0.000104721
-3.81981e-06
-1.45569e-05
9.87811e-05
-7.44199e-06
-1.14435e-05
9.21878e-05
-7.82996e-06
-1.0963e-05
8.50351e-05
-5.49983e-06
-1.35705e-05
7.81728e-05
-4.07857e-06
-1.69701e-05
7.35503e-05
-3.4123e-06
-1.89459e-05
7.26703e-05
-1.70441e-06
-1.88847e-05
7.5724e-05
-9.08142e-07
-1.76198e-05
8.21377e-05
-4.32551e-06
-1.57752e-05
9.07194e-05
-9.53724e-06
-1.26313e-05
-1.00647e-05
-7.48627e-06
0.000124829
-2.28668e-05
-1.30694e-05
0.000137798
-2.46252e-05
-3.36503e-06
0.000148642
-2.63273e-05
8.65721e-06
0.000150756
-2.07675e-05
1.96871e-05
0.000145321
-1.23578e-05
2.49703e-05
0.000139552
-7.00542e-06
2.35076e-05
0.000137567
-5.02287e-06
1.96616e-05
0.000137843
-3.9979e-06
1.80937e-05
0.000137608
-2.77566e-06
1.93578e-05
0.000136121
-2.22931e-06
1.99863e-05
0.000133487
-2.01528e-06
1.67693e-05
0.000128842
-1.44671e-06
1.2058e-05
0.000120847
-2.57607e-06
1.14894e-05
0.000109468
-6.61875e-06
1.57698e-05
9.74092e-05
-1.14193e-05
1.98126e-05
8.80908e-05
-1.35997e-05
1.99293e-05
8.29099e-05
-1.17997e-05
1.74434e-05
8.13242e-05
-8.24482e-06
1.46997e-05
8.1984e-05
-4.87908e-06
1.25878e-05
8.35134e-05
-2.47658e-06
1.13113e-05
8.50928e-05
-4.82622e-06
1.16603e-05
8.67171e-05
-1.67187e-05
1.46031e-05
8.9133e-05
-3.67847e-05
1.93847e-05
9.35121e-05
-5.56197e-05
2.2967e-05
0.000101308
-6.47969e-05
2.18699e-05
0.000113439
-6.19689e-05
1.45951e-05
0.000127384
-4.88902e-05
2.84387e-06
0.000137605
-2.83873e-05
-9.83153e-06
0.000140675
-1.15936e-05
-1.69276e-05
0.000137605
-7.32831e-06
-1.69809e-05
0.000131349
-1.00567e-05
-1.30523e-05
0.000124197
-9.6808e-06
-1.05772e-05
0.000116584
-6.28282e-06
-1.19349e-05
0.000108317
-3.9514e-06
-1.55945e-05
0.000100458
-2.51197e-06
-1.92182e-05
9.50049e-05
-8.96038e-07
-2.19785e-05
9.37498e-05
-2.65758e-06
-2.41686e-05
9.75143e-05
-1.11442e-05
-2.5536e-05
0.000105128
-2.1759e-05
-2.43642e-05
-2.48079e-05
-2.00044e-05
0.000136022
-3.71201e-05
-2.80009e-05
0.000148252
-4.11907e-05
-1.81561e-05
0.000164929
-4.72243e-05
-5.24552e-06
0.000175177
-3.91832e-05
1.07948e-05
0.000172104
-2.04278e-05
2.31936e-05
0.000163777
-8.17977e-06
2.66684e-05
0.000160889
-6.54387e-06
2.277e-05
0.000163838
-7.28147e-06
1.8466e-05
0.000166439
-4.98083e-06
1.91587e-05
0.000166003
-2.99516e-06
2.30023e-05
0.000164536
-3.47704e-06
2.27818e-05
0.000162916
-3.534e-06
1.63961e-05
0.00015864
-2.9712e-06
1.15775e-05
0.000148532
-4.30529e-06
1.44258e-05
0.000132992
-7.19195e-06
2.0749e-05
0.000117053
-9.61131e-06
2.35723e-05
0.000105962
-1.01697e-05
2.20284e-05
0.00010106
-8.74169e-06
1.90773e-05
0.000100482
-5.91098e-06
1.65774e-05
0.000102015
-2.88284e-06
1.48641e-05
0.00010429
-5.12034e-06
1.45546e-05
0.000106327
-1.86931e-05
1.70633e-05
0.000107566
-4.21095e-05
2.26363e-05
0.000108639
-6.55497e-05
2.90535e-05
0.000111906
-7.94844e-05
3.22322e-05
0.000120851
-8.05778e-05
2.8526e-05
0.000136917
-6.95714e-05
1.71e-05
0.000155344
-4.77824e-05
1.38279e-06
0.000167363
-2.45946e-05
-1.23492e-05
0.000168408
-1.33222e-05
-1.71561e-05
0.000161851
-1.19354e-05
-1.48563e-05
0.000154281
-1.06166e-05
-1.09304e-05
0.000148325
-7.5049e-06
-9.65573e-06
0.000142175
-4.30002e-06
-1.1945e-05
0.000134652
-4.68753e-07
-1.59297e-05
0.000126846
3.53858e-06
-2.05274e-05
0.000120768
1.2393e-06
-2.61513e-05
0.000118873
-1.23948e-05
-3.23798e-05
0.000122342
-3.08655e-05
-3.58969e-05
-3.87294e-05
-3.41517e-05
0.000153342
-4.6825e-05
-4.3244e-05
0.000161097
-5.17698e-05
-3.30468e-05
0.000176594
-6.49046e-05
-1.83992e-05
0.000193422
-6.28099e-05
-8.65519e-07
0.000197494
-3.6666e-05
1.71262e-05
0.000188176
-1.11101e-05
2.67668e-05
0.000179999
-5.15727e-06
2.54963e-05
0.000183007
-1.08633e-05
1.86891e-05
0.000191413
-1.12239e-05
1.57024e-05
0.000193833
-4.55263e-06
2.02175e-05
0.000189828
-1.3957e-06
2.48702e-05
0.00018791
-5.24253e-06
2.13367e-05
0.000190447
-1.00791e-05
1.39914e-05
0.000189321
-1.08499e-05
1.36042e-05
0.00017719
-7.69145e-06
2.03911e-05
0.000156919
-4.54985e-06
2.59163e-05
0.000137888
-4.08165e-06
2.61801e-05
0.000126668
-5.25511e-06
2.36389e-05
0.000123223
-5.23456e-06
2.1027e-05
0.000124598
-3.44884e-06
1.88876e-05
0.000128383
-6.03736e-06
1.7284e-05
0.000132471
-1.99289e-05
1.76616e-05
0.000134731
-4.32433e-05
2.15329e-05
0.000134237
-6.73397e-05
2.88592e-05
0.000132739
-8.40597e-05
3.63696e-05
0.000135223
-8.93762e-05
3.86746e-05
0.000147202
-8.34374e-05
3.09055e-05
0.000167981
-6.63107e-05
1.45e-05
0.000186941
-4.15462e-05
-3.59146e-06
0.000190905
-2.02557e-05
-1.39832e-05
0.000179253
-7.46576e-06
-1.49519e-05
0.000165528
-3.52067e-06
-1.10205e-05
0.000160933
-6.81368e-06
-6.62309e-06
0.00016376
-9.0867e-06
-5.52491e-06
0.000165966
-3.20038e-06
-8.34865e-06
0.000163496
7.38359e-06
-1.38572e-05
0.000157643
9.2532e-06
-2.17464e-05
0.000151084
-5.48168e-06
-3.23016e-05
0.000147883
-3.0855e-05
-4.23539e-05
-4.64215e-05
-4.66288e-05
0.000177883
-4.90136e-05
-5.66233e-05
0.000181675
-5.4405e-05
-4.89266e-05
0.000192268
-7.25134e-05
-3.22979e-05
0.000209443
-8.19506e-05
-1.28659e-05
0.000221912
-6.08022e-05
8.07056e-06
0.000219105
-2.33977e-05
2.31579e-05
0.000207003
-4.25142e-06
2.64001e-05
0.000201269
-9.33631e-06
1.95151e-05
0.00020902
-1.79389e-05
1.19506e-05
0.000219415
-1.2208e-05
1.26995e-05
0.000218421
7.1178e-07
1.90412e-05
0.000209838
1.7372e-06
2.02933e-05
0.000209264
-1.31108e-05
1.475e-05
0.000218446
-2.70644e-05
1.25772e-05
0.000220663
-2.32864e-05
1.90661e-05
0.000205644
-8.14965e-06
2.68321e-05
0.00018176
2.36823e-06
2.8997e-05
0.000162143
3.58511e-06
2.7231e-05
0.000152339
5.31777e-07
2.54565e-05
0.000151305
-2.44087e-06
2.42243e-05
0.000156232
-9.05914e-06
2.18535e-05
0.000163252
-2.43374e-05
1.86149e-05
0.000167897
-4.47543e-05
1.78861e-05
0.000167603
-6.4537e-05
2.35217e-05
0.000163321
-7.99171e-05
3.37556e-05
0.000159607
-8.72382e-05
4.23023e-05
0.000164264
-8.67476e-05
4.07162e-05
0.000181127
-7.79971e-05
2.57569e-05
0.000201148
-5.75788e-05
5.48847e-06
0.000207007
-2.72385e-05
-1.02678e-05
0.000192993
5.27155e-07
-1.46768e-05
0.000173349
1.12581e-05
-1.11836e-05
0.000164126
2.37232e-06
-3.65443e-06
0.000169158
-1.10413e-05
2.86e-06
0.000181611
-1.00275e-05
3.66178e-06
0.000191803
4.58419e-06
-1.0387e-06
0.000195023
1.45827e-05
-1.04478e-05
0.000191093
5.72065e-06
-2.41776e-05
0.000183689
-2.0504e-05
-4.02693e-05
-4.32128e-05
-5.29092e-05
0.000209069
-4.07834e-05
-6.38898e-05
0.000208179
-4.96838e-05
-6.3881e-05
0.000214975
-7.01653e-05
-4.87777e-05
0.000228435
-9.00075e-05
-2.65736e-05
0.000243922
-8.24867e-05
-4.67563e-06
0.000250576
-4.67485e-05
1.50769e-05
0.000243524
-1.32001e-05
2.40977e-05
0.000230718
-5.88333e-06
2.04457e-05
0.000226491
-1.61059e-05
1.03822e-05
0.000235981
-1.95808e-05
5.55852e-06
0.000246601
-6.66775e-06
1.00023e-05
0.000244311
4.9957e-06
1.53391e-05
0.000235425
-6.07326e-06
1.3852e-05
0.000238194
-3.43799e-05
1.08353e-05
0.000250947
-4.671e-05
1.5683e-05
0.000251861
-2.79851e-05
2.51908e-05
0.000233733
-7.9821e-07
2.96402e-05
0.000209583
1.29819e-05
2.85108e-05
0.000191528
1.32169e-05
2.77648e-05
0.000183879
5.2466e-06
2.92638e-05
0.000187121
-1.13401e-05
2.82018e-05
0.000197526
-3.41576e-05
2.09158e-05
0.000207025
-5.24017e-05
1.21749e-05
0.000208856
-6.24529e-05
1.21524e-05
0.000202837
-7.06792e-05
2.37863e-05
0.000193489
-7.64813e-05
3.9029e-05
0.000189304
-7.88251e-05
4.54276e-05
0.000197694
-7.79674e-05
3.47025e-05
0.000214072
-6.57983e-05
1.33525e-05
0.000221998
-3.31161e-05
-5.76853e-06
0.000211707
6.4494e-06
-1.4071e-05
0.000192866
2.58023e-05
-1.29099e-05
0.000180105
1.53894e-05
-4.42662e-06
0.000180131
-6.16642e-06
6.65386e-06
0.000191611
-1.32174e-05
1.39439e-05
0.000208029
-9.24603e-07
1.41671e-05
0.000222411
1.32816e-05
6.97047e-06
0.000228977
1.28489e-05
-8.30912e-06
0.000225623
-5.35366e-06
-2.92941e-05
-2.8739e-05
-5.01724e-05
0.000248384
-2.26503e-05
-6.28928e-05
0.000241344
-3.83833e-05
-7.32691e-05
0.000245278
-6.26432e-05
-6.48284e-05
0.000255741
-8.74224e-05
-4.30006e-05
0.000268102
-9.36519e-05
-1.89858e-05
0.00027796
-7.11398e-05
2.94719e-06
0.000278663
-3.37985e-05
1.75855e-05
0.000268098
-9.30542e-06
1.94015e-05
0.000255037
-8.43211e-06
1.01949e-05
0.000253386
-1.70835e-05
1.39379e-06
0.000265424
-1.57972e-05
3.23519e-06
0.000276259
-5.1993e-06
1.16788e-05
0.00027326
-5.81804e-06
1.47068e-05
0.000265868
-3.04067e-05
1.07558e-05
0.000271499
-5.77098e-05
1.11704e-05
0.000283419
-5.29843e-05
2.00657e-05
0.000281283
-1.92166e-05
2.71563e-05
0.000263176
1.24839e-05
2.72381e-05
0.000241374
2.59453e-05
2.72864e-05
0.000225587
2.10885e-05
3.1336e-05
0.000221641
-3.4292e-06
3.15219e-05
0.000231074
-3.95152e-05
1.98244e-05
0.000246806
-6.36035e-05
2.39042e-06
0.000255607
-6.60419e-05
-4.66643e-06
0.000251079
-6.12355e-05
6.12121e-06
0.00023708
-6.09536e-05
2.81375e-05
0.000223433
-6.21684e-05
4.48744e-05
0.000220697
-6.47654e-05
4.18521e-05
0.000230065
-6.10898e-05
2.17429e-05
0.000238719
-3.3926e-05
4.37319e-07
0.000235076
9.22291e-06
-1.22491e-05
0.00022287
3.50002e-05
-1.60809e-05
0.000211832
2.68186e-05
-1.13904e-05
0.000207495
3.24581e-06
-3.01868e-07
0.000211686
-8.77681e-06
1.18015e-05
0.000223389
-1.76155e-06
1.97512e-05
0.000240681
8.62191e-06
2.04438e-05
0.000258326
1.03387e-05
1.05657e-05
0.000266353
3.6272e-06
-1.1937e-05
-9.6192e-06
-3.94685e-05
0.000294098
-2.0729e-06
-5.63396e-05
0.000282706
-2.26725e-05
-7.57458e-05
0.000283349
-5.34306e-05
-7.54753e-05
0.000292419
-7.97572e-05
-5.82617e-05
0.000300394
-9.2444e-05
-3.49523e-05
0.000305272
-8.47281e-05
-1.23602e-05
0.000307205
-5.62194e-05
7.17384e-06
0.000302356
-2.15229e-05
1.51571e-05
0.000290697
-3.23723e-06
9.72649e-06
0.000282516
-7.10864e-06
-2.33367e-08
0.000287992
-1.74953e-05
-5.8787e-07
0.000301975
-1.82176e-05
9.02509e-06
0.000308547
-1.50231e-05
1.62804e-05
0.000302452
-2.70289e-05
1.27206e-05
0.000297199
-5.35823e-05
7.04687e-06
0.000303575
-6.42373e-05
1.10952e-05
0.000310824
-4.04641e-05
2.01604e-05
0.000305054
-2.28699e-06
2.53014e-05
0.000287771
2.56541e-05
2.863e-05
0.000269613
3.35468e-05
3.24268e-05
0.000258485
1.61888e-05
2.76045e-05
0.000260144
-2.50144e-05
8.89189e-06
0.000276772
-6.6106e-05
-1.09981e-05
0.000296827
-7.6192e-05
-2.04473e-05
0.000301607
-6.09519e-05
-1.17182e-05
0.000287161
-4.84295e-05
1.43665e-05
0.000265626
-4.39685e-05
4.00456e-05
0.000251881
-4.36824e-05
4.67918e-05
0.000252504
-4.28001e-05
3.09141e-05
0.000259458
-2.38245e-05
8.12095e-06
0.00026114
1.35479e-05
-8.79388e-06
0.000256717
3.88088e-05
-1.84831e-05
0.00025136
3.24112e-05
-2.05891e-05
0.000247545
1.05035e-05
-1.34602e-05
0.000246381
-7.21177e-07
-8.30858e-07
0.000249541
4.27039e-06
1.09314e-05
0.000260994
6.76388e-06
1.91097e-05
0.000282319
-4.55046e-07
1.88558e-05
0.00030209
-3.42313e-06
4.1859e-06
1.45885e-06
-2.57716e-05
0.00034454
1.06764e-05
-4.76937e-05
0.00033244
-6.52545e-06
-7.34814e-05
0.000329189
-4.06463e-05
-8.09475e-05
0.000336191
-6.71452e-05
-6.97312e-05
0.0003416
-8.10332e-05
-5.04248e-05
0.00033973
-8.42384e-05
-2.8625e-05
0.000335879
-6.92496e-05
-6.92041e-06
0.000332062
-3.60798e-05
8.88219e-06
0.000325345
-3.80862e-06
9.15219e-06
0.000318435
4.305e-06
4.1465e-07
0.000319892
-1.03033e-05
-2.51985e-06
0.000331794
-2.43946e-05
6.41426e-06
0.000343226
-2.50086e-05
1.73001e-05
0.000342616
-2.60674e-05
1.66962e-05
0.000332339
-4.16906e-05
6.74996e-06
0.000324279
-5.66473e-05
2.8743e-06
0.000321282
-4.71872e-05
1.1635e-05
0.000316513
-1.76994e-05
2.47833e-05
0.000308366
1.15963e-05
3.28051e-05
0.000301393
3.0595e-05
3.03848e-05
0.000296548
3.00053e-05
1.49431e-05
0.000293775
-1.26491e-06
-7.59336e-06
0.00030248
-5.27215e-05
-2.55837e-05
0.000326668
-8.42015e-05
-2.98164e-05
0.000345251
-7.4709e-05
-1.7442e-05
0.00033795
-4.95302e-05
8.27925e-06
0.000312031
-3.24905e-05
3.62419e-05
0.000288968
-2.42123e-05
5.05744e-05
0.000282185
-1.95006e-05
4.09144e-05
0.000287839
-5.31601e-06
1.77029e-05
0.000294238
2.15418e-05
-3.54155e-06
0.000296683
3.8786e-05
-1.8298e-05
0.000297487
3.02652e-05
-2.72183e-05
0.00029766
1.06388e-05
-2.69894e-05
0.000296084
3.22626e-06
-1.82791e-05
0.000294119
9.47557e-06
-6.55237e-06
0.000297445
8.76907e-06
4.66795e-06
0.000312468
-8.94655e-06
1.19011e-05
0.000335502
-1.72852e-05
6.86453e-06
-1.00504e-06
-1.62269e-05
0.000392595
1.22171e-05
-4.08894e-05
0.000387107
4.56877e-06
-6.72028e-05
0.000381787
-2.42813e-05
-8.09147e-05
0.000386234
-4.83518e-05
-7.71976e-05
0.000391838
-6.28336e-05
-6.30878e-05
0.000387366
-7.38176e-05
-4.43039e-05
0.000376106
-7.14047e-05
-2.15969e-05
0.000366774
-4.45237e-05
-1.60583e-06
0.0003604
-6.54788e-06
6.7425e-06
0.000356255
1.35908e-05
2.33207e-06
0.000357444
2.50171e-06
-1.02813e-06
0.00036703
-2.0423e-05
5.68526e-06
0.000379529
-2.93566e-05
1.81265e-05
0.000382703
-2.64109e-05
2.25977e-05
0.000370355
-2.95206e-05
1.30461e-05
0.000349347
-3.78289e-05
1.34826e-06
0.000330856
-3.4799e-05
2.39413e-06
0.000321199
-1.80602e-05
1.31992e-05
0.000321948
2.47074e-07
1.92403e-05
0.000330589
1.7197e-05
1.16977e-05
0.000338814
2.74691e-05
-6.27659e-06
0.000340779
1.41706e-05
-2.65818e-05
0.000343721
-3.02545e-05
-3.86317e-05
0.000360858
-7.79461e-05
-3.49633e-05
0.000383273
-8.86912e-05
-1.63577e-05
0.000384216
-6.23889e-05
1.07106e-05
0.000359115
-3.03259e-05
3.66222e-05
0.000330078
-1.07336e-05
5.2469e-05
0.000317391
-5.72869e-07
4.79989e-05
0.000321329
1.15024e-05
2.65346e-05
0.000329529
2.98184e-05
3.21331e-06
0.000333331
3.9803e-05
-1.35762e-05
0.000334497
2.82016e-05
-2.45325e-05
0.000338026
7.04778e-06
-3.08047e-05
0.000343196
-1.04547e-06
-3.0468e-05
0.000346419
6.46967e-06
-2.22118e-05
0.000346884
9.11139e-06
-8.26692e-06
0.000350784
-6.91509e-06
3.39206e-06
0.000365207
-2.03109e-05
2.60446e-06
-6.69603e-06
-1.42338e-05
0.000428032
1.0619e-05
-3.66789e-05
0.000437787
8.49094e-06
-5.88819e-05
0.000437573
-8.45316e-06
-7.56089e-05
0.000441781
-2.61072e-05
-8.04048e-05
0.000449934
-4.13226e-05
-7.34656e-05
0.000447123
-5.80295e-05
-5.87991e-05
0.000430399
-6.41767e-05
-3.84208e-05
0.000412308
-4.46026e-05
-1.60067e-05
0.000401562
-7.58105e-06
1.98471e-08
0.000397789
1.8752e-05
5.38813e-06
0.00039933
1.48421e-05
5.20046e-06
0.000405924
-8.59868e-06
8.08948e-06
0.00041528
-2.47287e-05
1.69496e-05
0.000419419
-2.59541e-05
2.52086e-05
0.000410414
-2.41368e-05
2.25936e-05
0.000389923
-2.36032e-05
8.69827e-06
0.000368701
-1.73149e-05
-4.98385e-06
0.000357353
-7.11847e-06
-7.7983e-06
0.000359791
-1.61666e-06
-3.76355e-06
0.00037226
2.63324e-06
-3.46562e-06
0.000385352
1.21051e-05
-1.27583e-05
0.000392367
1.47539e-05
-2.83958e-05
0.000396243
-1.03503e-05
-3.9354e-05
0.000406707
-5.67548e-05
-3.62392e-05
0.000423951
-8.74014e-05
-1.65726e-05
0.000427908
-7.29306e-05
1.01179e-05
0.000406738
-3.24914e-05
3.40132e-05
0.0003767
6.55326e-07
5.11316e-05
0.000358873
1.71539e-05
5.34215e-05
0.000355752
2.63737e-05
3.6633e-05
0.000356594
3.68612e-05
1.4198e-05
0.000354959
4.0707e-05
2.7632e-07
0.000354356
2.5703e-05
-6.63039e-06
0.000360619
3.92627e-07
-1.53837e-05
0.000373176
-1.33218e-05
-2.49018e-05
0.000384343
-6.95558e-06
-2.35084e-05
0.000387337
3.97516e-06
-7.71624e-06
0.00038531
1.24449e-06
6.95362e-06
0.000389429
-7.40673e-06
4.24598e-06
-2.06891e-06
-1.39453e-05
0.000457176
1.94522e-05
-3.01162e-05
0.000478899
1.3083e-05
-5.08005e-05
0.000491564
7.72919e-07
-6.51824e-05
0.000502536
-9.05839e-06
-7.38603e-05
0.00051455
-2.04535e-05
-7.59409e-05
0.000514186
-3.81805e-05
-6.96337e-05
0.000494248
-4.85473e-05
-5.48014e-05
0.000467427
-3.4339e-05
-3.35406e-05
0.000449331
-1.91252e-06
-1.27965e-05
0.000442955
2.23377e-05
1.34912e-06
0.0004439
2.05085e-05
8.56134e-06
0.000448414
8.58993e-07
1.33508e-05
0.000453041
-1.50718e-05
1.95032e-05
0.000452819
-1.88948e-05
2.53953e-05
0.000444113
-1.82917e-05
2.51764e-05
0.0004301
-1.60317e-05
1.37075e-05
0.000418589
-7.97093e-06
-5.22576e-06
0.000414415
-1.65415e-07
-1.71338e-05
0.000417595
-3.49166e-06
-1.33677e-05
0.000425519
-1.11527e-05
-3.83379e-06
0.000433139
-6.00993e-06
-3.63237e-06
0.000436874
8.02515e-06
-1.32105e-05
0.000439724
3.39982e-06
-2.2386e-05
0.000447989
-3.26271e-05
-2.41738e-05
0.000462753
-7.31914e-05
-1.27668e-05
0.000471374
-7.57289e-05
9.36673e-06
0.000459748
-3.65408e-05
3.23099e-05
0.000434495
9.55571e-06
4.7369e-05
0.000411753
3.6799e-05
5.10824e-05
0.000396406
4.36888e-05
4.22584e-05
0.000385621
4.22211e-05
2.80563e-05
0.000380173
3.7886e-05
1.62534e-05
0.000382802
2.45857e-05
8.3601e-06
0.000393328
6.24835e-07
1.22498e-06
0.000408443
-1.95268e-05
-8.05417e-06
0.0004213
-1.95733e-05
-1.2913e-05
0.000425746
-3.42139e-06
-4.62353e-06
0.00042317
1.09688e-05
1.03189e-05
0.000422438
1.42804e-05
1.3425e-05
1.70645e-05
-4.22286e-06
0.000494847
3.18975e-05
-1.03081e-05
0.000517875
1.69444e-05
-3.27101e-05
0.000538722
5.39482e-07
-5.00255e-05
0.00055878
-6.01942e-06
-6.2678e-05
0.000576458
-8.61434e-06
-7.07603e-05
0.000579311
-1.78014e-05
-7.18916e-05
0.000560414
-2.66206e-05
-6.48286e-05
0.000531162
-1.8234e-05
-4.87865e-05
0.000507801
6.65174e-06
-2.68316e-05
0.000495293
2.58888e-05
-6.80666e-06
0.000490117
2.36019e-05
6.17043e-06
0.000488942
7.93322e-06
1.37479e-05
0.000488867
-5.12883e-06
2.17369e-05
0.00048658
-1.02264e-05
2.86824e-05
0.000480875
-1.10049e-05
2.5644e-05
0.000475979
-9.39879e-06
1.00915e-05
0.000477594
-3.29419e-06
-1.02874e-05
0.000483934
7.09299e-07
-2.00004e-05
0.000487702
-8.71458e-06
-1.05467e-05
0.000484261
-2.20844e-05
7.06183e-06
0.000477004
-1.82936e-05
1.46199e-05
0.000473616
3.53242e-06
9.37837e-06
0.00047936
1.46516e-05
9.56315e-07
0.000492329
-7.80358e-06
-2.20477e-06
0.000507046
-5.0078e-05
2.69495e-06
0.000514931
-6.80778e-05
1.57314e-05
0.000506481
-3.745e-05
3.16736e-05
0.000484026
1.62349e-05
4.42835e-05
0.000458719
5.27307e-05
4.75814e-05
0.000436994
5.98568e-05
3.93201e-05
0.000421398
5.11553e-05
2.92393e-05
0.000415795
4.12605e-05
2.66359e-05
0.000421376
3.07279e-05
2.70315e-05
0.000434395
1.44134e-05
2.04987e-05
0.000449683
-3.69182e-06
8.03668e-06
0.000461234
-9.62816e-06
5.28606e-07
0.000465821
2.38172e-06
5.03146e-06
0.000465087
2.00842e-05
1.8307e-05
0.000466022
3.09733e-05
2.39351e-05
3.54707e-05
1.29471e-05
0.000541692
3.5289e-05
1.77808e-05
0.000560935
1.70029e-05
-1.2689e-05
0.000584084
-8.55457e-06
-3.46603e-05
0.000609022
-2.22702e-05
-4.52551e-05
0.000629417
-1.80257e-05
-5.33886e-05
0.000635037
-8.60327e-06
-6.37012e-05
0.000623638
-4.99446e-06
-7.04722e-05
0.000605145
-2.42393e-07
-6.60322e-05
0.00058905
1.36552e-05
-4.75476e-05
0.000575482
2.70367e-05
-2.25188e-05
0.000560671
2.71389e-05
-2.40257e-06
0.000544945
1.6401e-05
9.39613e-06
0.000532925
4.41548e-06
1.85177e-05
0.000527718
-5.80291e-06
2.83027e-05
0.000530464
-1.61701e-05
3.308e-05
0.000541851
-2.46304e-05
2.61815e-05
0.000560488
-2.64687e-05
1.14723e-05
0.000576598
-2.34237e-05
-8.76718e-08
0.000576603
-2.33135e-05
4.4846e-06
0.0005596
-2.47369e-05
2.60615e-05
0.000538871
-1.52549e-05
4.75847e-05
0.000528982
9.31889e-06
4.9486e-05
0.000533581
3.03186e-05
2.74041e-05
0.000546264
2.32921e-05
-1.2242e-06
0.000559449
-1.29012e-05
-1.11839e-05
0.000565709
-4.54985e-05
4.77034e-06
0.000556038
-3.5631e-05
2.8146e-05
0.000531357
1.30231e-05
4.21296e-05
0.000503201
5.90138e-05
4.47991e-05
0.000481584
7.72135e-05
3.84199e-05
0.000470298
7.30748e-05
2.949e-05
0.000469133
6.05829e-05
2.45082e-05
0.000475321
4.58542e-05
2.29522e-05
0.00048556
2.95807e-05
1.99169e-05
0.000498487
1.45508e-05
1.27405e-05
0.000512195
8.56165e-06
5.04423e-06
0.000522391
1.54167e-05
6.13094e-06
0.000525704
2.72977e-05
2.0005e-05
0.000525379
3.55326e-05
3.57977e-05
3.94721e-05
3.69656e-05
0.000593256
1.62394e-05
3.98384e-05
0.000613265
-9.92967e-08
1.33992e-05
0.000635544
-2.0265e-05
-2.02924e-05
0.000658744
-3.26153e-05
-4.29771e-05
0.000680379
-2.67285e-05
-5.23256e-05
0.00069101
-7.76819e-06
-5.52854e-05
0.000684091
9.70449e-06
-5.90239e-05
0.000666394
2.05396e-05
-6.25628e-05
0.00065151
2.72142e-05
-5.76594e-05
0.000644898
2.99664e-05
-4.26293e-05
0.000640694
2.60641e-05
-2.48969e-05
0.000631112
1.74905e-05
-1.0701e-05
0.000615749
8.25642e-06
6.79505e-07
0.00060049
-1.96569e-06
1.34126e-05
0.000593098
-1.7222e-05
2.71686e-05
0.000600046
-3.68742e-05
3.58639e-05
0.000621526
-5.34677e-05
3.41866e-05
0.00064497
-5.94239e-05
2.49709e-05
0.000651032
-5.17389e-05
2.0304e-05
0.000634421
-3.28832e-05
3.08192e-05
0.000609727
-7.49591e-06
5.03711e-05
0.000592691
2.01381e-05
5.56852e-05
0.000586714
3.76303e-05
3.32758e-05
0.000588772
3.13576e-05
-5.56983e-06
0.000598126
1.38196e-06
-3.16037e-05
0.000608706
-3.24873e-05
-2.26077e-05
0.000609243
-3.77915e-05
7.56941e-06
0.000595032
-2.60567e-06
3.37405e-05
0.000576172
4.70579e-05
4.36087e-05
0.00056479
7.95639e-05
3.7498e-05
0.000563048
8.74441e-05
2.01009e-05
0.000564988
7.77482e-05
2.1051e-06
0.000566419
5.89623e-05
-7.60429e-06
0.000567068
3.695e-05
-4.52059e-06
0.000569323
2.06231e-05
4.47477e-06
0.000573496
1.66462e-05
1.3734e-05