/*--------------------------------*- C++ -*----------------------------------*\
| =========                 |                                                 |
| \\      /  F ield         | OpenFOAM: The Open Source CFD Toolbox           |
|  \\    /   O peration     | Version:  2306                                  |
|   \\  /    A nd           | Website:  www.openfoam.com                      |
|    \\/     M anipulation  |                                                 |
\*---------------------------------------------------------------------------*/
FoamFile
{
    version     2.0;
    format      ascii;
    arch        "LSB;label=32;scalar=64";
    class       volScalarField;
    location    "3.5";
    object      pMean;
}
// * * * * * * * * * * * * * * * * * * * * * * * * * * * * * * * * * * * * * //

dimensions      [0 2 -2 0 0 0 0];

internalField   nonuniform List<scalar> 
60000
(
5.67394e-05
8.32567e-05
0.000125534
0.000163772
0.000189698
0.00020238
0.000200026
0.000182443
0.000161509
0.000159907
0.000187977
0.000231848
0.000267504
0.000278071
0.00026032
0.000221635
0.000175997
0.000133875
9.68582e-05
6.70958e-05
5.65337e-05
7.57459e-05
0.000118873
0.000165435
0.000195863
0.000204417
0.000203077
0.000210481
0.000234829
0.000269655
0.000296906
0.000304608
0.0002975
0.000282492
0.000259885
0.000230673
0.00019568
0.000151901
0.000102443
6.40399e-05
5.49045e-05
8.07944e-05
0.000123249
0.000162068
0.00018844
0.000201193
0.000198617
0.000180711
0.000159484
0.00015778
0.000186151
0.000230539
0.00026668
0.000277706
0.000260409
0.000222116
0.000176652
0.000134513
9.73359e-05
6.7332e-05
5.64701e-05
7.54174e-05
0.00011833
0.00016458
0.000194588
0.000202683
0.000201083
0.000208535
0.000233184
0.000268578
0.000296663
0.000305221
0.000298827
0.000284364
0.000262033
0.000232974
0.000197899
0.000153657
0.000103257
6.34757e-05
5.08186e-05
7.66221e-05
0.000119917
0.000159852
0.0001871
0.000200324
0.000197812
0.000179483
0.000157368
0.000154922
0.0001834
0.000228608
0.00026574
0.000277665
0.00026105
0.00022307
0.00017749
0.000134967
9.73444e-05
6.69009e-05
5.56881e-05
7.45293e-05
0.000117479
0.00016365
0.000193312
0.000200724
0.000198281
0.000205283
0.000230124
0.000266301
0.000295581
0.000305335
0.000299957
0.000286156
0.000263883
0.000234386
0.000198742
0.000153764
0.000102064
6.06286e-05
4.43043e-05
7.05747e-05
0.000115435
0.000157052
0.000185599
0.0001997
0.000197573
0.000178874
0.000155451
0.00015155
0.000179744
0.000226003
0.000264699
0.000278076
0.000262428
0.000224666
0.000178633
0.000135304
9.68574e-05
6.57816e-05
5.43241e-05
7.33854e-05
0.000116703
0.000163013
0.000192333
0.000198728
0.000194839
0.000200842
0.000225758
0.000262933
0.000293615
0.000304753
0.0003007
0.000287842
0.000265486
0.000234869
0.000197978
0.000151983
9.87212e-05
5.53318e-05
3.5908e-05
6.27405e-05
0.000109471
0.000153154
0.000183372
0.000198735
0.000197582
0.000179187
0.00015474
0.000148811
0.000175821
0.000222731
0.000263228
0.000278578
0.000264392
0.000227014
0.000180269
0.000135763
9.61064e-05
6.41838e-05
5.24386e-05
7.17706e-05
0.000115493
0.000161944
0.000191123
0.000196659
0.000191081
0.000195775
0.000220882
0.00025938
0.000291405
0.000303664
0.000301067
0.000289724
0.00026775
0.000235982
0.000197208
0.00014963
9.45618e-05
4.86062e-05
2.52808e-05
5.27822e-05
0.000101378
0.000147158
0.000179479
0.000196619
0.000196941
0.00017998
0.00015575
0.000148188
0.000173231
0.000219709
0.000261504
0.000278895
0.000266623
0.000230101
0.000182718
0.000136632
9.50372e-05
6.14926e-05
4.89894e-05
6.83053e-05
0.000111775
0.000157255
0.000185615
0.000191062
0.000185451
0.0001899
0.000215972
0.000256827
0.000290622
0.000303397
0.000301724
0.000292311
0.000271657
0.000239658
0.000199433
0.000149207
9.07494e-05
4.0866e-05
1.33893e-05
3.86837e-05
8.96332e-05
0.000137806
0.000172438
0.000192263
0.000194895
0.000179638
0.000157005
0.000149879
0.000173614
0.000218753
0.000260766
0.000279463
0.00026897
0.000233708
0.000185991
0.00013808
9.36683e-05
5.70621e-05
4.25936e-05
6.1683e-05
0.000105511
0.000149872
0.000175619
0.000178995
0.000173074
0.000179424
0.000208971
0.000254732
0.000292579
0.000306475
0.000304635
0.000295936
0.000276895
0.000246435
0.000207129
0.000155746
9.28061e-05
3.55233e-05
2.1109e-06
2.13806e-05
7.36062e-05
0.000125114
0.000162224
0.00018479
0.000190543
0.000177792
0.000156151
0.000149384
0.000174846
0.000221129
0.000263108
0.00028185
0.000272018
0.000237729
0.000189888
0.000140049
9.21744e-05
5.13582e-05
3.43196e-05
5.4676e-05
0.000101871
0.000147307
0.000169745
0.000166867
0.000156397
0.000162579
0.000196608
0.000248736
0.00029192
0.000309983
0.000310364
0.000301958
0.000281974
0.000252043
0.00021655
0.000168251
0.000102926
3.59298e-05
-6.62411e-06
1.90535e-06
5.35354e-05
0.000109274
0.000149733
0.000175007
0.000184009
0.000174438
0.000154646
0.000146579
0.000170484
0.000219418
0.000265578
0.000286568
0.000276681
0.000242499
0.000194404
0.000142466
9.0962e-05
4.68045e-05
2.95888e-05
5.49582e-05
0.000109774
0.000158681
0.000176558
0.000162587
0.000141004
0.000141932
0.000179206
0.000238968
0.000287747
0.000307605
0.000309365
0.000302317
0.000282819
0.000253263
0.000222838
0.000182067
0.000119078
4.343e-05
-8.54784e-06
-1.67988e-05
3.03697e-05
8.97467e-05
0.000134912
0.000163562
0.000175982
0.000169856
0.00015194
0.000142661
0.000162728
0.000209315
0.000257661
0.000284311
0.000279276
0.000247265
0.00019949
0.000145552
9.01664e-05
4.38575e-05
3.00905e-05
6.55377e-05
0.000132957
0.000188597
0.000202133
0.000173089
0.000133449
0.000122624
0.000158409
0.000224177
0.000278636
0.000301438
0.00030482
0.00029886
0.000279457
0.000250197
0.000225381
0.000195493
0.000139812
5.96139e-05
2.52805e-06
-2.7097e-05
9.11494e-06
6.83737e-05
0.000118597
0.000151705
0.000168595
0.000166253
0.000150408
0.000139105
0.000153206
0.000193987
0.000239904
0.000268096
0.000269257
0.000245182
0.000203066
0.000149871
9.11197e-05
4.26102e-05
3.36489e-05
8.16578e-05
0.000165577
0.000232547
0.000245919
0.000203384
0.000142432
0.000112422
0.000138408
0.000202938
0.000260611
0.000288111
0.000296682
0.000296787
0.000280608
0.000251737
0.000230266
0.000210352
0.000164978
8.55892e-05
2.76299e-05
-2.20819e-05
-2.79733e-06
5.01261e-05
0.000101278
0.000139603
0.000161795
0.000164305
0.000151001
0.000139055
0.000148328
0.000181764
0.000220551
0.000243527
0.000243907
0.000226264
0.000195324
0.000151586
9.66849e-05
4.89462e-05
4.32971e-05
9.94267e-05
0.000196097
0.000276082
0.000296561
0.00025037
0.000173772
0.000121597
0.000127619
0.000180278
0.000236998
0.000270602
0.000288807
0.000298323
0.000289239
0.000263281
0.0002432
0.000229499
0.000192998
0.000118615
6.18145e-05
-6.33406e-07
-1.43686e-07
4.04466e-05
8.64461e-05
0.000126237
0.000153926
0.000162149
0.000151727
0.000139621
0.000145802
0.000174797
0.000207181
0.000221919
0.00021452
0.000195447
0.000172551
0.000144372
0.000104045
6.65611e-05
6.43974e-05
0.000118875
0.000214307
0.000301955
0.000333939
0.000297452
0.000219869
0.000151914
0.000134481
0.000166571
0.000215715
0.000254236
0.000282243
0.000301531
0.000300911
0.000280968
0.000262015
0.000249218
0.00021867
0.000152025
9.9835e-05
3.59343e-05
2.07894e-05
4.51258e-05
8.05392e-05
0.000116254
0.000146577
0.000158838
0.000151008
0.000139502
0.000144093
0.000170569
0.000200996
0.000211839
0.000198133
0.000174544
0.000152663
0.000132184
0.00010723
8.24318e-05
8.3439e-05
0.000129909
0.000213612
0.000301289
0.000345877
0.000326941
0.000260708
0.000187518
0.000151063
0.000161557
0.00019988
0.000241975
0.000278389
0.000304072
0.000308773
0.000294447
0.00027682
0.000261257
0.000234876
0.000178922
0.000139871
8.47132e-05
5.90526e-05
6.52305e-05
8.63833e-05
0.000114299
0.000142063
0.000155704
0.000149338
0.000138618
0.000142404
0.000166824
0.000197412
0.000212415
0.000202572
0.000178426
0.000153843
0.000132664
0.000109484
8.96372e-05
9.12716e-05
0.000129538
0.00020071
0.000281159
0.000336435
0.000337581
0.000286186
0.000213445
0.000163996
0.000157852
0.000186131
0.000228554
0.000269692
0.000299832
0.000309792
0.000301037
0.000282841
0.000263786
0.000239752
0.000198665
0.000174211
0.000132785
0.000103625
9.48014e-05
0.00010109
0.000118908
0.000140093
0.000149973
0.000144509
0.000135488
0.000140974
0.000163855
0.000193038
0.000211545
0.000209643
0.000190816
0.000165576
0.000139713
0.000113016
9.46012e-05
9.94626e-05
0.000134927
0.000194415
0.000259586
0.000313328
0.000331397
0.000299111
0.000234185
0.000176706
0.000156318
0.000172937
0.000209608
0.000250558
0.000284043
0.000303258
0.000302712
0.000285053
0.000262674
0.000240529
0.000213041
0.000195637
0.000165939
0.000139384
0.00012484
0.000122274
0.000129825
0.000141163
0.000143431
0.000135789
0.000128658
0.00013478
0.000158898
0.000189098
0.000210079
0.000212111
0.000196819
0.000173445
0.000147607
0.000121347
0.000106497
0.000117567
0.000153056
0.000200646
0.000246867
0.000286711
0.000309058
0.000293839
0.000245465
0.000192553
0.000163109
0.000166902
0.000196993
0.000235542
0.000267654
0.000289758
0.000294818
0.000282499
0.000261988
0.000241001
0.000222139
0.000198105
0.00018238
0.000165556
0.00015341
0.000147122
0.000144642
0.000142641
0.000134488
0.000122457
0.000116409
0.000125317
0.000151805
0.000185461
0.000211445
0.000217898
0.000204334
0.000180267
0.000153153
0.000129749
0.000118489
0.000130467
0.000163429
0.000203979
0.000239409
0.000267917
0.000286224
0.000279128
0.000242379
0.000196182
0.000167237
0.000168684
0.00019615
0.000234471
0.000268638
0.000289571
0.000291662
0.000275401
0.000249356
0.000227027
0.000212019
0.000185791
0.000180195
0.000172704
0.000167801
0.000167487
0.000164417
0.000151247
0.000129606
0.000107768
9.70954e-05
0.000104497
0.000129567
0.000165976
0.000199681
0.000217206
0.000214369
0.00019732
0.000175067
0.000154594
0.000142688
0.000146554
0.000167291
0.000197797
0.000230141
0.000258043
0.000276727
0.000271364
0.000237615
0.000193995
0.000166135
0.000167966
0.000193615
0.000229487
0.000263216
0.000285348
0.000287463
0.000267386
0.000235145
0.000207354
0.000192869
0.000164788
0.000162532
0.000162266
0.000162398
0.000163738
0.000162402
0.000153707
0.000135465
0.00011279
9.62924e-05
9.30767e-05
0.000103988
0.000127856
0.000157966
0.000182932
0.000193938
0.000192402
0.000186415
0.000178756
0.000167864
0.000160445
0.000164211
0.00018152
0.000210861
0.000244128
0.000264997
0.000259967
0.000225997
0.000182538
0.000154322
0.000154082
0.000176564
0.00021154
0.000245768
0.000269154
0.000272125
0.000252719
0.000220886
0.000191134
0.0001724
0.000147854
0.000141293
0.000145319
0.000154033
0.000162843
0.000164604
0.000154012
0.000134486
0.000114159
9.92752e-05
9.20487e-05
9.33269e-05
0.000103636
0.000122263
0.000145599
0.0001651
0.000175147
0.000179263
0.000180332
0.000174196
0.000163408
0.00015974
0.000171134
0.000201073
0.000239389
0.00026323
0.000253221
0.000207297
0.000153006
0.000117701
0.000116402
0.000146083
0.000189937
0.000230986
0.000257651
0.000264292
0.000250569
0.000223945
0.000193036
0.0001663
0.000177857
0.000158791
0.000149014
0.000149596
0.000155937
0.000158797
0.000152688
0.000137504
0.00012022
0.000107178
0.000100204
9.89273e-05
0.000103295
0.000112743
0.000126214
0.000142702
0.000157536
0.000169759
0.000178539
0.000178852
0.000172607
0.000169109
0.000177194
0.000201146
0.000235282
0.000261333
0.00025853
0.000214347
0.000149321
0.0001014
9.18286e-05
0.000119309
0.000168876
0.000218554
0.000251868
0.000261018
0.000251667
0.000235239
0.00021718
0.000199542
0.000190452
0.000172152
0.000156837
0.000148338
0.000144034
0.000143201
0.000142751
0.000136871
0.000127673
0.000119696
0.000114826
0.000114272
0.000118961
0.000127431
0.000137382
0.000148452
0.000159983
0.000171158
0.000180797
0.000184858
0.000183364
0.000181115
0.000186099
0.000202049
0.000225577
0.000245023
0.000244008
0.000213095
0.000164585
0.000124795
0.000112415
0.000129533
0.000166233
0.000206132
0.000234738
0.00024524
0.00024139
0.00023124
0.000219569
0.000205901
0.000182582
0.000153879
0.000131004
0.00012091
0.000122085
0.000130457
0.000139821
0.000145367
0.000145505
0.000141799
0.000136618
0.000131588
0.000128831
0.000130763
0.000139831
0.000153226
0.000169035
0.000183079
0.00019244
0.000196727
0.000194262
0.000188322
0.000184793
0.0001883
0.000199894
0.000215643
0.000222194
0.000206844
0.000173844
0.000140638
0.000124386
0.00013105
0.000155813
0.000186386
0.000212093
0.000225686
0.000228425
0.00022587
0.000220158
0.000206016
0.000176833
0.000143259
0.000114856
0.000100111
0.000101227
0.000114257
0.000129433
0.000140715
0.000146248
0.000145493
0.000141998
0.00013982
0.000141412
0.00014661
0.000153357
0.000163194
0.000178375
0.000197732
0.000215408
0.000222702
0.000214134
0.000196151
0.000177868
0.000166243
0.000166624
0.000179144
0.000191744
0.000193023
0.000180635
0.000157556
0.00014056
0.000138852
0.000152167
0.000175338
0.000198028
0.000214327
0.000222999
0.000224457
0.000217933
0.000202758
2.87856e-05
-1.10524e-10
1.60644e-05
5.99368e-05
0.000110894
0.000150909
0.000167856
0.000159528
0.000139925
0.000135732
0.000160098
0.000197539
0.000223047
0.000225403
0.000209713
0.000185916
0.00016204
0.000139116
0.000112523
8.50551e-05
7.32106e-05
9.41973e-05
0.00014846
0.000217345
0.000275322
0.000305221
0.000311644
0.000312984
0.000317519
0.000326083
0.000339422
0.000353898
0.000362236
0.00035552
0.000334021
0.000309574
0.00028635
0.000249765
0.000184084
9.93749e-05
2.99469e-05
-2.57152e-07
1.44714e-05
5.77145e-05
0.000108679
0.000149001
0.000166312
0.000158103
0.000138377
0.000134128
0.000158671
0.00019652
0.000222377
0.000224943
0.000209406
0.00018576
0.000162052
0.000139278
0.000112677
8.48746e-05
7.22672e-05
9.22168e-05
0.000145461
0.000213639
0.000271456
0.000301749
0.000308824
0.000310825
0.000315824
0.000324485
0.000337828
0.000352624
0.000361712
0.000355926
0.000335158
0.000311206
0.000288546
0.000252551
0.000187026
0.000101761
2.90425e-05
-2.85092e-06
1.09326e-05
5.4251e-05
0.000105969
0.000147239
0.00016514
0.00015688
0.000136524
0.000131749
0.000156437
0.000194906
0.000221339
0.000224196
0.000208844
0.000185406
0.000161956
0.000139452
0.000112867
8.45991e-05
7.10964e-05
9.01046e-05
0.00014269
0.000210559
0.000268401
0.000299019
0.000306524
0.000309015
0.000314291
0.000322636
0.000335526
0.000350571
0.00036087
0.000356535
0.000336644
0.000313127
0.000291065
0.000255617
0.000189761
0.000102962
2.50406e-05
-8.58976e-06
4.9716e-06
4.92402e-05
0.000102443
0.000145257
0.0001642
0.000155946
0.000134564
0.000128716
0.000153288
0.000192536
0.000219796
0.000223062
0.000207924
0.000184738
0.000161611
0.000139525
0.000113041
8.43686e-05
7.01498e-05
8.87284e-05
0.000141408
0.000209582
0.000267522
0.000298002
0.000305254
0.00030777
0.000313109
0.000320822
0.000332769
0.000347667
0.000359254
0.000356811
0.00033806
0.000315095
0.00029371
0.000258697
0.000191729
0.000102039
1.79813e-05
-1.76883e-05
-3.79213e-06
4.21136e-05
9.73938e-05
0.000142377
0.0001632
0.000155745
0.000133588
0.000126149
0.000149868
0.000189512
0.000217612
0.000221386
0.000206495
0.000183583
0.000160866
0.000139283
0.000112992
8.39786e-05
6.92951e-05
8.78975e-05
0.000141269
0.000210208
0.000268313
0.000298386
0.000304869
0.000307
0.00031236
0.000319554
0.000330348
0.000344317
0.000356342
0.000355611
0.000338321
0.000316424
0.000296363
0.00026212
0.000193255
9.93044e-05
9.05005e-06
-2.96285e-05
-1.56308e-05
3.19267e-05
8.94302e-05
0.000137113
0.00016093
0.000155812
0.00013426
0.000125768
0.000148025
0.000187024
0.000215301
0.000219413
0.000204761
0.000182111
0.000159849
0.000138883
0.000112741
8.30555e-05
6.74739e-05
8.56959e-05
0.000139225
0.000208396
0.000266364
0.000296321
0.000302897
0.000305524
0.000311715
0.000319243
0.000329494
0.000341958
0.000352691
0.000352123
0.000336076
0.000316085
0.000298859
0.000266838
0.000196081
9.60477e-05
1.40062e-06
-4.19405e-05
-2.92242e-05
1.90918e-05
7.78508e-05
0.000127973
0.00015536
0.000153949
0.00013468
0.000126889
0.000148687
0.000186713
0.000214313
0.000218084
0.000203326
0.000180837
0.000158959
0.000138572
0.000112258
8.06982e-05
6.20898e-05
7.77809e-05
0.000130112
0.000198968
0.000256342
0.000285601
0.000292852
0.000298045
0.000308064
0.000318619
0.000330333
0.000341934
0.000349906
0.000346863
0.000330085
0.000312537
0.000300757
0.000274448
0.000204319
9.7221e-05
2.19748e-06
-4.95575e-05
-4.12074e-05
5.44652e-06
6.45764e-05
0.000116388
0.000147015
0.000149816
0.000133318
0.000125473
0.000146832
0.000185295
0.000214004
0.000218152
0.000202965
0.000180197
0.000158386
0.000138317
0.000111306
7.62097e-05
5.14741e-05
6.15744e-05
0.000111464
0.000180322
0.000238171
0.000266948
0.000273186
0.000280367
0.000296057
0.000312964
0.000329137
0.000342171
0.000348442
0.000341884
0.000321796
0.0003051
0.000300799
0.000284944
0.000220865
0.000109115
1.47689e-05
-4.94164e-05
-4.87587e-05
-7.29387e-06
5.04684e-05
0.000103745
0.000137789
0.000144838
0.000131592
0.000123324
0.000141756
0.000178553
0.000208816
0.000216308
0.000203122
0.000180446
0.000158128
0.000137673
0.000109583
7.04741e-05
3.86554e-05
4.20839e-05
8.91456e-05
0.000158204
0.000216729
0.000245259
0.00024898
0.000254963
0.00027568
0.000300956
0.000323598
0.000338469
0.0003434
0.000335585
0.00031414
0.000297456
0.000299734
0.000297094
0.000244587
0.000132924
3.74254e-05
-4.22617e-05
-5.24675e-05
-1.82404e-05
3.61323e-05
9.06276e-05
0.000128334
0.000139568
0.000129447
0.000120782
0.000136187
0.000169591
0.000198646
0.000208518
0.000199529
0.000180163
0.000158228
0.000136543
0.000107178
6.62977e-05
3.08899e-05
3.06078e-05
7.62797e-05
0.000145026
0.000201493
0.000226637
0.000225458
0.000226061
0.000248752
0.000283071
0.000315068
0.000334353
0.000338666
0.000329844
0.00030912
0.000293632
0.000301428
0.000310708
0.000271783
0.000164809
6.76967e-05
-2.85049e-05
-5.40153e-05
-2.82562e-05
2.17323e-05
7.84806e-05
0.000120632
0.000135589
0.000127836
0.000118713
0.000130919
0.000160346
0.000186123
0.000194972
0.000188202
0.000173714
0.000155719
0.000134205
0.000103773
6.34825e-05
3.00238e-05
3.17384e-05
7.96871e-05
0.000149078
0.000201189
0.000218642
0.000208972
0.000200459
0.000219193
0.000259886
0.000302195
0.000329327
0.000337781
0.000332543
0.000315366
0.000301206
0.000310624
0.000327709
0.00030045
0.000200862
0.000104448
-4.53614e-06
-4.81275e-05
-3.54375e-05
8.33651e-06
6.59416e-05
0.000114164
0.000133522
0.000126737
0.000115724
0.000124835
0.000151661
0.000174506
0.000179873
0.000171534
0.000159755
0.000146857
0.000128717
9.93301e-05
6.14947e-05
3.38247e-05
4.22025e-05
9.54106e-05
0.000166801
0.000214769
0.000224636
0.000206324
0.000187068
0.000195016
0.000233849
0.000282346
0.000317847
0.000333637
0.000336059
0.000326456
0.000316914
0.000327138
0.000347157
0.0003285
0.000237563
0.000143646
2.94236e-05
-3.03221e-05
-3.3425e-05
1.13604e-07
5.41487e-05
0.000105224
0.000129556
0.000124546
0.000112081
0.000119545
0.00014593
0.000168526
0.00017054
0.000157124
0.000143847
0.000134694
0.000121374
9.56681e-05
6.18518e-05
4.03845e-05
5.3621e-05
0.000109449
0.000180471
0.000228101
0.000236983
0.000216119
0.000189597
0.000184591
0.000211292
0.000256638
0.000297871
0.000322557
0.000334655
0.000335367
0.000330971
0.000339608
0.000359228
0.00034812
0.000268945
0.000179675
7.07322e-05
1.61874e-06
-1.72214e-05
2.23857e-06
4.71383e-05
9.61433e-05
0.000124533
0.000122799
0.000110521
0.000117871
0.000145428
0.000169907
0.000171429
0.00015445
0.000137615
0.000128871
0.00011965
9.93249e-05
7.15178e-05
5.52043e-05
6.78279e-05
0.000116722
0.000181994
0.000231843
0.000247003
0.000230681
0.000202629
0.000187101
0.000198844
0.00023247
0.000270746
0.000300829
0.000322492
0.000334427
0.000336207
0.000340447
0.000354375
0.000349411
0.00028759
0.000209993
0.000116315
4.52306e-05
1.28978e-05
1.63903e-05
4.77928e-05
9.03163e-05
0.000118994
0.00012204
0.00011319
0.000120305
0.000148089
0.000175151
0.000181912
0.000169454
0.000151668
0.000136554
0.000121316
9.99479e-05
7.73628e-05
6.87023e-05
8.21029e-05
0.000123509
0.000181111
0.000232568
0.000257449
0.000247453
0.000217378
0.000193431
0.000192006
0.000213909
0.000246466
0.000277892
0.000304397
0.0003222
0.000329481
0.000330734
0.000335672
0.000333069
0.000291735
0.000232282
0.00016239
9.79569e-05
5.65403e-05
4.38316e-05
5.74163e-05
8.65647e-05
0.000111523
0.000117537
0.000114919
0.000124797
0.000151981
0.000181073
0.000193184
0.000184947
0.000166568
0.000144926
0.000119747
9.35446e-05
7.43741e-05
7.4627e-05
9.68459e-05
0.000136407
0.000185337
0.000233703
0.000266595
0.000263587
0.000232149
0.000198795
0.000186278
0.000199369
0.000229394
0.000260673
0.000290459
0.000314205
0.000325555
0.000323972
0.000317719
0.000311211
0.000285716
0.000245205
0.000196997
0.000146284
0.000109355
9.07341e-05
8.62189e-05
9.21431e-05
0.000100277
0.000105083
0.000107787
0.000122513
0.000152675
0.000185434
0.000202793
0.000197684
0.000179065
0.000155697
0.000129281
0.000101849
8.37249e-05
8.80483e-05
0.000116146
0.000155555
0.000196289
0.000235314
0.000265838
0.000267007
0.000239273
0.000203837
0.000184991
0.000191904
0.000218902
0.000251869
0.00028278
0.000307888
0.000320978
0.000318015
0.000304696
0.000293899
0.000278495
0.000245429
0.00021839
0.000184411
0.000155908
0.000138194
0.000124925
0.000112184
9.99826e-05
9.32718e-05
9.56836e-05
0.00011466
0.000149368
0.000188237
0.000210622
0.000209294
0.00019003
0.000164342
0.00013921
0.000115256
9.95654e-05
0.000103873
0.000130065
0.000168358
0.000207304
0.000241158
0.000265485
0.000266211
0.000240222
0.000204916
0.000183729
0.000187844
0.000212541
0.000245875
0.000278179
0.000302727
0.00031258
0.000303321
0.000284332
0.000269187
0.000260296
0.000227804
0.000218603
0.000202359
0.00018736
0.000178919
0.00016632
0.000139588
0.00010906
8.74362e-05
8.20298e-05
9.47473e-05
0.000125043
0.000166634
0.000202477
0.000215274
0.00020445
0.000180161
0.000155483
0.000134762
0.000120331
0.000119217
0.000137174
0.000169532
0.000208059
0.00024379
0.000266245
0.000264622
0.000237761
0.000203698
0.000182716
0.000184761
0.000205324
0.000235252
0.000266767
0.00029011
0.000297142
0.000283712
0.000258228
0.000237183
0.000230041
0.000201396
0.000202294
0.000198958
0.000191152
0.000182432
0.000171032
0.000151708
0.000124993
9.8612e-05
8.12453e-05
7.95899e-05
9.49571e-05
0.00012425
0.000157849
0.000183336
0.0001921
0.000186627
0.000175324
0.00016124
0.000144422
0.000131905
0.000132929
0.00015347
0.000188562
0.000229436
0.000256738
0.000255776
0.00022952
0.000197082
0.000178957
0.000182224
0.000201016
0.000226767
0.000252778
0.000270635
0.00027459
0.000261305
0.000236604
0.000214046
0.000203283
0.000181405
0.000181113
0.000183873
0.000185978
0.000186134
0.000178983
0.000158963
0.000130551
0.000103351
8.30089e-05
7.17862e-05
7.24087e-05
8.56408e-05
0.000109119
0.000135198
0.000156252
0.000168854
0.000174057
0.000171423
0.000159048
0.00014381
0.000140456
0.000156246
0.000187344
0.000222877
0.000246138
0.000241764
0.000212026
0.000178081
0.000158169
0.000163682
0.000187268
0.000218752
0.000245724
0.000260773
0.000263415
0.000254136
0.000234041
0.00020954
0.000190348
0.00019919
0.000188442
0.000182982
0.000182889
0.000183685
0.000177298
0.000161407
0.000138256
0.000115782
9.96965e-05
8.94791e-05
8.33251e-05
8.18232e-05
8.68113e-05
9.86369e-05
0.000114703
0.000132924
0.000150254
0.000161739
0.000163809
0.000159859
0.00016017
0.000171728
0.000194158
0.00022144
0.000240932
0.000238013
0.000210525
0.000170896
0.000142896
0.000141891
0.000166105
0.000202841
0.0002362
0.000255293
0.000257117
0.000248869
0.000237182
0.00022464
0.000212422
0.00020139
0.000188973
0.000179551
0.000172986
0.000168034
0.000162885
0.000154317
0.000141289
0.000127923
0.000119995
0.000117989
0.000119297
0.000121846
0.000124242
0.00012511
0.000127668
0.000133955
0.000143857
0.00015394
0.000160298
0.000160591
0.000161507
0.000170437
0.000188929
0.000211381
0.000227556
0.000226856
0.000204856
0.000170161
0.000142165
0.000135897
0.000153052
0.000185336
0.000217885
0.000238393
0.000244029
0.000240024
0.000232625
0.000224098
0.000213312
0.000193825
0.000172316
0.000154251
0.000143201
0.000139629
0.000140452
0.000142361
0.000143314
0.000141838
0.000138431
0.000134134
0.000130209
0.000129296
0.000132135
0.000139726
0.000149265
0.000158756
0.000167231
0.00017326
0.000175573
0.000174042
0.000171225
0.000172401
0.000180284
0.000193215
0.000206362
0.000210996
0.000198748
0.000172656
0.000147278
0.000136814
0.000145799
0.000169413
0.000197088
0.000217648
0.000227494
0.000228735
0.000226665
0.000222329
0.000211945
0.000183847
0.000150992
0.000122152
0.00010589
0.000104431
0.000113549
0.000126776
0.000138626
0.000145568
0.000146428
0.000143748
0.000141653
0.000142686
0.000147516
0.000154542
0.000163406
0.000176268
0.000191605
0.000204632
0.000208562
0.000200049
0.000184161
0.000170321
0.000165324
0.00017062
0.00018191
0.000192623
0.000193053
0.000182023
0.00016573
0.000155186
0.000156015
0.000167318
0.000184793
0.000201435
0.000214215
0.000222521
0.000226288
0.000222992
0.000210034
0.000109598
6.52976e-05
4.33551e-05
4.73679e-05
7.43161e-05
0.000111999
0.000142626
0.000151511
0.000138981
0.000125537
0.000130645
0.000150744
0.000167576
0.000170865
0.000164595
0.000155197
0.000145491
0.000134467
0.00011964
0.000104982
0.000102981
0.000124762
0.000170071
0.000225686
0.000273476
0.000301561
0.000312795
0.000318855
0.00032644
0.000340872
0.000366142
0.000396091
0.000414895
0.000409574
0.000385949
0.000356261
0.000322684
0.000282823
0.000231485
0.000169571
0.000111438
6.64704e-05
4.39119e-05
4.74249e-05
7.39967e-05
0.000111569
0.000142332
0.000151487
0.000139167
0.000125771
0.000130854
0.000150959
0.000167786
0.000170961
0.000164501
0.000154999
0.000145221
0.000134082
0.00011906
0.000104144
0.000101855
0.000123351
0.000168393
0.000223682
0.000271163
0.000298982
0.00030987
0.000315477
0.000322533
0.000336445
0.000361615
0.000392321
0.000412611
0.000408784
0.000386282
0.000357489
0.000324534
0.00028519
0.000234132
0.000171978
0.000112037
6.60902e-05
4.28479e-05
4.5961e-05
7.24323e-05
0.000110317
0.000141667
0.000151354
0.000139124
0.000125419
0.000130256
0.000150391
0.000167312
0.000170453
0.000163987
0.000154624
0.000145018
0.000133876
0.000118629
0.000103339
0.000100605
0.000121744
0.000166644
0.000221942
0.00026944
0.000297225
0.000307791
0.000312748
0.00031876
0.000331377
0.00035586
0.000387501
0.000410201
0.000408924
0.000388134
0.000360267
0.000327694
0.000288413
0.000236904
0.000173752
0.000110781
6.34011e-05
3.93166e-05
4.20628e-05
6.87423e-05
0.000107457
0.000139963
0.0001505
0.000138195
0.000123727
0.000128035
0.000148263
0.000165478
0.000168766
0.000162576
0.000153807
0.000144862
0.000133988
0.000118515
0.000102781
9.96403e-05
0.000120633
0.00016575
0.000221514
0.000269325
0.000297147
0.000307327
0.000311564
0.000316293
0.000326946
0.000349886
0.000382076
0.000407745
0.000410023
0.000391701
0.000364958
0.000332633
0.000292754
0.000239784
0.000174573
0.000108014
5.86026e-05
3.34244e-05
3.55705e-05
6.2497e-05
0.000102374
0.00013659
0.000148419
0.000136014
0.000120308
0.00012362
0.000143785
0.000161382
0.000164999
0.000159402
0.000151822
0.000144249
0.000134165
0.000118488
0.000102127
9.86693e-05
0.000119948
0.000165882
0.000222658
0.000271195
0.000298979
0.000308495
0.000312012
0.000315876
0.000324654
0.000345201
0.00037669
0.000404913
0.000411353
0.0003965
0.00037165
0.000339806
0.000298738
0.000243219
0.000174799
0.000104347
5.22668e-05
2.55312e-05
2.65582e-05
5.34367e-05
9.46043e-05
0.000131094
0.000144891
0.000132768
0.000115594
0.000117238
0.000136665
0.00015428
0.000158192
0.000153511
0.000147853
0.000142576
0.000134022
0.000118322
0.000100918
9.64803e-05
0.000117493
0.000164254
0.000222897
0.000273429
0.000301962
0.000310731
0.000313302
0.000317105
0.0003255
0.000343825
0.000372951
0.00040193
0.000412157
0.000401709
0.000380108
0.000349794
0.000307302
0.000248119
0.000175188
0.000100915
4.5151e-05
1.64859e-05
1.54055e-05
4.11663e-05
8.3154e-05
0.000122455
0.000139505
0.000128942
0.000110943
0.000110656
0.000128281
0.000144618
0.000147992
0.000144395
0.00014148
0.000139694
0.000133671
0.000118298
9.9251e-05
9.22336e-05
0.000110613
0.000155812
0.000215284
0.000269105
0.00030093
0.000310849
0.000312943
0.00031707
0.000327475
0.000345922
0.000372273
0.000399517
0.000411767
0.000406088
0.000389905
0.00036354
0.000320156
0.000256096
0.000177153
9.96444e-05
3.90438e-05
7.52048e-06
3.87882e-06
2.66044e-05
6.75178e-05
0.000109041
0.00013018
0.000123174
0.000106502
0.00010508
0.000120502
0.000134943
0.000137127
0.000133633
0.000133682
0.000136239
0.000133626
0.000118883
9.73951e-05
8.5621e-05
9.81445e-05
0.000138555
0.00019688
0.000253776
0.000290465
0.000303487
0.00030698
0.000311759
0.000323709
0.00034455
0.000370757
0.000396894
0.000409626
0.000408082
0.000399529
0.000380799
0.000339241
0.000270037
0.000183036
0.000102873
3.61895e-05
1.19071e-06
-5.37102e-06
1.34344e-05
5.15028e-05
9.28054e-05
0.0001166
0.000113146
9.83058e-05
9.6237e-05
0.000109288
0.000121383
0.000123257
0.000121986
0.000125604
0.000132834
0.000133932
0.00011988
9.52027e-05
7.6518e-05
7.98733e-05
0.000113138
0.000169421
0.000229333
0.000271256
0.000287957
0.000293553
0.000300472
0.000312802
0.000332679
0.000357991
0.000385353
0.000402305
0.000406003
0.000406566
0.000399478
0.000364665
0.000292271
0.000195801
0.000113897
3.87028e-05
-3.53834e-07
-1.01462e-05
4.93648e-06
3.91294e-05
7.86319e-05
0.000102586
0.000100251
8.5894e-05
8.25433e-05
9.20285e-05
0.000100271
0.00010131
0.000102888
0.000112742
0.000126651
0.000132731
0.000120099
9.3027e-05
6.78995e-05
6.16797e-05
8.58324e-05
0.000138535
0.000200968
0.000248424
0.000268253
0.000274498
0.00028283
0.000297209
0.000314913
0.000335292
0.000361327
0.000383857
0.000396526
0.000408376
0.00041579
0.000392365
0.0003225
0.000218229
0.000136519
4.9573e-05
3.0871e-06
-1.03148e-05
2.35191e-06
3.53647e-05
7.37389e-05
9.48824e-05
8.98563e-05
7.35252e-05
6.76294e-05
7.37366e-05
7.91361e-05
7.93805e-05
8.26933e-05
9.62188e-05
0.000116002
0.000127826
0.000118432
9.20655e-05
6.52288e-05
5.37001e-05
6.90709e-05
0.0001157
0.000177637
0.000229537
0.000252794
0.000257443
0.000263354
0.000278829
0.000297485
0.000312575
0.000332131
0.000357514
0.000379089
0.000403147
0.000425973
0.000416998
0.000355772
0.000251416
0.000170186