/*--------------------------------*- C++ -*----------------------------------*\
| =========                 |                                                 |
| \\      /  F ield         | OpenFOAM: The Open Source CFD Toolbox           |
|  \\    /   O peration     | Version:  2306                                  |
|   \\  /    A nd           | Website:  www.openfoam.com                      |
|    \\/     M anipulation  |                                                 |
\*---------------------------------------------------------------------------*/
FoamFile
{
    version     2.0;
    format      ascii;
    arch        "LSB;label=32;scalar=64";
    class       volVectorField;
    location    "3.5";
    object      U;
}
// * * * * * * * * * * * * * * * * * * * * * * * * * * * * * * * * * * * * * //

dimensions      [0 1 -1 0 0 0 0];

internalField   nonuniform List<vector> 
60000
(
(0.00994566 6.20697e-05 0.00193585)
(0.0100771 5.23682e-05 0.00254047)
(0.00992617 2.56595e-05 0.00276952)
(0.00963943 2.00269e-06 0.0026041)
(0.00940215 -9.95191e-06 0.00224666)
(0.00923842 -8.03367e-06 0.00187941)
(0.00907889 -2.54528e-06 0.00154256)
(0.00887368 -2.15984e-06 0.00122822)
(0.00854967 -7.21605e-06 0.00099819)
(0.00797198 -1.08594e-05 0.000914946)
(0.00711206 -1.21399e-05 0.00096838)
(0.0062293 -1.00977e-05 0.00106141)
(0.00567528 -7.76068e-06 0.00112325)
(0.00554095 -1.21814e-05 0.00112772)
(0.0056828 -2.20053e-05 0.000978717)
(0.00587329 -2.53657e-05 0.000692521)
(0.00598498 -1.50767e-05 0.000394168)
(0.00609967 -1.89977e-06 0.000141782)
(0.00633914 8.92065e-06 -6.06889e-05)
(0.00667308 1.79547e-05 -0.000227858)
(0.00700376 2.53455e-05 -0.000417543)
(0.00730322 2.61119e-05 -0.000699003)
(0.00764007 1.42568e-05 -0.00108766)
(0.00809766 -1.20194e-06 -0.0015862)
(0.00863206 -9.206e-06 -0.00210033)
(0.00905128 -1.1022e-05 -0.00243741)
(0.00915427 -1.24195e-05 -0.00251194)
(0.00882734 -7.0329e-06 -0.00248823)
(0.00810576 7.47965e-06 -0.00241575)
(0.00723543 1.28186e-05 -0.0022154)
(0.00655503 -1.30962e-06 -0.00204341)
(0.00618617 -6.83423e-06 -0.00202246)
(0.00606236 4.46819e-08 -0.00199201)
(0.00616412 5.35549e-06 -0.00171744)
(0.00647619 1.39836e-05 -0.001117)
(0.00691705 2.80548e-05 -0.000368089)
(0.00741996 4.3337e-05 0.000199736)
(0.00803357 4.67789e-05 0.000498632)
(0.00877161 4.20148e-05 0.000765583)
(0.00948021 4.95382e-05 0.00124674)
(0.0299165 0.000313785 0.00536336)
(0.0307155 0.000253808 0.00674561)
(0.0306211 0.000109664 0.00712997)
(0.0298395 -2.38779e-05 0.00654753)
(0.028968 -8.2003e-05 0.00561797)
(0.0283249 -6.50969e-05 0.00481456)
(0.0278068 -2.77133e-05 0.00412488)
(0.0271745 -8.4797e-06 0.0034216)
(0.0261582 -4.99758e-06 0.00281104)
(0.0244666 -8.76482e-06 0.00250452)
(0.0220847 -3.94172e-05 0.00259399)
(0.0196272 -0.00010469 0.00288528)
(0.0179529 -0.000179143 0.00307988)
(0.0173153 -0.000236818 0.0029767)
(0.0173571 -0.000252838 0.00247213)
(0.0175549 -0.000203512 0.00173518)
(0.0177196 -0.000107627 0.00102858)
(0.0180772 -2.55866e-05 0.000440547)
(0.018805 2.84875e-05 -5.55189e-05)
(0.0197757 6.84437e-05 -0.000519753)
(0.020828 8.85157e-05 -0.001091)
(0.0219716 5.06678e-05 -0.00189784)
(0.0233278 -5.03102e-05 -0.00297936)
(0.0249501 -0.000143443 -0.0043173)
(0.0266128 -0.000164241 -0.00564319)
(0.0278243 -0.000124434 -0.00647848)
(0.0280747 -6.27689e-05 -0.0066409)
(0.0270822 1.70526e-05 -0.00645548)
(0.0250772 8.25693e-05 -0.00605164)
(0.0227668 4.68482e-05 -0.00549491)
(0.020793 -6.68495e-05 -0.00526206)
(0.0193457 -0.000111584 -0.00543332)
(0.0185118 -7.74197e-05 -0.00537118)
(0.0185111 -2.76068e-05 -0.00447735)
(0.0193104 4.85718e-05 -0.0027724)
(0.020607 0.000158323 -0.000862122)
(0.022181 0.000251751 0.000554741)
(0.0240879 0.000256734 0.00140734)
(0.0262698 0.000231887 0.00227393)
(0.0283484 0.000265117 0.00363316)
(0.0502735 0.000609854 0.00775985)
(0.0522621 0.000444197 0.00987585)
(0.0526534 0.000130746 0.0105721)
(0.0514551 -0.000136469 0.00974655)
(0.049722 -0.000231978 0.00831144)
(0.0483829 -0.000180791 0.00716661)
(0.0474648 -9.7923e-05 0.00634661)
(0.0464857 -5.09994e-05 0.00550523)
(0.0449551 -3.26908e-05 0.0045937)
(0.0424855 -3.83175e-05 0.00390351)
(0.0389706 -0.000109179 0.00379684)
(0.0350235 -0.000273561 0.00423703)
(0.0318344 -0.00047275 0.00469148)
(0.0300888 -0.000615243 0.00459066)
(0.0295231 -0.00063197 0.00381775)
(0.0294105 -0.000492092 0.00275835)
(0.0294663 -0.000262169 0.00179426)
(0.0299799 -7.22377e-05 0.00101005)
(0.0311305 4.23223e-05 0.000338587)
(0.0327051 0.000117984 -0.000315373)
(0.0345115 0.00012807 -0.00112755)
(0.0366136 -1.47512e-05 -0.00227085)
(0.039156 -0.000284809 -0.00384856)
(0.0421201 -0.000508472 -0.00589883)
(0.0451028 -0.000545022 -0.00805749)
(0.0473477 -0.000426468 -0.00955768)
(0.0480647 -0.000241346 -0.0099912)
(0.046789 -2.15589e-05 -0.00968772)
(0.0438732 0.000127065 -0.00888178)
(0.0403637 3.00157e-05 -0.00787393)
(0.0370791 -0.000207404 -0.00752124)
(0.0342111 -0.00029134 -0.00803088)
(0.0320133 -0.000212011 -0.0083365)
(0.0311819 -9.7076e-05 -0.007283)
(0.0319858 7.42532e-05 -0.00483079)
(0.0339594 0.000329541 -0.00197518)
(0.0365989 0.000544086 0.000229874)
(0.0398558 0.000551422 0.00165326)
(0.0435751 0.000493316 0.0030794)
(0.0472194 0.000545504 0.00517059)
(0.0700713 0.000812243 0.0084051)
(0.0738715 0.000520229 0.0114581)
(0.0753915 3.35601e-05 0.0129862)
(0.0740625 -0.000340446 0.0124322)
(0.0712835 -0.000448498 0.0105919)
(0.0689623 -0.000346756 0.00896781)
(0.067582 -0.000211035 0.0080658)
(0.0664184 -0.000126096 0.00738475)
(0.0646945 -7.75621e-05 0.00643686)
(0.0619741 -6.82852e-05 0.00529567)
(0.0579745 -0.000159458 0.00463674)
(0.0529104 -0.000419674 0.00497051)
(0.047887 -0.000789828 0.00581969)
(0.0441581 -0.00108411 0.00603606)
(0.0421521 -0.00114005 0.00517113)
(0.0412294 -0.000907263 0.00387063)
(0.0409007 -0.00051592 0.00276392)
(0.0413666 -0.000192658 0.0019485)
(0.0427655 2.29885e-07 0.00129571)
(0.0447991 0.000106394 0.000678229)
(0.0472421 7.32063e-05 -8.17333e-05)
(0.0502009 -0.000241724 -0.00119076)
(0.053875 -0.000787468 -0.00287718)
(0.0582425 -0.00122105 -0.00540017)
(0.0628043 -0.00127813 -0.00849525)
(0.0665437 -0.00102897 -0.0111053)
(0.0683693 -0.000637561 -0.0123486)
(0.0675627 -0.000183963 -0.0123247)
(0.0644198 0.000112256 -0.0112853)
(0.06015 -3.18693e-05 -0.00968849)
(0.0557325 -0.000402393 -0.00884991)
(0.0513891 -0.000532543 -0.00951773)
(0.0473125 -0.000415929 -0.0105824)
(0.0445496 -0.000263416 -0.0102174)
(0.0442304 -1.73041e-05 -0.00778742)
(0.0462557 0.00039435 -0.00437799)
(0.0497399 0.000754355 -0.00149862)
(0.0543065 0.000778088 0.000445274)
(0.0596513 0.000646955 0.00233195)
(0.0650981 0.000725927 0.00501611)
(0.0874497 0.000735444 0.00626809)
(0.093734 0.000365438 0.0104937)
(0.0973428 -0.000246471 0.0135866)
(0.0966191 -0.000654344 0.014343)
(0.0928444 -0.000712132 0.0126777)
(0.0892201 -0.000535155 0.0103919)
(0.0872441 -0.000348691 0.00911763)
(0.0861014 -0.000230196 0.00875135)
(0.0845737 -0.000144047 0.00827221)
(0.0821565 -0.000102585 0.00696864)
(0.0784678 -0.000163376 0.00546262)
(0.0731337 -0.00044082 0.00514518)
(0.0666179 -0.000955892 0.00625481)
(0.0602625 -0.00147763 0.00719016)
(0.0556448 -0.0016826 0.00656669)
(0.0530151 -0.00142995 0.00505462)
(0.0517885 -0.000897432 0.00381257)
(0.0518387 -0.000433748 0.00310186)
(0.0531465 -0.000147738 0.00270858)
(0.055292 -4.96625e-06 0.00244418)
(0.0579414 -0.000108771 0.0021544)
(0.0611956 -0.000688928 0.00164844)
(0.0653805 -0.00169673 0.000564783)
(0.0707576 -0.00254897 -0.00174597)
(0.0770973 -0.00267872 -0.00555215)
(0.0831338 -0.00214085 -0.00982402)
(0.0871772 -0.00136647 -0.0128885)
(0.0880769 -0.000556585 -0.014104)
(0.0858167 -5.8312e-06 -0.0134746)
(0.081521 -0.00013436 -0.0114371)
(0.0763767 -0.000622836 -0.00972123)
(0.0709055 -0.000792511 -0.00996811)
(0.0651719 -0.000635283 -0.011607)
(0.0598811 -0.000490742 -0.0125177)
(0.0568103 -0.000278681 -0.0112226)
(0.0572308 0.000198004 -0.00822648)
(0.0605659 0.000657366 -0.00523953)
(0.0659634 0.000666312 -0.00309876)
(0.0728119 0.000410748 -0.000975463)
(0.0802063 0.000511018 0.00213739)
(0.0988735 -0.000262684 -5.39846e-05)
(0.108265 -0.000381079 0.00519615)
(0.115546 -0.000869968 0.0105378)
(0.117076 -0.00114485 0.0141533)
(0.112971 -0.00103329 0.0142855)
(0.107808 -0.000719459 0.0118017)
(0.105018 -0.000474443 0.00962399)
(0.104135 -0.000351025 0.00920836)
(0.103242 -0.000238871 0.00965322)
(0.101542 -0.000157693 0.00899811)
(0.0988425 -0.000153372 0.00679915)
(0.0943974 -0.000318268 0.0051624)
(0.087735 -0.00083421 0.00589718)
(0.0792891 -0.0015638 0.00770246)
(0.0711382 -0.00205316 0.00787644)
(0.0653674 -0.00194932 0.00630493)
(0.0622617 -0.00137072 0.00477922)
(0.0613162 -0.00078911 0.00410582)
(0.0620581 -0.000404427 0.00406219)
(0.0638009 -0.000196196 0.00434289)
(0.0659406 -0.000396059 0.00480775)
(0.0683838 -0.00139205 0.00535077)
(0.0715734 -0.00311303 0.00562482)
(0.0762717 -0.00470402 0.0047637)
(0.0832172 -0.0052737 0.00175214)
(0.0921587 -0.00456709 -0.0035782)
(0.100665 -0.00298867 -0.0095557)
(0.105562 -0.00134332 -0.0137485)
(0.106023 -0.00029334 -0.0149328)
(0.102904 -0.000299273 -0.0133036)
(0.0976475 -0.000859951 -0.010802)
(0.0915974 -0.00103618 -0.0100216)
(0.0851287 -0.000800483 -0.0114445)
(0.0781908 -0.000644003 -0.0132525)
(0.0719578 -0.000541697 -0.0136136)
(0.0687303 -0.000187188 -0.012307)
(0.0695133 0.000162702 -0.0105316)
(0.0739229 -1.65806e-05 -0.00915433)
(0.0810782 -0.000566093 -0.00743764)
(0.0896545 -0.000606759 -0.0044159)
(0.101523 -0.00235871 -0.00980208)
(0.111678 -0.00236045 -0.00493143)
(0.123927 -0.00253588 0.00189649)
(0.131312 -0.00216914 0.00942313)
(0.129197 -0.00154042 0.0138074)
(0.1227 -0.00097186 0.0131541)
(0.118787 -0.000604172 0.0101533)
(0.118481 -0.000449742 0.00871124)
(0.118896 -0.00036761 0.00978447)
(0.118215 -0.000276876 0.0107948)
(0.116672 -0.000176867 0.00893034)
(0.114015 -0.000155286 0.00570753)
(0.109162 -0.000475983 0.00503418)
(0.100919 -0.00121082 0.00721931)
(0.0900277 -0.0019671 0.00868398)
(0.0798619 -0.00219976 0.00760811)
(0.073237 -0.00178342 0.00576711)
(0.0703446 -0.00116747 0.00484523)
(0.0700552 -0.00067426 0.00488545)
(0.0711338 -0.000357496 0.00543121)
(0.0726305 -0.000653187 0.00624263)
(0.0741299 -0.00221151 0.00741289)
(0.075755 -0.00487753 0.0090163)
(0.0781625 -0.00736048 0.0103134)
(0.0825558 -0.00852619 0.0099253)
(0.0905766 -0.00807607 0.00647241)
(0.102646 -0.00614089 -0.000499501)
(0.114665 -0.003297 -0.00866465)
(0.121303 -0.00110303 -0.013808)
(0.121493 -0.000675686 -0.0144114)
(0.116976 -0.00119854 -0.0122362)
(0.110786 -0.00123999 -0.0104396)
(0.104597 -0.000824471 -0.0108136)
(0.0979146 -0.000617979 -0.0124356)
(0.090495 -0.000553003 -0.0137087)
(0.0840458 -0.000362542 -0.0143241)
(0.0805439 -0.000369552 -0.0150094)
(0.0811819 -0.00109392 -0.0158676)
(0.086099 -0.00223854 -0.0155802)
(0.0934288 -0.00263161 -0.013375)
(0.102241 -0.00472254 -0.0188812)
(0.108741 -0.00507394 -0.0147008)
(0.120674 -0.00554606 -0.00852467)
(0.134635 -0.00440189 0.000468594)
(0.138531 -0.00243911 0.00927122)
(0.131841 -0.00125969 0.012932)
(0.125561 -0.000932102 0.0110153)
(0.126014 -0.000730949 0.00797892)
(0.129303 -0.000489626 0.00818645)
(0.130355 -0.00047056 0.0108594)
(0.129293 -0.000484472 0.0110424)
(0.128261 -0.000227286 0.00719846)
(0.126812 -8.24942e-05 0.0043266)
(0.122151 -0.00056142 0.00579251)
(0.112009 -0.00132132 0.00844061)
(0.0983786 -0.00184827 0.00859807)
(0.086675 -0.0018363 0.00695179)
(0.0801842 -0.00142538 0.00573242)
(0.0781717 -0.000883627 0.0055078)
(0.0786561 -0.000399057 0.00584561)
(0.080356 -0.000654699 0.0063704)
(0.0824912 -0.00253826 0.0073151)
(0.0841078 -0.00593146 0.00934958)
(0.0847417 -0.00935502 0.0122331)
(0.0854251 -0.0113096 0.0145729)
(0.0887891 -0.0112953 0.0144956)
(0.0980095 -0.00953656 0.0100049)
(0.11288 -0.00622262 0.00107007)
(0.127195 -0.0028453 -0.00799256)
(0.133568 -0.00150553 -0.0126846)
(0.130603 -0.00177954 -0.0129242)
(0.123782 -0.00177031 -0.0111514)
(0.118506 -0.00108986 -0.0100336)
(0.114398 -0.000459715 -0.0104326)
(0.109011 -0.000116244 -0.0114779)
(0.102627 0.000135925 -0.0129282)
(0.0967997 -0.000233808 -0.015769)
(0.0929144 -0.00184155 -0.0198501)
(0.0929592 -0.0039982 -0.0225214)
(0.0970689 -0.0049357 -0.0218257)
(0.106357 -0.00669131 -0.025349)
(0.109756 -0.00727909 -0.0209331)
(0.116822 -0.0087816 -0.014919)
(0.13054 -0.00799237 -0.00688347)
(0.141373 -0.00434653 0.00285205)
(0.138902 -0.00145175 0.0098333)
(0.129553 -0.00103351 0.0107021)
(0.126158 -0.0014989 0.00750708)
(0.131974 -0.0010949 0.00571122)
(0.137935 -0.000463431 0.00818228)
(0.136876 -0.000614862 0.0107851)
(0.133079 -0.000954637 0.00846432)
(0.133509 -0.000778632 0.00407643)
(0.136153 -0.000479486 0.00386695)
(0.132796 -0.000549311 0.00699358)
(0.120464 -0.000879179 0.00864513)
(0.104654 -0.00116118 0.00794886)
(0.0928694 -0.00125657 0.0069696)
(0.0875345 -0.000990019 0.00663489)
(0.0868813 -0.000459088 0.00665856)
(0.0889452 -0.000595866 0.00670751)
(0.092371 -0.00247219 0.0069874)
(0.095342 -0.00596743 0.00843574)
(0.0961653 -0.00976569 0.011459)
(0.0948276 -0.012473 0.0151982)
(0.0934796 -0.0133307 0.0180604)
(0.0969827 -0.0122035 0.0169655)
(0.10879 -0.00924041 0.00988918)
(0.125869 -0.00540198 -0.000403483)
(0.137399 -0.00270732 -0.00843897)
(0.134235 -0.00168535 -0.0114647)
(0.122155 -0.00138008 -0.0103379)
(0.114093 -0.00130249 -0.00769764)
(0.114321 -0.00105519 -0.00610525)
(0.117392 -0.000173515 -0.00632635)
(0.117531 0.000924654 -0.00800129)
(0.114593 0.000866369 -0.0118025)
(0.109906 -0.00134929 -0.0182048)
(0.105228 -0.00476248 -0.0246113)
(0.104075 -0.00672063 -0.0271608)
(0.113267 -0.00755332 -0.0284276)
(0.114384 -0.00819747 -0.0248613)
(0.117963 -0.0106601 -0.0183827)
(0.12676 -0.0115518 -0.0109167)
(0.139369 -0.00785651 -0.00245911)
(0.144454 -0.00257791 0.00529287)
(0.138118 -0.000536643 0.00847522)
(0.129286 -0.00167282 0.00654008)
(0.128951 -0.00250285 0.00352595)
(0.137674 -0.00121473 0.00430385)
(0.143189 0.00020953 0.00793957)
(0.138373 -0.000419288 0.00834669)
(0.132365 -0.00231085 0.0045574)
(0.135969 -0.00298648 0.00263185)
(0.143403 -0.0017925 0.00508695)
(0.140415 -0.000366515 0.00773391)
(0.126105 0.000109565 0.0081213)
(0.110168 -0.000217774 0.00784531)
(0.0998314 -0.000608931 0.00810009)
(0.0960694 -0.000565422 0.00846663)
(0.0974925 -0.000876535 0.00822035)
(0.102195 -0.00270729 0.0072446)
(0.107007 -0.00591241 0.0070433)
(0.108872 -0.00935209 0.00911691)
(0.10715 -0.0120451 0.0130923)
(0.103302 -0.0134461 0.0176679)
(0.101511 -0.0134302 0.0197251)
(0.107644 -0.0116946 0.015251)
(0.122049 -0.00826202 0.00512181)
(0.134572 -0.00407508 -0.00491652)
(0.132254 -0.000729004 -0.00996884)
(0.118256 0.00052134 -0.00914282)
(0.106619 -0.000396144 -0.00478666)
(0.104761 -0.00167944 -0.000419859)
(0.111346 -0.00114313 0.00139541)
(0.119915 0.000859408 0.000213247)
(0.12513 0.00199954 -0.00397545)
(0.125441 0.000301968 -0.0115279)
(0.121102 -0.00374532 -0.0206022)
(0.115483 -0.00695386 -0.0270884)
(0.12296 -0.00690172 -0.0275151)
(0.120078 -0.0077798 -0.0271846)
(0.121733 -0.0106307 -0.0215393)
(0.127014 -0.0134279 -0.013802)
(0.136381 -0.0117455 -0.00635044)
(0.145301 -0.00579029 0.000528786)
(0.146065 -0.00106864 0.0049793)
(0.138712 -0.000810092 0.0051033)
(0.130959 -0.0027823 0.00240308)
(0.132034 -0.00292097 0.00140571)
(0.140955 -0.000437744 0.00422245)
(0.145458 0.00122075 0.00679388)
(0.139954 -0.00109414 0.00524506)
(0.134797 -0.00520126 0.00277213)
(0.141209 -0.00594995 0.00398196)
(0.149357 -0.00266987 0.00687476)
(0.144474 0.000538922 0.00783016)
(0.13007 0.0015143 0.0078008)
(0.116191 0.000987904 0.00873979)
(0.107721 -3.26989e-05 0.0102583)
(0.106018 -0.00160301 0.0104737)
(0.110764 -0.00401277 0.00810174)
(0.118162 -0.00664073 0.00519342)
(0.122467 -0.00892701 0.00529062)
(0.121191 -0.0108547 0.00890644)
(0.115831 -0.0120338 0.0144617)
(0.109986 -0.0125822 0.0190937)
(0.109768 -0.0123585 0.0178021)
(0.11849 -0.0101966 0.00919851)
(0.129257 -0.00532122 -0.00158495)
(0.129529 0.000156789 -0.00839525)
(0.118752 0.00289891 -0.00878211)
(0.107702 0.00162077 -0.00424849)
(0.102959 -0.00128246 0.00185956)
(0.106026 -0.0020725 0.00630391)
(0.114769 -6.20087e-05 0.00749991)
(0.124896 0.00219402 0.00491097)
(0.132451 0.00191329 -0.00221397)
(0.133997 -0.00144614 -0.0126917)
(0.129221 -0.00532123 -0.0222584)
(0.134327 -0.00467948 -0.0231663)
(0.127764 -0.00637264 -0.0265583)
(0.126703 -0.00949456 -0.0240583)
(0.130926 -0.01327 -0.017065)
(0.136961 -0.0140976 -0.00968958)
(0.143793 -0.00998035 -0.00355399)
(0.148201 -0.00392748 0.00118099)
(0.146041 -0.000849113 0.00325175)
(0.138028 -0.00163123 0.0020459)
(0.131712 -0.00310557 0.000347317)
(0.134746 -0.0021768 0.00168075)
(0.143656 0.000193867 0.00476604)
(0.147186 3.07216e-05 0.00526848)
(0.141786 -0.00434481 0.00319182)
(0.138736 -0.0085315 0.00300639)
(0.146071 -0.00708308 0.00574077)
(0.151736 -0.00166872 0.00743297)
(0.145888 0.00224705 0.00730432)
(0.133661 0.00333435 0.00824516)
(0.122386 0.00216778 0.0107772)
(0.116129 -0.00119039 0.0115124)
(0.117295 -0.00569233 0.0076387)
(0.125255 -0.00862993 0.00204926)
(0.133754 -0.00928431 0.000143804)
(0.135619 -0.00949646 0.00328253)
(0.130049 -0.00990817 0.00934368)
(0.121172 -0.0102184 0.015877)
(0.115049 -0.0107675 0.0181761)
(0.117154 -0.0102444 0.0125527)
(0.124597 -0.00608272 0.00226304)
(0.12704 0.000471014 -0.00602077)
(0.121638 0.00460562 -0.00876247)
(0.114581 0.00364798 -0.00656842)
(0.109866 0.000118398 -0.00146618)
(0.109009 -0.00180462 0.00433635)
(0.112887 -0.000658726 0.0084676)
(0.120558 0.00155652 0.00935945)
(0.130938 0.00228422 0.0054374)
(0.139786 0.000717483 -0.00393995)
(0.140637 -0.0023786 -0.015038)
(0.144294 -0.00133916 -0.0177719)
(0.136934 -0.00411956 -0.0234928)
(0.13343 -0.00815882 -0.0241637)
(0.136505 -0.0121877 -0.0195986)
(0.141428 -0.0143853 -0.0131576)
(0.1444 -0.012924 -0.00728308)
(0.146514 -0.00788924 -0.00214208)
(0.146859 -0.00264263 0.00155339)
(0.142661 -0.000655314 0.00218648)
(0.135984 -0.00174454 0.000676089)
(0.134044 -0.00281915 0.000709811)
(0.140044 -0.00203059 0.00347697)
(0.147249 -0.00125516 0.00546053)
(0.147442 -0.00363556 0.0040911)
(0.142154 -0.00834132 0.00214978)
(0.141569 -0.00993148 0.0033018)
(0.147339 -0.00571181 0.0057138)
(0.149383 0.000303209 0.00671627)
(0.14314 0.00419758 0.0079307)
(0.133297 0.00478671 0.0103471)
(0.125469 0.00160565 0.0101319)
(0.122173 -0.0046177 0.00432574)
(0.12585 -0.0100408 -0.00309173)
(0.13666 -0.0108386 -0.00581774)
(0.145243 -0.00894128 -0.00237016)
(0.143021 -0.00784014 0.00409259)
(0.132758 -0.00750638 0.0112491)
(0.12245 -0.0077303 0.0162995)
(0.118765 -0.00798198 0.0146404)
(0.122207 -0.00522948 0.0064257)
(0.125354 0.000915258 -0.0027147)
(0.124113 0.00553148 -0.00811592)
(0.12149 0.00508431 -0.00903794)
(0.119248 0.00160275 -0.00656575)
(0.117553 -0.000637008 -0.00206246)
(0.117374 -0.000161716 0.00288235)
(0.119917 0.000911809 0.00660737)
(0.127514 0.000906885 0.00690865)
(0.139656 0.000645467 0.00139328)
(0.147185 0.000165607 -0.00848471)
(0.151722 0.00124245 -0.0130934)
(0.146477 -0.00144169 -0.0200228)
(0.141672 -0.00644598 -0.0227399)
(0.14274 -0.0106513 -0.0203099)
(0.146957 -0.0129748 -0.0158198)
(0.148067 -0.0132617 -0.0112022)
(0.146185 -0.0105128 -0.00570328)
(0.144772 -0.00519699 -0.000188521)
(0.142861 -0.000722355 0.00244165)
(0.139133 -2.30017e-05 0.00160055)
(0.13666 -0.00213369 0.000756855)
(0.139609 -0.0035245 0.00296323)
(0.146371 -0.00301284 0.00603291)
(0.149967 -0.00339281 0.00568327)
(0.146937 -0.00656446 0.00231399)
(0.141562 -0.00944091 0.000831028)
(0.139594 -0.00779547 0.0031914)
(0.138927 -0.00253471 0.00683978)
(0.135738 0.00245659 0.00969681)
(0.1317 0.00519899 0.0101584)
(0.129404 0.00432326 0.00641258)
(0.127663 -0.0011516 -0.000824144)
(0.126858 -0.00899285 -0.00715047)
(0.13369 -0.01271 -0.00859572)
(0.146501 -0.0104381 -0.00470576)
(0.151086 -0.0071517 0.00142869)
(0.142471 -0.00544722 0.0076025)
(0.129508 -0.0047447 0.0132347)
(0.1219 -0.00452308 0.0148039)
(0.122442 -0.00263257 0.00975906)
(0.126136 0.00208449 0.00120021)
(0.127957 0.00583815 -0.00611866)
(0.128494 0.0052865 -0.00990682)
(0.128944 0.00228433 -0.0103963)
(0.128657 0.000705651 -0.00854388)
(0.127438 0.0012904 -0.00498208)
(0.126783 0.00123179 -0.000330715)
(0.129623 -0.000987567 0.00316816)
(0.138701 -0.00191438 0.0018886)
(0.149296 0.000187384 -0.00464008)
(0.153277 0.00203702 -0.00951243)
(0.15371 0.000803472 -0.0163283)
(0.149956 -0.00400717 -0.0203334)
(0.149086 -0.0081939 -0.0196844)
(0.152557 -0.0105481 -0.016815)
(0.154105 -0.0119648 -0.0139089)
(0.150382 -0.0113056 -0.00930517)
(0.14558 -0.00712011 -0.00279193)
(0.142522 -0.00138149 0.00185553)
(0.140285 0.00146753 0.00258641)
(0.139051 -0.000261969 0.00199631)
(0.140767 -0.00348187 0.00339469)
(0.146 -0.00449264 0.0064244)
(0.150672 -0.00386028 0.00702157)
(0.149562 -0.00463633 0.00348187)
(0.142262 -0.00659276 -2.30598e-05)
(0.133577 -0.00658486 0.000939214)
(0.127426 -0.00373388 0.00495239)
(0.124929 7.29399e-06 0.00742296)
(0.126834 0.00336681 0.0056499)
(0.131248 0.00497014 0.000219772)
(0.133926 0.0022153 -0.00566644)
(0.133471 -0.00540414 -0.00876549)
(0.13564 -0.0126204 -0.00746384)
(0.14549 -0.0132294 -0.0025878)
(0.153387 -0.00884311 0.00296)
(0.148351 -0.00475258 0.00736605)
(0.135141 -0.00261988 0.0113638)
(0.12532 -0.00146135 0.0134807)
(0.123908 0.000366402 0.0104704)
(0.127508 0.00358197 0.00336928)
(0.130323 0.00571476 -0.00334281)
(0.130802 0.00441738 -0.0069978)
(0.131307 0.00151546 -0.00863169)
(0.133199 0.000332376 -0.00945247)
(0.135198 0.00140832 -0.00816829)
(0.135902 0.00163446 -0.00363442)
(0.135722 -0.00134017 0.0013043)
(0.138353 -0.00361942 0.0019132)
(0.146139 -0.00122229 -0.00258266)
(0.147549 0.00132312 -0.00675845)
(0.154606 0.00140238 -0.0124321)
(0.155573 -0.00169892 -0.0167578)
(0.154739 -0.00501386 -0.0178976)
(0.157855 -0.00744904 -0.0165281)
(0.16096 -0.00979559 -0.0149684)
(0.157472 -0.0106546 -0.0123173)
(0.149908 -0.0077132 -0.0067249)
(0.144138 -0.00195592 -0.000432061)
(0.141524 0.0022951 0.00316775)
(0.141055 0.00182078 0.00416751)
(0.142288 -0.0017377 0.00470043)
(0.145389 -0.00415944 0.00610742)
(0.148877 -0.00412946 0.007104)
(0.149006 -0.00383786 0.00541245)
(0.143593 -0.00420013 0.00156645)
(0.135171 -0.003733 -0.00113673)
(0.128289 -0.00212268 -0.000667103)
(0.125899 -0.000578962 0.00102275)
(0.128741 0.00103491 0.000698898)
(0.134332 0.00300294 -0.00255421)
(0.138583 0.00292709 -0.00673087)
(0.139909 -0.00169589 -0.00887373)
(0.141076 -0.00946434 -0.00706195)
(0.146664 -0.0140297 -0.00174867)
(0.153305 -0.0113667 0.0036669)
(0.150858 -0.00531587 0.00741335)
(0.139657 -0.00091086 0.0108195)
(0.129553 0.00106226 0.0129633)
(0.12611 0.00246533 0.0106165)
(0.126749 0.00472354 0.00488455)
(0.126755 0.00623292 0.000473795)
(0.125587 0.00462439 -0.000939481)
(0.125926 0.00112343 -0.00204888)
(0.129394 -0.000718518 -0.00414632)
(0.134429 0.000355095 -0.00431174)
(0.137546 0.00139316 -0.000383364)
(0.137257 -0.000178155 0.00407007)
(0.136245 -0.0023946 0.00394819)
(0.139392 -0.00150962 -0.000775034)
(0.141771 0.00172892 -0.00359673)
(0.150268 0.00161878 -0.00850392)
(0.156176 -3.5494e-05 -0.012149)
(0.158959 -0.00190845 -0.0139989)
(0.163046 -0.00399646 -0.0142459)
(0.167129 -0.00691314 -0.0144834)
(0.164491 -0.00876235 -0.0141934)
(0.155526 -0.00681279 -0.0103785)
(0.147081 -0.00165428 -0.00359187)
(0.142942 0.00280819 0.00208041)
(0.142273 0.00316133 0.00482957)
(0.143243 0.000106394 0.00571776)
(0.14499 -0.00273889 0.00618677)
(0.146306 -0.00359477 0.00657486)
(0.145242 -0.00349444 0.00590067)
(0.141215 -0.00314365 0.00322003)
(0.13646 -0.00187906 -0.000657117)
(0.133516 -0.000300998 -0.00291862)
(0.133034 -8.0253e-05 -0.0020295)
(0.134929 -0.000535566 -0.000338797)
(0.13814 0.000333128 -0.00107427)
(0.140282 0.00172657 -0.00378758)
(0.140703 0.000363237 -0.00539783)
(0.141622 -0.00537458 -0.00438818)
(0.145538 -0.0116037 -0.000867924)
(0.151193 -0.0118538 0.00357643)
(0.151851 -0.00611322 0.00701415)
(0.14491 0.000187945 0.00963384)
(0.136115 0.00398247 0.0113785)
(0.130046 0.00555407 0.0102859)
(0.126028 0.00622596 0.00680541)
(0.122959 0.00606576 0.00403115)
(0.121923 0.00375039 0.0033112)
(0.123832 -0.000339041 0.00280736)
(0.128154 -0.00335259 0.000993067)
(0.133336 -0.00303634 -0.000310737)
(0.136716 -0.000648001 0.00154381)
(0.13683 0.00085226 0.00518492)
(0.135346 0.000579367 0.00595572)
(0.136055 0.000656618 0.0020177)
(0.139987 0.00420612 0.000508371)
(0.146634 0.00271988 -0.00410958)
(0.153321 0.000885723 -0.00808615)
(0.158996 -6.76804e-06 -0.0106066)
(0.16507 -0.00113014 -0.0114872)
(0.169905 -0.00380392 -0.0122652)
(0.168313 -0.0059672 -0.0137234)
(0.160178 -0.00457871 -0.0129392)
(0.151375 -0.000199167 -0.00772671)
(0.145906 0.00339102 -0.000998073)
(0.143467 0.00347267 0.0035021)
(0.142606 0.00107079 0.00533706)
(0.142583 -0.00106151 0.00598789)
(0.142526 -0.00164591 0.00637847)
(0.14131 -0.00162645 0.00586808)
(0.139166 -0.00153396 0.0036814)
(0.138211 -0.00071878 0.000289556)
(0.139689 0.000129277 -0.00216212)
(0.141834 -0.000938457 -0.00180631)
(0.142215 -0.00308938 0.000302627)
(0.140473 -0.0028533 0.00142097)
(0.138234 0.000126748 0.00105104)
(0.137918 0.00140944 0.00113669)
(0.140597 -0.00243603 0.00236021)
(0.145133 -0.00892293 0.00440496)
(0.149571 -0.0114046 0.00617585)
(0.150435 -0.00669644 0.00696179)
(0.14558 0.000997901 0.00816197)
(0.137933 0.00623858 0.00945682)
(0.130932 0.00750154 0.00890935)
(0.125161 0.00669262 0.00699804)
(0.1214 0.00578436 0.00627287)
(0.121063 0.00441722 0.00716468)
(0.123852 0.00163283 0.007339)
(0.128279 -0.00162498 0.00560808)
(0.132666 -0.00284532 0.00380829)
(0.135302 -0.000887534 0.00424113)
(0.135652 0.0020086 0.00634278)
(0.135123 0.00361371 0.0072355)
(0.135986 0.00432753 0.00489087)
(0.140334 0.00577056 0.00419217)
(0.144477 0.00317262 -0.000487695)
(0.15002 -0.000237306 -0.00504664)
(0.156493 -0.00179615 -0.00792142)
(0.163369 -0.00113187 -0.00917173)
(0.167981 -0.000611427 -0.0101901)
(0.167448 -0.00146172 -0.0118192)
(0.162787 -0.00145805 -0.0127576)
(0.157765 0.00105154 -0.010536)
(0.154135 0.00371608 -0.00556536)
(0.150708 0.0038278 -0.000854441)
(0.146517 0.00191408 0.00190974)
(0.142452 -9.28294e-05 0.00337327)
(0.139773 -0.0012144 0.0045184)
(0.139051 -0.00154047 0.00525189)
(0.140434 -0.00124951 0.00486983)
(0.144346 -0.000402601 0.0032268)
(0.15007 0.00015109 0.000862114)
(0.153548 -0.00098045 -0.000315515)
(0.1514 -0.00309562 0.00173097)
(0.145475 -0.0030666 0.00594736)
(0.140359 0.00014388 0.008386)
(0.139276 0.00309219 0.00662485)
(0.141779 0.0016611 0.00263352)
(0.145661 -0.00417155 0.00147754)
(0.149139 -0.00870939 0.00422014)
(0.149571 -0.00597019 0.00616618)
(0.144876 0.00217619 0.0061915)
(0.137094 0.00877586 0.00655392)
(0.129994 0.0106341 0.00721364)
(0.125308 0.00933807 0.00707868)
(0.123375 0.00736315 0.00630682)
(0.124038 0.00553582 0.00566405)
(0.126278 0.00346774 0.00535208)
(0.129297 0.00122751 0.00493239)
(0.132905 0.00012282 0.00430091)
(0.136444 0.00124105 0.00441991)
(0.138502 0.00356552 0.00576314)
(0.138628 0.00536061 0.00724235)
(0.138522 0.00626468 0.00703834)
(0.139186 0.00523595 0.00629178)
(0.143378 0.0027957 0.00303902)
(0.148523 -0.00149819 -0.00188536)
(0.153842 -0.00479457 -0.00616741)
(0.159626 -0.00491389 -0.0082768)
(0.164618 -0.0026531 -0.00877249)
(0.165766 -0.000407202 -0.00916776)
(0.162324 0.00107518 -0.00983454)
(0.157552 0.00276204 -0.00949002)
(0.154802 0.0044269 -0.00731874)
(0.154027 0.00476765 -0.00432212)
(0.152863 0.00371876 -0.00188788)
(0.1499 0.00203661 -0.000239379)
(0.145835 -0.000199089 0.00126643)
(0.142393 -0.00330116 0.00303435)
(0.14146 -0.00651666 0.00467499)
(0.144553 -0.00826237 0.00532895)
(0.15109 -0.007905 0.00419349)
(0.156276 -0.00623032 0.00212399)
(0.15526 -0.00434842 0.00199445)
(0.149382 -0.00204029 0.00472254)
(0.143594 0.00168217 0.00681584)
(0.140695 0.00557398 0.00449316)
(0.140146 0.00623137 -0.00120844)
(0.141309 0.00192496 -0.00469686)
(0.14422 -0.00429137 -0.00239184)
(0.146462 -0.00601401 0.00223619)
(0.14497 -0.000413121 0.00468417)
(0.140238 0.00765852 0.00538361)
(0.135916 0.0125582 0.00547298)
(0.134335 0.0132658 0.00421486)
(0.134657 0.0115286 0.0016742)
(0.135242 0.00889237 -0.00039726)
(0.135454 0.00600678 -0.000643359)
(0.135644 0.00355025 0.000808993)
(0.136336 0.0024197 0.00270242)
(0.137434 0.00285766 0.00414077)
(0.138042 0.00398131 0.00518904)
(0.137634 0.00487407 0.00626174)
(0.137383 0.00547751 0.00703085)
(0.138767 -2.81189e-05 0.0118597)
(0.143946 -0.00236833 0.00943156)
(0.150662 -0.00438492 0.00396961)
(0.155991 -0.00507238 -0.00216367)
(0.157793 -0.00355643 -0.00670256)
(0.156066 -0.00034978 -0.00898087)
(0.152377 0.00280813 -0.00937611)
(0.148628 0.00462641 -0.00858817)
(0.146002 0.00505492 -0.00754016)
(0.1449 0.00449767 -0.00693305)
(0.145565 0.00329007 -0.00662428)
(0.147965 0.00190091 -0.00584553)
(0.151404 0.000867247 -0.00422707)
(0.154212 0.000123685 -0.00234467)
(0.154697 -0.00120237 -0.00059426)
(0.152855 -0.0038275 0.00158074)
(0.15075 -0.00731026 0.00457347)
(0.150737 -0.0101483 0.00723597)
(0.152367 -0.0102987 0.00803076)
(0.152665 -0.00682604 0.00697749)
(0.14997 -0.00139055 0.00550969)
(0.145661 0.00323798 0.00411332)
(0.142046 0.0051304 0.00170125)
(0.140325 0.00368619 -0.00204827)
(0.140755 -0.000126481 -0.00463393)
(0.143147 -0.00421425 -0.00307659)
(0.145768 -0.00570374 0.00175499)
(0.146225 -0.00239192 0.00609039)
(0.144833 0.00412566 0.00772063)
(0.144192 0.00969986 0.00636109)
(0.145238 0.0122499 0.00218267)
(0.14641 0.012017 -0.00337623)
(0.146371 0.00964626 -0.00786259)
(0.145284 0.00603928 -0.00941815)
(0.143861 0.00311608 -0.00757018)
(0.142741 0.00258193 -0.00331295)
(0.141803 0.00399024 0.00149834)
(0.140162 0.00514214 0.00544505)
(0.137949 0.00448507 0.00857312)
(0.136873 0.00235114 0.0110517)
(0.151593 -0.000900243 0.00994807)
(0.152453 -0.0027154 0.0125448)
(0.153523 -0.00326145 0.0120151)
(0.15609 -0.00250591 0.00833428)
(0.159517 0.000153912 0.0029231)
(0.161613 0.00429319 -0.00244617)
(0.160798 0.00789063 -0.00651459)