/*--------------------------------*- C++ -*----------------------------------*\
| =========                 |                                                 |
| \\      /  F ield         | OpenFOAM: The Open Source CFD Toolbox           |
|  \\    /   O peration     | Version:  2306                                  |
|   \\  /    A nd           | Website:  www.openfoam.com                      |
|    \\/     M anipulation  |                                                 |
\*---------------------------------------------------------------------------*/
FoamFile
{
    version     2.0;
    format      ascii;
    arch        "LSB;label=32;scalar=64";
    class       volScalarField;
    location    "0.5";
    object      pMean;
}
// * * * * * * * * * * * * * * * * * * * * * * * * * * * * * * * * * * * * * //

dimensions      [0 2 -2 0 0 0 0];

internalField   nonuniform List<scalar> 
60000
(
6.85253e-05
0.000120766
0.000148692
0.0001698
0.000187552
0.000180166
0.000140635
9.99289e-05
0.000102726
0.000160134
0.000227728
0.000258609
0.000239536
0.000193876
0.000149597
0.000107925
6.38439e-05
2.39687e-05
2.02395e-06
1.10266e-05
5.59308e-05
0.000111388
0.000146114
0.000153253
0.000139849
0.000129643
0.000162081
0.000228099
0.00026888
0.000268359
0.000257012
0.000252664
0.000247269
0.000223676
0.000184015
0.000134635
6.29768e-05
-1.2842e-05
-3.94493e-05
1.60643e-06
6.53886e-05
0.000118252
0.000146912
0.000168201
0.000185814
0.000178176
0.000138223
9.72387e-05
9.98741e-05
0.000157729
0.000226443
0.000258185
0.000239492
0.000194012
0.000149966
0.000108635
6.45885e-05
2.4463e-05
2.19958e-06
1.11409e-05
5.60515e-05
0.000111437
0.000145638
0.000151964
0.000137973
0.000126991
0.000159316
0.000226066
0.000268041
0.000268377
0.000257794
0.000254292
0.000249636
0.000226479
0.000186847
0.000137882
6.54426e-05
-1.22478e-05
-4.11343e-05
-1.56458e-06
6.11585e-05
0.000115422
0.000145036
0.000166609
0.000184543
0.000177345
0.000137058
9.43645e-05
9.52572e-05
0.00015355
0.000224665
0.000258304
0.000240213
0.000194625
0.000150465
0.000109251
6.50319e-05
2.43922e-05
1.76709e-06
1.07904e-05
5.59854e-05
0.00011127
0.000144879
0.000150667
0.000136081
0.000123634
0.000154681
0.000222296
0.000265964
0.000267368
0.000257935
0.000255852
0.000252126
0.000228944
0.000188978
0.000139551
6.5972e-05
-1.40533e-05
-4.55161e-05
-6.75993e-06
5.61227e-05
0.000112507
0.000143278
0.000165155
0.000183822
0.000177612
0.000137171
9.20217e-05
8.95691e-05
0.000147466
0.000222013
0.000259053
0.000242026
0.000195951
0.000151179
0.000109706
6.50184e-05
2.35645e-05
6.39822e-07
1.02092e-05
5.62205e-05
0.000111409
0.00014409
0.000149311
0.000134215
0.000119821
0.000149025
0.000217572
0.000262944
0.000265031
0.000256933
0.000257141
0.000254683
0.000230892
0.000190142
0.000139184
6.38011e-05
-1.88423e-05
-5.25886e-05
-1.36616e-05
5.00135e-05
0.000108561
0.000140867
0.000163284
0.000182812
0.000178027
0.000138589
9.20522e-05
8.53316e-05
0.000140495
0.000217572
0.000259428
0.000244759
0.000198198
0.000152354
0.000110178
6.46099e-05
2.21496e-05
-1.29182e-06
9.30899e-06
5.66557e-05
0.000111689
0.000143085
0.000147706
0.000132353
0.000116196
0.000143658
0.000213362
0.000260301
0.000262096
0.000254637
0.000257794
0.000257803
0.000233635
0.000191518
0.000139186
6.03938e-05
-2.56749e-05
-6.14121e-05
-2.17079e-05
4.28094e-05
0.000102588
0.000135915
0.000159747
0.000180525
0.000176937
0.000139586
9.4947e-05
8.56597e-05
0.000136083
0.00021217
0.000258117
0.000247593
0.000201396
0.000154297
0.000111065
6.40878e-05
1.98851e-05
-4.59715e-06
7.17168e-06
5.63493e-05
0.000110356
0.00013848
0.00014234
0.000128749
0.000112103
0.000138758
0.000210586
0.000259857
0.000261083
0.000252809
0.00025799
0.000261653
0.000238357
0.000195696
0.000143207
5.94838e-05
-3.37124e-05
-7.26355e-05
-3.10111e-05
3.31055e-05
9.55358e-05
0.000128347
0.000152197
0.000175418
0.000173579
0.00013774
9.68963e-05
9.02424e-05
0.000137663
0.000209649
0.000255687
0.000249412
0.000205128
0.000157063
0.000112557
6.35923e-05
1.65202e-05
-1.05646e-05
1.39453e-06
5.40869e-05
0.000109277
0.000132199
0.00013032
0.000117621
0.000103189
0.000131468
0.000206886
0.000260817
0.000264383
0.000255817
0.000260332
0.000265164
0.000243525
0.000203263
0.000154884
6.89837e-05
-3.6859e-05
-8.76724e-05
-4.58861e-05
1.75666e-05
8.72784e-05
0.000120967
0.000141982
0.000166022
0.000167484
0.000133684
9.58066e-05
9.17683e-05
0.000141009
0.000212608
0.000255593
0.000250634
0.000208963
0.000160496
0.00011444
6.29753e-05
1.21181e-05
-1.90806e-05
-8.2731e-06
5.00864e-05
0.000112668
0.000132507
0.000120647
0.000101116
8.63668e-05
0.000118381
0.000199778
0.000258002
0.000263674
0.000259976
0.000268167
0.000269905
0.00024534
0.000207943
0.000171024
9.05152e-05
-2.89763e-05
-9.80368e-05
-6.77231e-05
-4.64209e-06
7.69697e-05
0.00011303
0.000130994
0.000153631
0.00015895
0.000129116
9.39163e-05
8.97042e-05
0.000135646
0.000211376
0.000258028
0.000252837
0.000212988
0.000165044
0.000117123
6.20567e-05
7.32575e-06
-2.67689e-05
-1.59415e-05
4.97941e-05
0.000125212
0.000147071
0.000121543
8.5492e-05
6.40282e-05
0.000100052
0.000190476
0.000253941
0.000259168
0.000256207
0.000269048
0.000272527
0.000243167
0.000204771
0.000182879
0.000119142
-9.49632e-06
-0.000102513
-9.00663e-05
-3.00861e-05
6.30634e-05
0.000104666
0.000120044
0.000139981
0.000148828
0.000123967
9.1252e-05
8.57309e-05
0.000124814
0.000197205
0.00025027
0.000252061
0.000215906
0.000169885
0.000121549
6.17653e-05
2.43829e-06
-3.17047e-05
-1.60598e-05
5.9924e-05
0.00015096
0.000178655
0.000138008
7.86269e-05
4.24096e-05
7.91632e-05
0.000176687
0.000246295
0.000251945
0.000250749
0.000266808
0.000270717
0.000239105
0.000196954
0.00018623
0.000148387
2.11149e-05
-9.77809e-05
-0.00011011
-5.79372e-05
4.32946e-05
9.60685e-05
0.000111274
0.000128892
0.000139909
0.000120212
8.96425e-05
8.1367e-05
0.000113279
0.000177494
0.000229255
0.00023577
0.000208598
0.000171889
0.000127171
6.47868e-05
-1.75972e-07
-3.42874e-05
-1.05756e-05
7.83494e-05
0.000188679
0.000228246
0.00017311
8.7277e-05
3.26047e-05
6.22276e-05
0.000157259
0.000229752
0.000237992
0.000241861
0.000265153
0.000270667
0.000237575
0.000192988
0.000186452
0.000173988
6.22267e-05
-7.86259e-05
-0.000120838
-7.60781e-05
2.18558e-05
8.57274e-05
0.00010514
0.00012107
0.00013278
0.000117783
8.89544e-05
8.00989e-05
0.000106084
0.000160452
0.000204418
0.000207812
0.000183969
0.000158779
0.000126918
7.14582e-05
7.03508e-06
-2.75568e-05
4.11923e-07
9.78652e-05
0.000224761
0.000286858
0.000228766
0.000119198
4.50409e-05
5.68882e-05
0.000135383
0.000203642
0.000219304
0.000232579
0.000265947
0.000277853
0.000244728
0.000197904
0.000190833
0.000194347
0.000108674
-4.23812e-05
-0.000115041
-7.75243e-05
3.16249e-06
7.46283e-05
9.9872e-05
0.000114179
0.000126223
0.000115913
8.82571e-05
7.86413e-05
0.000102785
0.000151364
0.000186645
0.000179667
0.00014843
0.000131918
0.00011766
7.56392e-05
2.22152e-05
-4.06839e-06
2.12833e-05
0.000112966
0.000242862
0.00033129
0.000291512
0.000170907
7.87823e-05
6.85236e-05
0.000120207
0.000175128
0.00020026
0.00022494
0.000268307
0.000285476
0.000257922
0.000213109
0.000200953
0.000208495
0.00015056
7.54891e-06
-9.09344e-05
-5.78673e-05
1.16189e-06
6.51594e-05
9.70566e-05
0.000107181
0.000117032
0.000112845
8.90154e-05
7.72165e-05
0.000101002
0.000148583
0.00018163
0.000166347
0.000124645
0.000107501
0.000103801
7.26985e-05
3.14715e-05
2.02955e-05
4.41443e-05
0.000116185
0.000234088
0.000339896
0.000336509
0.00022585
0.000121711
8.68562e-05
0.000108546
0.000149276
0.000184134
0.000223157
0.000270373
0.000294129
0.000271176
0.000230869
0.00021011
0.00021265
0.000177417
6.04571e-05
-4.88687e-05
-1.77358e-05
1.68171e-05
6.59894e-05
9.83773e-05
0.000104766
0.000107445
0.000105331
8.87227e-05
7.63536e-05
9.93516e-05
0.000147412
0.000183615
0.00017361
0.00013266
0.000106914
0.000100422
7.17613e-05
3.09165e-05
2.9081e-05
5.70789e-05
0.000109208
0.000208721
0.000316251
0.000348852
0.000265367
0.000158659
0.000100237
9.61908e-05
0.000126985
0.000169766
0.000216672
0.000264331
0.000290227
0.000277735
0.000243473
0.000215305
0.000207137
0.000187777
0.000106823
7.78404e-06
3.23258e-05
4.11983e-05
7.33887e-05
0.000104468
0.00010635
9.76657e-05
9.11309e-05
8.42116e-05
7.85316e-05
9.83786e-05
0.000142765
0.000179327
0.000180833
0.000151372
0.000122248
0.000105843
7.18617e-05
2.63751e-05
2.67064e-05
7.17635e-05
0.000112374
0.000181925
0.000281588
0.000334226
0.000286605
0.000192686
0.000116574
8.85567e-05
0.000108727
0.000152554
0.000197939
0.000244829
0.000280613
0.000281498
0.000250915
0.000215482
0.000198278
0.000188068
0.000139253
6.59619e-05
7.40206e-05
6.69918e-05
8.61482e-05
0.000113486
0.000111408
9.15639e-05
7.43382e-05
6.83774e-05
7.41848e-05
9.4969e-05
0.000137181
0.000175489
0.000183146
0.000161886
0.000134491
0.000114487
7.8162e-05
3.21019e-05
3.50916e-05
9.37598e-05
0.00013307
0.000170709
0.000245929
0.000299456
0.000281336
0.000213277
0.000138877
9.57761e-05
9.97777e-05
0.000137595
0.000186567
0.000228807
0.00026016
0.000272171
0.000255932
0.000215815
0.000189215
0.000184029
0.000157666
0.000107883
0.000108278
9.38842e-05
9.93991e-05
0.000120183
0.000115511
8.57483e-05
5.83411e-05
5.02794e-05
6.18003e-05
8.61437e-05
0.000128667
0.000176289
0.000193777
0.000171263
0.000138349
0.000116831
8.54993e-05
4.32085e-05
5.05903e-05
0.000105422
0.000146452
0.000169913
0.000221652
0.000266322
0.000264148
0.000214221
0.000145961
0.000102001
0.000103073
0.000136929
0.000183655
0.00022861
0.000258694
0.000266655
0.000244583
0.000200483
0.00016904
0.000164175
0.000157105
0.000131568
0.000117242
0.000113645
0.000120202
0.000129086
0.000116318
8.13577e-05
4.6522e-05
2.98228e-05
3.55555e-05
6.05118e-05
0.000103162
0.000159058
0.000195581
0.000185404
0.000158014
0.000134565
0.000109724
7.40578e-05
6.8394e-05
0.000108015
0.000143024
0.000165974
0.000213269
0.00025653
0.000252652
0.000204924
0.000144565
0.0001079
0.000107543
0.000132748
0.000171929
0.000220788
0.000256438
0.000261091
0.00023478
0.000187479
0.00014767
0.000136664
0.000140327
0.00013052
0.000111657
0.000109861
0.000120085
0.000128873
0.0001177
8.68594e-05
5.52509e-05
3.2378e-05
2.32907e-05
3.21882e-05
6.13834e-05
0.000111259
0.000159179
0.000169796
0.000151465
0.000141448
0.000138911
0.000113006
8.47965e-05
9.33231e-05
0.000123482
0.000152573
0.000199208
0.000250626
0.000245591
0.000187771
0.000125458
9.35906e-05
9.46179e-05
0.000117
0.000154219
0.000203062
0.000241649
0.000244543
0.000217379
0.000176937
0.000137541
0.000114903
0.000113723
0.000114673
0.000101991
0.000114424
0.000123028
0.000123068
0.000107776
8.34046e-05
6.17593e-05
4.2968e-05
2.73557e-05
2.27475e-05
3.63859e-05
6.73546e-05
0.000108243
0.000137023
0.000139176
0.000134355
0.000136104
0.00012826
9.88859e-05
8.22437e-05
0.000102248
0.000146115
0.000201162
0.000249036
0.000239926
0.000168934
8.82454e-05
5.05774e-05
5.90333e-05
9.53306e-05
0.0001421
0.000189584
0.00022583
0.000234194
0.000216309
0.000185652
0.000146615
0.000110092
8.9935e-05
8.99706e-05
9.62053e-05
0.000105787
0.000116502
0.000116828
0.000104582
8.59935e-05
6.77455e-05
5.17602e-05
4.00541e-05
3.69327e-05
4.22366e-05
5.35272e-05
7.21204e-05
9.83627e-05
0.00012126
0.000132571
0.000136743
0.000131279
0.000110351
9.52343e-05
0.000107859
0.000141317
0.000193334
0.000243257
0.000241901
0.000174064
8.32393e-05
2.69898e-05
2.88399e-05
7.31111e-05
0.000133142
0.000188386
0.000221577
0.000223326
0.000203447
0.00018996
0.000180508
0.000155209
0.000118873
9.52388e-05
9.07074e-05
8.53664e-05
9.06577e-05
9.55007e-05
9.60429e-05
9.16935e-05
7.96569e-05
6.2961e-05
5.29275e-05
5.56962e-05
6.3991e-05
7.1817e-05
7.9275e-05
9.18256e-05
0.000111697
0.000129962
0.000137838
0.000134174
0.000122943
0.000114082
0.000119222
0.000141146
0.000179727
0.000217955
0.00022265
0.000176067
0.000104885
5.32246e-05
4.50058e-05
7.64021e-05
0.000127874
0.000177865
0.000207234
0.000209186
0.000197522
0.000189863
0.000186243
0.000169245
0.000139081
0.000111514
6.20525e-05
5.95746e-05
7.17469e-05
8.67654e-05
9.8352e-05
0.000103695
9.83655e-05
8.42269e-05
7.37164e-05
7.16014e-05
7.2827e-05
7.62556e-05
8.80426e-05
0.000105177
0.000119634
0.000133588
0.000145199
0.00014633
0.000136211
0.000124383
0.000119482
0.000127167
0.000151194
0.000183157
0.000197568
0.000172077
0.000118259
7.25505e-05
6.062e-05
8.01129e-05
0.000116669
0.00015641
0.000183801
0.000190362
0.000187191
0.000188048
0.000189761
0.000173624
0.000134109
8.838e-05
3.66352e-05
2.74393e-05
4.30614e-05
6.81132e-05
8.94403e-05
0.000100964
0.000100409
9.03482e-05
8.15017e-05
8.34587e-05
9.21636e-05
9.70455e-05
9.73037e-05
0.000104577
0.000126125
0.000153023
0.000172243
0.000175578
0.000160692
0.000132668
0.000109673
0.000104805
0.000112173
0.000134642
0.000164091
0.000163272
0.000131664
9.71482e-05
8.31256e-05
9.32579e-05
0.000116759
0.000144258
0.000166751
0.000179872
0.000188847
0.000195859
0.000194142
0.000172721
0.000129521
7.64938e-05
-5.69504e-05
-7.33724e-08
6.20102e-05
0.000115225
0.000149211
0.000148851
0.000115795
8.19802e-05
8.61618e-05
0.000133288
0.000182193
0.000195135
0.000170584
0.000137589
0.00011812
0.000102899
7.64885e-05
4.06555e-05
1.28723e-05
1.83227e-05
7.09666e-05
0.000149995
0.000213543
0.000241993
0.000248295
0.00024626
0.000248836
0.00026807
0.000292439
0.000307519
0.000317517
0.00032618
0.000321425
0.000292577
0.000266516
0.000239868
0.000169336
5.49738e-05
-4.7377e-05
-8.38583e-05
-5.84135e-05
-2.53848e-06
5.88747e-05
0.000112445
0.000147129
0.000147179
0.000114404
8.02603e-05
8.43399e-05
0.000131978
0.000181524
0.000194797
0.000170327
0.000137401
0.000118137
0.000103099
7.68287e-05
4.10075e-05
1.28102e-05
1.7382e-05
6.88142e-05
0.00014678
0.000209699
0.000237963
0.00024463
0.000243588
0.00024718
0.000266767
0.000290899
0.000305821
0.000316457
0.000326312
0.000322597
0.000294261
0.000268531
0.000242236
0.000172684
5.82335e-05
-4.53653e-05
-8.37614e-05
-6.19888e-05
-5.77655e-06
5.55244e-05
0.000109883
0.00014569
0.00014637
0.000113198
7.78992e-05
8.11672e-05
0.000129527
0.000180344
0.000194175
0.000169658
0.000136726
0.000117902
0.000103352
7.7281e-05
4.12943e-05
1.25352e-05
1.62104e-05
6.6758e-05
0.000144143
0.000206707
0.000234563
0.000241183
0.000241114
0.000245783
0.000265332
0.000288466
0.000302603
0.000314159
0.000326398
0.000324571
0.000296532
0.000270676
0.000245486
0.000176659
6.05835e-05
-4.60445e-05
-8.67088e-05
-6.79777e-05
-9.76274e-06
5.21242e-05
0.000107355
0.000144452
0.000145975
0.000112425
7.50997e-05
7.68311e-05
0.000125658
0.000178302
0.000193021
0.00016826
0.000135211
0.000117175
0.000103556
7.77192e-05
4.14024e-05
1.20012e-05
1.53269e-05
6.61084e-05
0.000143873
0.000206399
0.000233467
0.000239098
0.000239198
0.0002447
0.000264122
0.000285802
0.000298181
0.000310015
0.000325332
0.000326661
0.000299172
0.00027294
0.000249664
0.000180769
6.06506e-05
-5.11481e-05
-9.39314e-05
-7.67029e-05
-1.51261e-05
4.79321e-05
0.000103965
0.000142473
0.000145414
0.000112371
7.41344e-05
7.33387e-05
0.000120919
0.000174784
0.000190907
0.000166048
0.000132662
0.000115618
0.000103445
7.78795e-05
4.10065e-05
1.10175e-05
1.45122e-05
6.66143e-05
0.00014557
0.00020819
0.000234417
0.000238736
0.000238154
0.00024383
0.000263291
0.000283963
0.000294057
0.000304496
0.000321655
0.000326865
0.000301213
0.000275604
0.000254777
0.000185712
5.88937e-05
-6.05703e-05
-0.000105527
-8.7972e-05
-2.23732e-05
4.12079e-05
9.7489e-05
0.000137772
0.000142959
0.000112402
7.57981e-05
7.39642e-05
0.000118384
0.000170277
0.000187333
0.000163338
0.000129697
0.000113467
0.00010302
7.79681e-05
4.02019e-05
9.03148e-06
1.25381e-05
6.61242e-05
0.000146376
0.000208268
0.000232864
0.000237093
0.000237339
0.000243146
0.000262678
0.000283673
0.000292414
0.000300159
0.000315873
0.000323002
0.000300496
0.000278041
0.000261914
0.000192824
5.74324e-05
-7.27469e-05
-0.000120904
-0.000101461
-3.03202e-05
3.30503e-05
8.69119e-05
0.000128084
0.000136196
0.000109266
7.6949e-05
7.76844e-05
0.000120986
0.000168025
0.000182644
0.000160037
0.00012727
0.000111818
0.000102868
7.82275e-05
3.9036e-05
5.17967e-06
6.51321e-06
6.06061e-05
0.000142654
0.000203533
0.000223846
0.00022618
0.000229746
0.000239512
0.000261351
0.000284508
0.000294238
0.000299785
0.000311046
0.000315242
0.000293709
0.000277619
0.000272447
0.000206061
6.11399e-05
-8.20963e-05
-0.000138068
-0.00011592
-3.90727e-05
2.61526e-05
7.64414e-05
0.000116312
0.000127179
0.000103738
7.46787e-05
7.62302e-05
0.000119833
0.000167083
0.000179022
0.000156408
0.000125194
0.000111016
0.000103424
7.87321e-05
3.7325e-05
-1.14657e-06
-5.87645e-06
4.62011e-05
0.000132124
0.000194495
0.000209521
0.000206664
0.000211381
0.000226084
0.000254199
0.000282622
0.000296301
0.000303169
0.000310202
0.000307291
0.00028155
0.000270536
0.000283726
0.000228685
7.60889e-05
-8.16156e-05
-0.000150296
-0.000128022
-4.85881e-05
1.99194e-05
6.78413e-05
0.000105559
0.000118819
9.89614e-05
7.21407e-05
7.14684e-05
0.000110636
0.000158159
0.000172966
0.000152645
0.000123338
0.00011063
0.000104155
7.87711e-05
3.46883e-05
-8.53513e-06
-2.15851e-05
2.44432e-05
0.000114519
0.000183682
0.000195737
0.000184689
0.000186558
0.00020362
0.000239602
0.000277035
0.000294292
0.000300638
0.000308526
0.000302087
0.000269647
0.000257637
0.000290767
0.000258744
0.000104131
-6.92926e-05
-0.000153049
-0.000137656
-5.93098e-05
1.29522e-05
6.04338e-05
9.61809e-05
0.000111762
9.49504e-05
6.99793e-05
6.75626e-05
0.00010088
0.000144374
0.000160654
0.000145683
0.000120464
0.000109897
0.000104547
7.78924e-05
3.11552e-05
-1.36533e-05
-3.13704e-05
6.8814e-06
9.68134e-05
0.000173431
0.000186365
0.0001663
0.000160607
0.00017522
0.000218728
0.000268765
0.000291409
0.000296362
0.000303375
0.000297754
0.000263772
0.000246089
0.00029148
0.000290096
0.000144242
-4.59754e-05
-0.000149191
-0.000144474
-7.34126e-05
3.35988e-06
5.39206e-05
9.0239e-05
0.000107116
9.22764e-05
6.81519e-05
6.45293e-05
9.25908e-05
0.00013086
0.000144566
0.000131904
0.000111727
0.000106015
0.000103671
7.62243e-05
2.67509e-05
-1.54355e-05
-2.87719e-05
6.53354e-06
9.19889e-05
0.00017117
0.000184714
0.000155897
0.000139224
0.000147079
0.000193732
0.000255746
0.00028708
0.000293885
0.000300684
0.000300033
0.000267729
0.000245552
0.000292639
0.000317522
0.000192502
-1.00566e-05
-0.000138247
-0.000144436
-8.88136e-05
-1.10144e-05
4.52914e-05
8.59869e-05
0.000105987
9.14973e-05
6.5338e-05
5.93634e-05
8.56086e-05
0.000120787
0.00013065
0.000115162
9.59455e-05
9.42168e-05
9.79901e-05
7.4049e-05
2.40122e-05
-1.38421e-05
-1.59916e-05
2.46241e-05
0.000104386
0.000181607
0.000194888
0.000159241
0.000129772
0.000127378
0.000166225
0.000233502
0.000276038
0.000289136
0.000298363
0.000303234
0.00027892
0.000255685
0.000300028
0.000341023
0.00024251
3.92648e-05
-0.000113564
-0.000129808
-9.43505e-05
-2.54253e-05
3.5936e-05
8.06906e-05
0.000104752
9.14003e-05
6.26553e-05
5.39536e-05
8.18177e-05
0.000118382
0.000125605
0.000103714
8.05731e-05
8.01738e-05
8.953e-05
7.17062e-05
2.39061e-05
-7.9695e-06
-4.09493e-07
4.54728e-05
0.000119896
0.000196478
0.000213726
0.00017644
0.00013695
0.000124631
0.000144365
0.000203034
0.000252844
0.000280395
0.000295618
0.000305511
0.000288823
0.000267455
0.000305298
0.000355169
0.000284158
9.45319e-05
-7.30595e-05
-9.57644e-05
-8.27626e-05
-2.7657e-05
2.89516e-05
7.49364e-05
0.000101828
9.24994e-05
6.31781e-05
5.28785e-05
8.38355e-05
0.000123825
0.000131123
0.000104699
7.68084e-05
7.50406e-05
8.55067e-05
7.02705e-05
2.79439e-05
5.14363e-06
1.66208e-05
5.66389e-05
0.000120286
0.000197491
0.000229445
0.000201218
0.000158277
0.000133254
0.000133798
0.000173083
0.000220742
0.000255531
0.000282875
0.000302485
0.000293614
0.000272431
0.000297599
0.000347123
0.000304989
0.000143318
-2.19448e-05
-4.5143e-05
-5.19395e-05
-1.56913e-05
3.15668e-05
7.10262e-05
9.56254e-05
9.03513e-05
6.65239e-05
5.73927e-05
8.94691e-05
0.000132502
0.000144614
0.000123945
9.80314e-05
8.83756e-05
8.38941e-05
5.90043e-05
2.3669e-05
1.35863e-05
3.24649e-05
6.30758e-05
0.000111624
0.000187619
0.000237752
0.000224623
0.000180927
0.000144615
0.000130691
0.000149723
0.000189553
0.000229415
0.000261593
0.000287935
0.000288715
0.000271344
0.000280656
0.00031648
0.000299834
0.00017971
3.45913e-05
2.14944e-05
-1.39848e-06
9.53121e-06
3.90326e-05
6.68197e-05
8.45034e-05
7.93112e-05
6.59013e-05
6.51723e-05
9.67313e-05
0.000139493
0.000155856
0.000142154
0.000119133
0.000102811
8.39107e-05
4.43574e-05
7.3985e-06
1.14601e-05
4.95245e-05
7.85926e-05
0.000112109
0.000179743
0.00024158
0.000245741
0.000202082
0.000150997
0.000126203
0.000136999
0.000170159
0.000209022
0.000245894
0.00027881
0.000291292
0.000273337
0.000264122
0.00028266
0.000278026
0.000200948
9.30312e-05
8.31518e-05
6.40761e-05
6.00421e-05
6.45606e-05
6.52948e-05
6.41958e-05
6.20836e-05
5.55365e-05
6.51533e-05
9.9202e-05
0.000143732
0.000165682
0.000157037
0.000136838
0.000116334
9.203e-05
5.12936e-05
1.01848e-05
1.47016e-05
6.73822e-05
0.000104898
0.000124278
0.000174257
0.000234391
0.000248953
0.000209728
0.000156806
0.000126439
0.000128538
0.000157433
0.000198286
0.000237607
0.000269107
0.000289705
0.00027704
0.000250153
0.000251001
0.000257169
0.000214796
0.000135035
0.00013026
0.000115119
0.00010657
9.72332e-05
7.58084e-05
5.71522e-05
4.33165e-05
3.48531e-05
5.10856e-05
9.41414e-05
0.000144517
0.000173183
0.000173915
0.000152822
0.000124427
9.86878e-05
6.75848e-05
2.90335e-05
2.4294e-05
7.55545e-05
0.00012446
0.000146449
0.000181082
0.000226711
0.000243308
0.000210479
0.000158434
0.000125973
0.000125131
0.000150176
0.000189439
0.000232818
0.000267047
0.000282296
0.000265134
0.000226774
0.000214021
0.000224041
0.000212627
0.000167313
0.000146667
0.00014459
0.000152353
0.000135953
9.64044e-05
5.42083e-05
3.00154e-05
1.78601e-05
2.59744e-05
5.90712e-05
0.000110915
0.000161879
0.000190356
0.000175068
0.000138202
0.000108119
8.75378e-05
5.90224e-05
4.40884e-05
7.2255e-05
0.000121586
0.000158467
0.00019687
0.000230062
0.00023303
0.000198587
0.00015424
0.000127243
0.000123776
0.000142182
0.000176078
0.000218795
0.000255964
0.000268844
0.000250568
0.00020743
0.000174951
0.000178298
0.000187338
0.000171014
0.000148465
0.00014472
0.000145876
0.000138761
0.000114724
7.47818e-05
3.88114e-05
1.54785e-05
7.92917e-06
2.41542e-05
6.30828e-05
0.000111956
0.000152567
0.000167371
0.000150128
0.000124467
0.000112224
9.3167e-05
6.46946e-05
6.19236e-05
9.4151e-05
0.000140841
0.000194749
0.000231512
0.000227484
0.000184072
0.0001428
0.000123688
0.000122964
0.000138969
0.000165658
0.000200506
0.00023365
0.000243886
0.000228401
0.000194115
0.000157408
0.000144293
0.00015572
0.000158567
0.000139754
0.000144879
0.000151493
0.000143857
0.00011364
7.55577e-05
4.67577e-05
2.3988e-05
6.15627e-06
2.96759e-06
2.31512e-05
5.85247e-05
9.74642e-05
0.000128267
0.000138224
0.000132082
0.00012374
0.000108905
8.34023e-05
6.94294e-05
8.92843e-05
0.000134991
0.000188601
0.000223047
0.000213058
0.000166142
0.000118082
9.70858e-05
0.000106247
0.000134274
0.000168239
0.000197364
0.000217616
0.000224556
0.000219183
0.00019987
0.000162351
0.000129817
0.000125754
0.000135026
0.000134359
0.000141791
0.000148336
0.000139874
0.000112471
8.10379e-05
5.91949e-05
4.56279e-05
3.20984e-05
2.22719e-05
2.08411e-05
2.96776e-05
4.76381e-05
7.40419e-05
0.000101326
0.000118768
0.00012336
0.000116718
0.00010233
9.41593e-05
0.000105975
0.000137429
0.000180303
0.000213301
0.000210032
0.000165234
0.00010946
7.5206e-05
7.91499e-05
0.000115477
0.000161756
0.000197997
0.000214686
0.000211741
0.000200821
0.000198138
0.000190342
0.000162371
0.000135796
0.000128071
0.000121091
0.00012163
0.000121718
0.000113977
9.98895e-05
8.66749e-05
7.46996e-05
6.31414e-05
5.77935e-05
6.29115e-05
6.77456e-05
6.79771e-05
6.52402e-05
6.84956e-05
8.46166e-05
0.000105217
0.000115666
0.000111634
0.000101937
0.000100547
0.000113534
0.000138368
0.000168404
0.000194456
0.000195966
0.000162689
0.000111889
7.3891e-05
6.98817e-05
0.000100044
0.000145572
0.000185551
0.000204995
0.000202669
0.00019426
0.000193652
0.000192767
0.000174596
0.000146469
0.000127681
8.97984e-05
8.58857e-05
8.72692e-05
9.03808e-05
9.30512e-05
9.69214e-05
9.54382e-05
8.41167e-05
7.25214e-05
6.8135e-05
7.35137e-05
8.203e-05
9.11429e-05
0.000100009
0.000108796
0.000119276
0.000126577
0.000125606
0.000118317
0.000111774
0.000112395
0.000124469
0.000146218
0.000168606
0.000177771
0.000159993
0.000119171
8.25509e-05
7.53511e-05
9.69988e-05
0.000130615
0.000163589
0.000184899
0.000188315
0.000184706
0.0001888
0.000193238
0.000178098
0.000143439
0.000109195
5.00183e-05
3.5415e-05
4.44955e-05
6.40038e-05
8.4489e-05
9.86852e-05
0.000102055
9.39027e-05
8.31026e-05
8.22307e-05
9.04307e-05
9.79491e-05
0.000101529
0.000110365
0.00012952
0.000151303
0.0001636
0.000161818
0.000146069
0.000121311
0.000103865
0.000102604
0.000115241
0.000136163
0.000157669
0.000156885
0.000131133
0.000105441
0.000101125
0.000114022
0.000130327
0.000148192
0.000165014
0.000176811
0.000186843
0.000196374
0.000197272
0.000176886
0.000134658
8.61758e-05
-2.08263e-05
-1.21224e-05
1.19615e-05
4.73602e-05
9.15174e-05
0.00011931
0.000111734
8.45798e-05
7.52239e-05
9.80746e-05
0.000125778
0.000130364
0.000114894
0.000103049
0.000102775
9.63464e-05
7.3689e-05
4.91614e-05
3.81613e-05
5.12963e-05
9.73989e-05
0.000169868
0.000234272
0.000262407
0.00026215
0.000249108
0.000246144
0.000270813
0.000307093
0.000338963
0.000370159
0.000388444
0.000372138
0.00032512
0.000291434
0.000262939
0.00021259
0.000141388
6.67372e-05
4.60734e-06
-2.01457e-05
-1.1942e-05
1.19307e-05
4.70168e-05
9.09595e-05
0.000118977
0.000111834
8.49012e-05
7.54917e-05
9.8306e-05
0.000126089
0.000130665
0.000114923
0.000102776
0.000102484
9.61932e-05
7.34684e-05
4.85506e-05
3.71135e-05
4.98998e-05
9.56304e-05
0.000167791
0.000232013
0.000259873
0.000259417
0.000246156
0.00024243
0.000266258
0.000302271
0.000334318
0.000366525
0.000386739
0.000372334
0.000325449
0.000292707
0.000265359
0.000215265
0.000143926
6.86688e-05
5.78809e-06
-2.11363e-05
-1.29816e-05
1.09858e-05
4.58415e-05
8.97579e-05
0.000118395
0.000111905
8.49078e-05
7.49116e-05
9.75247e-05
0.000125568
0.000130165
0.000114115
0.000101886
0.000102029
9.61999e-05
7.35598e-05
4.8072e-05
3.60883e-05
4.84525e-05
9.3712e-05
0.000165714
0.000230076
0.000257959
0.000257536
0.000244283
0.000239341
0.000261166
0.00029557
0.00032708
0.000361343
0.000385656
0.000373877
0.000327462
0.000295299
0.000268557
0.000218416
0.000146169
6.9608e-05
5.3712e-06
-2.45727e-05
-1.60529e-05
8.12337e-06
4.27661e-05
8.70281e-05
0.000116827
0.000111198
8.38137e-05
7.26586e-05
9.48486e-05
0.000123378
0.000128153
0.000111841
9.99223e-05
0.000101276
9.65555e-05
7.40653e-05
4.78326e-05
3.52787e-05
4.75081e-05
9.27781e-05
0.000165157
0.000229731
0.000257744
0.000257105
0.000244027
0.00023797
0.000257483
0.000288959
0.000318182
0.00035439
0.000384788
0.000377472
0.000331712
0.00029973
0.000273274
0.000222109
0.000147629
6.87471e-05
2.75353e-06
-3.03301e-05
-2.11017e-05
3.21611e-06
3.7358e-05
8.20722e-05
0.00011345
0.00010895
8.11202e-05
6.83725e-05
8.95686e-05
0.000118457
0.000123628
0.000107254
9.60919e-05
9.95574e-05
9.67803e-05
7.46735e-05
4.74301e-05
3.40872e-05
4.65829e-05
9.27898e-05
0.000166666
0.000232041
0.000259761
0.000257999
0.000244827
0.000238299
0.000256837
0.000285554
0.000310037
0.000345591
0.000382535
0.000382519
0.000338263
0.000306522
0.000280174
0.000226808
0.000148528
6.62571e-05
-1.99643e-06
-3.8164e-05
-2.79427e-05
-3.64286e-06
2.95257e-05
7.45724e-05
0.000107723
0.000104736
7.69111e-05
6.26076e-05
8.18433e-05
0.000109882
0.000115289
9.927e-05
8.94502e-05
9.60509e-05
9.63847e-05
7.50809e-05
4.66472e-05
3.20526e-05
4.40361e-05
9.07806e-05
0.000166999
0.00023508
0.000263498
0.000260329
0.000245737
0.000238766
0.000258761
0.000287746
0.000306773
0.000337109
0.000377876
0.000386797
0.000346631
0.00031624
0.000290398
0.00023344
0.000149455
6.26056e-05
-8.53678e-06
-4.75949e-05
-3.61261e-05
-1.18796e-05
1.89944e-05
6.33511e-05
9.8491e-05
9.80772e-05
7.1889e-05
5.72666e-05
7.39609e-05
9.87015e-05
0.000102606
8.71681e-05
7.94935e-05
9.02938e-05
9.52293e-05
7.56155e-05
4.60723e-05
2.93788e-05
3.87258e-05
8.29811e-05
0.000159841
0.000231411
0.000262699
0.000262012
0.000245833
0.000236647
0.000259016
0.0002936
0.000310885
0.000332602
0.000371586
0.000386625
0.000355043
0.000329143
0.000305957
0.000244162
0.000151815
5.82463e-05
-1.61277e-05
-5.69507e-05
-4.47079e-05
-1.99492e-05
7.60053e-06
4.86215e-05
8.46767e-05
8.70522e-05
6.42373e-05
5.20769e-05
6.76778e-05
8.81144e-05
8.82018e-05
7.2199e-05
6.68266e-05
8.30465e-05
9.38243e-05
7.67875e-05
4.62601e-05
2.66517e-05
3.04762e-05
6.82615e-05
0.000143577
0.000218864
0.000253003
0.000256615
0.000242623
0.000230168
0.000251257
0.000291675
0.000315777
0.000333224
0.000365969
0.000382022
0.000359846
0.000343444
0.000328724
0.000262506
0.000158336
5.56473e-05
-2.34514e-05
-6.47942e-05
-5.14596e-05
-2.6089e-05
-1.80957e-06
3.44255e-05
6.89235e-05
7.16821e-05
5.17266e-05
4.25751e-05
5.81039e-05
7.51887e-05
7.23621e-05
5.71845e-05
5.49726e-05
7.63299e-05
9.2995e-05
7.85261e-05
4.68949e-05
2.38304e-05
1.95183e-05
4.62377e-05
0.000117891
0.000199493
0.000238164
0.000243999
0.000233605
0.000220296
0.000238492
0.000277884
0.000304333
0.000327255
0.000359336
0.000374742
0.000356762
0.000354039
0.000358099
0.000291977
0.000173354
5.74741e-05
-2.91816e-05
-7.00541e-05
-5.49359e-05
-2.81957e-05
-6.39419e-06
2.44137e-05
5.53588e-05
5.69015e-05
3.63557e-05
2.75985e-05
4.25357e-05
5.56233e-05
4.98886e-05
3.78255e-05
4.19565e-05
7.04792e-05
9.25354e-05
8.01344e-05
4.71994e-05
2.16858e-05
9.05032e-06
2.07272e-05
8.36501e-05
0.000173005
0.000220743
0.000228567
0.000218907
0.000205951
0.000222453
0.000260367
0.000283514
0.00030303
0.000342177
0.000364269
0.000346474
0.000356412
0.0003855
0.000332099
0.000201366
6.85321e-05
-2.97819e-05
-7.18657e-05
-5.91839e-05
-2.75562e-05
-3.79898e-06
2.48104e-05
5.03094e-05
4.64461e-05
2.22139e-05
1.16905e-05
2.5163e-05
3.56175e-05
2.82664e-05
1.73683e-05
2.52322e-05
6.06432e-05
9.06201e-05
8.15671e-05
4.75633e-05
2.14173e-05
5.61995e-06
3.87226e-06
5.1496e-05
0.000143318
0.000204443
0.000216843
0.000205421
0.000188855
0.000204398
0.000242863
0.000266439