/*--------------------------------*- C++ -*----------------------------------*\
| =========                 |                                                 |
| \\      /  F ield         | OpenFOAM: The Open Source CFD Toolbox           |
|  \\    /   O peration     | Version:  2306                                  |
|   \\  /    A nd           | Website:  www.openfoam.com                      |
|    \\/     M anipulation  |                                                 |
\*---------------------------------------------------------------------------*/
FoamFile
{
    version     2.0;
    format      ascii;
    arch        "LSB;label=32;scalar=64";
    class       volVectorField;
    location    "0.5";
    object      U_0;
}
// * * * * * * * * * * * * * * * * * * * * * * * * * * * * * * * * * * * * * //

dimensions      [0 1 -1 0 0 0 0];

internalField   nonuniform List<vector> 
60000
(
(0.0106532 -1.80672e-05 0.00221015)
(0.0106303 -2.56459e-05 0.00186856)
(0.010518 -1.94674e-05 0.00175386)
(0.0103718 -1.40687e-05 0.00177355)
(0.0101394 -1.56331e-05 0.00170464)
(0.00962874 -1.58303e-05 0.00146658)
(0.00870102 -1.19951e-05 0.00119956)
(0.00746567 -1.14888e-05 0.00106243)
(0.006377 -1.5882e-05 0.00107728)
(0.00584921 -2.80333e-05 0.00120531)
(0.00580567 -3.46366e-05 0.00134454)
(0.00592562 -3.0647e-05 0.00129184)
(0.00601871 -2.32315e-05 0.000968779)
(0.00609235 -1.33626e-05 0.000555442)
(0.00623229 -1.26306e-06 0.000232806)
(0.0064411 1.03086e-05 1.01639e-05)
(0.00669965 2.02715e-05 -0.000186095)
(0.00702015 2.27711e-05 -0.000439266)
(0.00739742 1.87191e-05 -0.000805075)
(0.00784686 1.23679e-05 -0.00128987)
(0.00842251 8.33023e-06 -0.0018455)
(0.00906229 6.17612e-06 -0.00234221)
(0.00956256 3.5295e-06 -0.00262995)
(0.00968855 -2.16529e-06 -0.00266369)
(0.00925906 -3.44008e-06 -0.00253025)
(0.00835984 5.21504e-06 -0.00234408)
(0.00741492 -1.05279e-06 -0.002186)
(0.00677022 -1.2313e-05 -0.00212606)
(0.00640191 -9.69304e-06 -0.00214108)
(0.0062408 2.91232e-06 -0.00208538)
(0.00636704 1.09923e-05 -0.00179917)
(0.00679394 2.09619e-05 -0.00118321)
(0.00739896 3.64651e-05 -0.000368523)
(0.00805209 5.05792e-05 0.000314913)
(0.00871455 5.95233e-05 0.0007455)
(0.00937467 5.94348e-05 0.00117941)
(0.00992134 6.50772e-05 0.00175121)
(0.0102552 6.09079e-05 0.00234261)
(0.0104421 3.86525e-05 0.00269526)
(0.0105757 5.96524e-06 0.00260084)
(0.0329863 -0.00022035 0.00544837)
(0.0327747 -0.000238902 0.00458368)
(0.0323551 -0.000190218 0.00443086)
(0.0319047 -0.000138362 0.00467233)
(0.0311737 -9.2456e-05 0.00462873)
(0.0296063 -3.39127e-05 0.0040277)
(0.0269474 5.19765e-06 0.00327841)
(0.0235615 -3.51691e-05 0.00291218)
(0.0205166 -0.00016038 0.00301855)
(0.0187533 -0.000288241 0.00335389)
(0.0181636 -0.000315635 0.00354019)
(0.0180637 -0.000255746 0.00319423)
(0.0180477 -0.000177206 0.00232422)
(0.018149 -0.000100434 0.00137816)
(0.0185208 -2.27891e-05 0.000669122)
(0.0191394 4.42017e-05 0.000136891)
(0.0199887 8.18984e-05 -0.000404993)
(0.0211048 7.43031e-05 -0.00113082)
(0.0224583 3.3606e-05 -0.00215722)
(0.0240509 -1.56838e-05 -0.0035045)
(0.0259237 -4.38586e-05 -0.00504062)
(0.0278458 -3.44965e-05 -0.00640166)
(0.0293254 -1.00563e-05 -0.00715124)
(0.0297815 6.76672e-06 -0.00711609)
(0.0287374 1.93087e-05 -0.00652324)
(0.0264212 5.67758e-07 -0.00583454)
(0.0238162 -9.53903e-05 -0.00543527)
(0.02164 -0.000187496 -0.00544164)
(0.0199971 -0.000190822 -0.00562856)
(0.0190677 -0.000133588 -0.00554477)
(0.0191978 -5.62364e-05 -0.00475891)
(0.0203379 6.40363e-05 -0.00309093)
(0.022061 0.000223184 -0.000954059)
(0.0239865 0.000361639 0.000880727)
(0.0259941 0.000424536 0.00218555)
(0.0280112 0.000423153 0.00345765)
(0.0297981 0.000397325 0.0049297)
(0.0311624 0.000300401 0.00631168)
(0.0321578 0.000115774 0.00700069)
(0.0327905 -9.36373e-05 0.00656214)
(0.0565676 -0.000631114 0.00802873)
(0.056025 -0.000648462 0.00644635)
(0.0552377 -0.000526992 0.00607588)
(0.0545127 -0.000396366 0.00662401)
(0.0534175 -0.00026703 0.00693021)
(0.0511355 -0.000112372 0.00626353)
(0.047371 -1.72965e-05 0.00507998)
(0.0424272 -0.000108045 0.00436237)
(0.037344 -0.000407844 0.00450808)
(0.0335231 -0.000713298 0.00509698)
(0.0315293 -0.000775355 0.00535013)
(0.030709 -0.000630624 0.00475469)
(0.030315 -0.000437719 0.00349511)
(0.0302381 -0.000250194 0.0022318)
(0.0306739 -6.96449e-05 0.00132902)
(0.0316194 7.54142e-05 0.000648595)
(0.0330647 0.000136407 -7.45584e-05)
(0.035035 9.05532e-05 -0.00107274)
(0.0374713 -2.99312e-05 -0.00253303)
(0.0403529 -0.000162485 -0.00454692)
(0.0436771 -0.000234436 -0.00698674)
(0.0470419 -0.000203932 -0.00931858)
(0.0497579 -0.000132564 -0.0107672)
(0.0510278 -7.99322e-05 -0.0108538)
(0.0500892 -5.1681e-05 -0.00979132)
(0.0470317 -0.000113233 -0.00840533)
(0.0430114 -0.000306959 -0.00754999)
(0.0390343 -0.000476694 -0.00756042)
(0.0354622 -0.000477283 -0.00813348)
(0.0328635 -0.000369631 -0.00851352)
(0.0321148 -0.000202891 -0.00781644)
(0.0333925 8.13294e-05 -0.00559178)
(0.0360352 0.000468597 -0.00242307)
(0.0392985 0.000814456 0.000518234)
(0.0428429 0.00096844 0.00277687)
(0.0464781 0.000970911 0.00487598)
(0.049897 0.000853038 0.00711786)
(0.0528176 0.000557257 0.0091974)
(0.0550643 9.7997e-05 0.0103399)
(0.0563528 -0.00036817 0.00980591)
(0.0804112 -0.00117881 0.010555)
(0.0793309 -0.00119554 0.00793512)
(0.078122 -0.000988771 0.00672067)
(0.077224 -0.000755098 0.00731823)
(0.0760558 -0.000513677 0.00831998)
(0.0736365 -0.000230554 0.00814237)
(0.0696923 -4.45578e-05 0.00672187)
(0.0642345 -0.000145039 0.00539393)
(0.0575432 -0.000599731 0.00530589)
(0.0508982 -0.00114407 0.0062829)
(0.0462069 -0.0013298 0.00695537)
(0.0438376 -0.00113467 0.00630277)
(0.0426735 -0.000817872 0.0046997)
(0.0421242 -0.00050049 0.00318284)
(0.0423309 -0.000203575 0.00224369)
(0.0433453 2.55697e-05 0.00165629)
(0.0451634 0.000100964 0.00106361)
(0.0477793 -1.74532e-05 0.000180705)
(0.0511358 -0.000273326 -0.00127202)
(0.0552576 -0.000558122 -0.00355198)
(0.0601534 -0.000716568 -0.00671883)
(0.0652381 -0.00065344 -0.0102398)
(0.0696252 -0.000483632 -0.0129875)
(0.0724253 -0.000333089 -0.0139146)
(0.0726092 -0.000236354 -0.0128364)
(0.0698149 -0.000306645 -0.010711)
(0.0650036 -0.000587364 -0.00898609)
(0.0594204 -0.000815641 -0.00855331)
(0.0537023 -0.00079802 -0.00936258)
(0.0485767 -0.000666492 -0.010606)
(0.0454985 -0.000483575 -0.0109052)
(0.0455528 -0.000102105 -0.00909498)
(0.0483691 0.000500127 -0.00553225)
(0.052816 0.00109437 -0.00173617)
(0.0580954 0.00141068 0.00145198)
(0.0637046 0.00145441 0.0044234)
(0.0691803 0.00125235 0.00749588)
(0.07418 0.000720079 0.0104444)
(0.0781586 -5.29013e-05 0.0125242)
(0.0803159 -0.000782309 0.01261)
(0.102966 -0.00174969 0.0131709)
(0.100911 -0.00176524 0.0098675)
(0.0991059 -0.0015015 0.00705963)
(0.0982474 -0.00116083 0.00682466)
(0.09747 -0.000791185 0.00843977)
(0.0955346 -0.000379463 0.00944732)
(0.0923 -9.56945e-05 0.0083947)
(0.0876748 -0.000131223 0.00630547)
(0.0808139 -0.000615925 0.0053824)
(0.0717309 -0.00137336 0.006579)
(0.0631079 -0.00182588 0.00824563)
(0.0577451 -0.00172087 0.00804065)
(0.0550976 -0.00132344 0.00607918)
(0.053715 -0.000875998 0.00413439)
(0.0533149 -0.000464086 0.00316623)
(0.0539399 -0.00015745 0.00290528)
(0.0555791 -7.97721e-05 0.00282758)
(0.0581734 -0.000308902 0.00257324)
(0.061698 -0.000787618 0.00179166)
(0.0664055 -0.00136383 2.09219e-05)
(0.0726391 -0.00174048 -0.00322647)
(0.0797913 -0.00166347 -0.00783785)
(0.0865615 -0.00128507 -0.0125641)
(0.0918288 -0.000884828 -0.0155452)
(0.0943528 -0.000585337 -0.0156218)
(0.0931079 -0.000573431 -0.0133352)
(0.0885324 -0.000915244 -0.0105937)
(0.0821063 -0.00117721 -0.00912171)
(0.0748917 -0.00107719 -0.00948005)
(0.0674583 -0.000885604 -0.0112455)
(0.0611316 -0.000766977 -0.0130437)
(0.0579613 -0.000483454 -0.0129167)
(0.0589785 0.000126295 -0.0102485)
(0.0633794 0.000843067 -0.00645078)
(0.0699633 0.00131654 -0.00276683)
(0.0777076 0.0014766 0.000957201)
(0.085582 0.00131523 0.00493384)
(0.0931087 0.000628547 0.00893986)
(0.0994384 -0.000402823 0.0124761)
(0.103013 -0.00130578 0.0142733)
(0.122296 -0.00225486 0.0144722)
(0.118601 -0.00217559 0.0124416)
(0.115375 -0.00197361 0.00835706)
(0.11482 -0.00158093 0.00606029)
(0.115253 -0.00106165 0.00723254)
(0.11449 -0.000521093 0.00967355)
(0.112398 -0.000174894 0.0100551)
(0.109637 -0.000125653 0.00764497)
(0.104818 -0.000451255 0.00520614)
(0.0956601 -0.00120402 0.00576107)
(0.0835225 -0.00196864 0.00860128)
(0.0734465 -0.00221679 0.00979466)
(0.0678032 -0.0019095 0.00783102)
(0.0650091 -0.00136203 0.00514187)
(0.0637083 -0.000833117 0.00380424)
(0.0635246 -0.000457982 0.00380402)
(0.0643244 -0.000388217 0.00440328)
(0.0659138 -0.000757881 0.00509274)
(0.0682087 -0.00156723 0.00552993)
(0.0717492 -0.00265033 0.00520873)
(0.0777046 -0.00353826 0.00323512)
(0.0862527 -0.00367803 -0.00115323)
(0.0960442 -0.00309002 -0.00748)
(0.105361 -0.00215147 -0.0135933)
(0.111996 -0.0012689 -0.0166882)
(0.113922 -0.000934682 -0.0158396)
(0.110868 -0.00127423 -0.0128519)
(0.104635 -0.00158845 -0.0102341)
(0.0971737 -0.00134946 -0.0093836)
(0.089004 -0.000951808 -0.0105883)
(0.0806037 -0.000809837 -0.0131621)
(0.0736229 -0.00073575 -0.0151983)
(0.0704441 -0.000429807 -0.015013)
(0.0720377 1.77863e-05 -0.012876)
(0.077708 0.000326463 -0.00986926)
(0.0863018 0.00051891 -0.00609462)
(0.095951 0.000526574 -0.00160768)
(0.105722 -0.00011054 0.00317713)
(0.115093 -0.00122614 0.00820772)
(0.121602 -0.00204845 0.0126614)
(0.135743 -0.00289104 0.0117759)
(0.131314 -0.00213395 0.0137351)
(0.124547 -0.0021052 0.0109922)
(0.123215 -0.00209135 0.0066932)
(0.12622 -0.00144255 0.00562388)
(0.127948 -0.000616929 0.00841002)
(0.126869 -0.000243688 0.0110339)
(0.125543 -0.00026178 0.00970415)
(0.124482 -0.000329934 0.00569753)
(0.11924 -0.000683663 0.00431895)
(0.10731 -0.00146014 0.00745753)
(0.0928408 -0.00222006 0.0107284)
(0.0819843 -0.00237543 0.0098628)
(0.0762233 -0.00188876 0.00657621)
(0.0736502 -0.00123539 0.00438768)
(0.0726555 -0.000772514 0.00412911)
(0.0725348 -0.000690718 0.00498619)
(0.0728088 -0.00118363 0.00621341)
(0.0731261 -0.00239182 0.00755555)
(0.0739563 -0.00422067 0.00890553)
(0.0771703 -0.00595084 0.00939153)
(0.084394 -0.00661861 0.00733335)
(0.0950666 -0.00607782 0.00185898)
(0.107958 -0.00470513 -0.00599062)
(0.120658 -0.00287861 -0.0130303)
(0.128192 -0.00164144 -0.0158796)
(0.12798 -0.00172575 -0.0146875)
(0.122653 -0.00215195 -0.0120576)
(0.116174 -0.00174566 -0.0100246)
(0.109456 -0.00092901 -0.00966259)
(0.101963 -0.000522527 -0.0114164)
(0.0937495 -0.000511434 -0.0143965)
(0.0865917 -0.000567729 -0.0170465)
(0.0830629 -0.000758035 -0.018444)
(0.0846223 -0.00120729 -0.018074)
(0.0911998 -0.00145508 -0.0153881)
(0.100434 -0.00135762 -0.0110106)
(0.109956 -0.00184474 -0.00623704)
(0.120296 -0.00308821 -0.000819705)
(0.131022 -0.0036071 0.00583041)
(0.140325 -0.00447814 0.00532788)
(0.139634 -0.00185969 0.0116265)
(0.130369 -0.00131249 0.0125585)
(0.124386 -0.00230613 0.00878089)
(0.128148 -0.00225924 0.00508198)
(0.134606 -0.000923811 0.00602262)
(0.135459 -0.000109708 0.00997504)
(0.132248 -0.000444651 0.011309)
(0.132228 -0.000807579 0.00744229)
(0.134457 -0.000542679 0.00343947)
(0.129795 -0.00054334 0.00521143)
(0.116268 -0.00134941 0.0100153)
(0.100368 -0.00219663 0.0113219)
(0.0889335 -0.00224037 0.00849408)
(0.0834117 -0.00164577 0.00560937)
(0.0815423 -0.00107252 0.00466089)
(0.0812441 -0.000907354 0.00504555)
(0.0813475 -0.00142077 0.00587784)
(0.0810399 -0.00291065 0.00708518)
(0.0800483 -0.00544013 0.00922366)
(0.0796623 -0.0081718 0.0120737)
(0.0828843 -0.00959198 0.0134725)
(0.091174 -0.00928339 0.0109441)
(0.103854 -0.00783427 0.00416761)
(0.119793 -0.00542899 -0.00460563)
(0.133429 -0.0030275 -0.0113507)
(0.136733 -0.00229682 -0.0136613)
(0.130273 -0.00274398 -0.0127243)
(0.122548 -0.00250895 -0.0105731)
(0.118672 -0.00141716 -0.00870934)
(0.117058 -0.000395922 -0.00854921)
(0.113531 0.0001519 -0.0107073)
(0.106877 0.000164541 -0.0146792)
(0.0995992 -0.000579033 -0.0197276)
(0.0953372 -0.00219885 -0.0239213)
(0.0969804 -0.00360838 -0.0242353)
(0.103966 -0.00382406 -0.0204825)
(0.112244 -0.00411168 -0.0154756)
(0.120132 -0.00564275 -0.0102304)
(0.130569 -0.00641721 -0.00321911)
(0.139331 -0.00724791 -0.000879195)
(0.143946 -0.00243914 0.00749507)
(0.137566 2.43632e-05 0.0113195)
(0.127446 -0.00137915 0.009526)
(0.125534 -0.00306402 0.00512334)
(0.13388 -0.00195044 0.00355521)
(0.140672 8.62202e-05 0.00664935)
(0.137632 5.97407e-06 0.0100324)
(0.13142 -0.00172983 0.00870947)
(0.133604 -0.00223532 0.00396921)
(0.140573 -0.000941129 0.00320703)
(0.137871 -0.000267823 0.00796233)
(0.123443 -0.000980342 0.0113696)
(0.106458 -0.00172979 0.0101196)
(0.0950777 -0.00173279 0.00753108)
(0.0904758 -0.00138563 0.00629313)
(0.0900219 -0.00124769 0.00603972)
(0.0912756 -0.00171486 0.00591643)
(0.0923962 -0.00319029 0.00612047)
(0.0918995 -0.00592242 0.00778626)
(0.089636 -0.0093207 0.0115019)
(0.0883794 -0.0116526 0.0155902)
(0.0920039 -0.0118561 0.0165441)
(0.1016 -0.0105751 0.0122269)
(0.116542 -0.00817152 0.00367654)
(0.132465 -0.00494335 -0.00537137)
(0.138316 -0.00264031 -0.0108775)
(0.129532 -0.00215324 -0.0115395)
(0.116301 -0.00226739 -0.00890219)
(0.110062 -0.00202486 -0.00546229)
(0.113416 -0.00125604 -0.00350312)
(0.120656 9.42901e-05 -0.00436484)
(0.122837 0.0012309 -0.00841068)
(0.118016 0.000865686 -0.0155579)
(0.110865 -0.00159927 -0.0239184)
(0.106885 -0.0046635 -0.0288155)
(0.109207 -0.00601423 -0.0274067)
(0.116039 -0.00630954 -0.0222191)
(0.122802 -0.00782801 -0.0164038)
(0.12977 -0.00934929 -0.00966491)
(0.13854 -0.0103171 -0.00530403)
(0.14514 -0.00449314 0.00278974)
(0.144324 0.000516026 0.00793927)
(0.13558 0.000403925 0.00816828)
(0.12714 -0.00263464 0.00471127)
(0.128994 -0.0034201 0.00171264)
(0.139071 -0.000866359 0.00294137)
(0.143917 0.000910303 0.00681955)
(0.137829 -0.00117473 0.00811043)
(0.131069 -0.00458993 0.00496695)
(0.136415 -0.00460069 0.00258092)
(0.146684 -0.00171028 0.00578818)
(0.144006 6.56594e-05 0.0102052)
(0.128318 -8.45333e-05 0.0106457)
(0.111638 -0.000741938 0.00904741)
(0.101792 -0.00119535 0.00841503)
(0.0989393 -0.00166707 0.0083813)
(0.100621 -0.00242637 0.0077589)
(0.104036 -0.00376262 0.00665871)
(0.105869 -0.00610033 0.00671156)
(0.103844 -0.00942054 0.00962815)
(0.0996387 -0.0123794 0.014781)
(0.0982582 -0.0134213 0.0184624)
(0.10322 -0.0126557 0.0168668)
(0.114607 -0.0105226 0.00945507)
(0.128669 -0.00683153 -0.000637654)
(0.135158 -0.00275659 -0.0083793)
(0.1272 -0.000411572 -0.0103672)
(0.112352 -0.000236062 -0.00704816)
(0.102362 -0.00135537 -0.00142168)
(0.10315 -0.00220614 0.00298601)
(0.113927 -0.00111882 0.00384374)
(0.125996 0.00141552 0.000332156)
(0.129946 0.00262153 -0.00761125)
(0.126032 0.00048055 -0.0183663)
(0.120406 -0.00377002 -0.027203)
(0.118063 -0.00678132 -0.0296082)
(0.120644 -0.00785378 -0.0260539)
(0.126177 -0.00944174 -0.0199579)
(0.131692 -0.0115792 -0.0131574)
(0.139151 -0.0129771 -0.00795959)
(0.145098 -0.00772885 -0.00128651)
(0.147697 -0.000939762 0.00337502)
(0.143546 0.001434 0.00513749)
(0.134612 -0.000950774 0.00374301)
(0.128593 -0.00360171 0.00088914)
(0.132747 -0.00265503 0.000449194)
(0.142494 0.000230064 0.00352591)
(0.146096 0.000158261 0.00643265)
(0.139617 -0.00420709 0.00557157)
(0.134595 -0.00792341 0.0030742)
(0.14258 -0.00636774 0.00448618)
(0.151586 -0.0018204 0.00873814)
(0.146169 0.00105928 0.0102403)
(0.130894 0.00140261 0.00934538)
(0.117149 0.000399274 0.0094393)
(0.109875 -0.00128825 0.0103739)
(0.109156 -0.0033103 0.0102113)
(0.113707 -0.00513552 0.00837982)
(0.11914 -0.00678958 0.00645439)
(0.119471 -0.00910152 0.00732795)
(0.114 -0.0118719 0.0120881)
(0.10828 -0.01353 0.0175468)
(0.107835 -0.0135127 0.018616)
(0.114121 -0.0119341 0.0131391)
(0.12434 -0.00810068 0.00334981)
(0.13056 -0.00264593 -0.00566815)
(0.126064 0.00147023 -0.00941704)
(0.114761 0.00237885 -0.00709354)
(0.105076 0.000567526 -0.000898849)
(0.102015 -0.00193185 0.00563802)
(0.108301 -0.00229798 0.00898891)
(0.121341 0.000458586 0.00747604)
(0.132466 0.00350714 0.000819799)
(0.135912 0.00291906 -0.00995818)
(0.133668 -0.00143739 -0.0209314)
(0.130465 -0.00571887 -0.0271111)
(0.128611 -0.00782666 -0.0270637)
(0.129601 -0.00990185 -0.0225372)
(0.133577 -0.0127932 -0.0155252)
(0.140643 -0.0143826 -0.0103337)
(0.145867 -0.0109059 -0.00398919)
(0.148412 -0.00409015 -0.000453086)
(0.1468 0.000508474 0.00167395)
(0.140985 0.000365826 0.00241584)
(0.13344 -0.00221279 0.000950677)
(0.130454 -0.00332491 -0.000372678)
(0.136458 -0.00182853 0.00136956)
(0.14577 -0.000750964 0.00460296)
(0.147554 -0.00337315 0.00541961)
(0.140791 -0.00820938 0.00355877)
(0.139224 -0.00971145 0.00360452)
(0.147788 -0.00565679 0.00708762)
(0.152371 -0.000164387 0.00922583)
(0.145013 0.00275632 0.00862865)
(0.132378 0.00283047 0.00886822)
(0.122233 0.000739367 0.0103737)
(0.117631 -0.00303211 0.0102915)
(0.120378 -0.006784 0.0078293)
(0.129118 -0.0084717 0.00480814)
(0.134753 -0.00904746 0.00404406)
(0.13065 -0.0106282 0.00777914)
(0.121619 -0.0124305 0.0141924)
(0.115665 -0.0128024 0.0177747)
(0.115936 -0.0115971 0.0149587)
(0.121275 -0.00826518 0.00693699)
(0.126576 -0.00261184 -0.0022236)
(0.125878 0.00264936 -0.00812464)
(0.119542 0.00442208 -0.00851315)
(0.112538 0.00254372 -0.00395123)
(0.108677 -0.000676808 0.00282424)
(0.110302 -0.00225748 0.00808671)
(0.118273 -0.000469368 0.00935082)
(0.129435 0.00302573 0.0059169)
(0.138775 0.00414527 -0.00221599)
(0.143136 0.000987477 -0.0129319)
(0.142673 -0.00359218 -0.0215148)
(0.139286 -0.00643523 -0.0250329)
(0.135624 -0.00897711 -0.023795)
(0.135959 -0.0126372 -0.0182079)
(0.143939 -0.0146507 -0.0130233)
(0.147981 -0.0130487 -0.00650548)
(0.148518 -0.00752808 -0.00305922)
(0.145919 -0.00195297 -0.000874057)
(0.142539 0.000511469 0.00144417)
(0.138248 -0.000373101 0.0017866)
(0.134081 -0.00242002 0.0002617)
(0.13505 -0.00335512 0.000463904)
(0.142569 -0.00322158 0.00321723)
(0.148541 -0.00431161 0.00503201)
(0.145793 -0.00779688 0.00367306)
(0.140141 -0.0107252 0.0023169)
(0.142207 -0.00880083 0.00445133)
(0.147955 -0.00291101 0.00738348)
(0.146457 0.0024329 0.00823821)
(0.137575 0.00472589 0.00868025)
(0.128654 0.00364679 0.00909179)
(0.123792 -0.00070794 0.00693361)
(0.124037 -0.0067903 0.00251031)
(0.132277 -0.0103882 -0.000872715)
(0.144309 -0.00970694 -0.0012773)
(0.146389 -0.00885831 0.00243832)
(0.136655 -0.0100792 0.00950514)
(0.125506 -0.0109139 0.0151847)
(0.120041 -0.00967754 0.0150684)
(0.120704 -0.00647432 0.00944352)
(0.124312 -0.00147087 0.00145958)
(0.126056 0.00364674 -0.0057311)
(0.124048 0.00584393 -0.00955572)
(0.120374 0.00417245 -0.00848577)
(0.117733 0.00070805 -0.00344286)
(0.117752 -0.00141971 0.00213974)
(0.120931 -0.000591822 0.00536481)
(0.127282 0.00191108 0.00545391)
(0.136799 0.00307333 0.0016654)
(0.146832 0.00149481 -0.00639279)
(0.151243 -0.00149907 -0.0155923)
(0.148507 -0.0040485 -0.0215551)
(0.143106 -0.00707654 -0.023047)
(0.140899 -0.0116226 -0.0198978)
(0.149796 -0.0137657 -0.0149133)
(0.151508 -0.0132634 -0.00949845)
(0.148879 -0.00933968 -0.00620276)
(0.143856 -0.00436107 -0.00315485)
(0.140779 -0.000606375 0.00104485)
(0.139532 0.000606621 0.00319117)
(0.138039 -0.000822973 0.00165848)
(0.137999 -0.00341204 0.000392635)
(0.142456 -0.00504392 0.00248437)
(0.148227 -0.00550706 0.00513842)
(0.148329 -0.00698537 0.00414509)
(0.142293 -0.00965623 0.00111618)
(0.137207 -0.00980218 0.00144024)
(0.136259 -0.00536008 0.00536277)
(0.134307 0.000491292 0.00888749)
(0.129945 0.00417754 0.00980769)
(0.127471 0.00472427 0.00719048)
(0.127846 0.00180909 0.00116139)
(0.128206 -0.00461663 -0.0049326)
(0.131638 -0.0110325 -0.00709092)
(0.143923 -0.0118169 -0.00541679)
(0.154341 -0.0084004 -0.0012246)
(0.14952 -0.00706592 0.00543004)
(0.135497 -0.0077194 0.0119401)
(0.124598 -0.00668767 0.0141303)
(0.12159 -0.00337618 0.0109725)
(0.124546 0.000783862 0.00455919)
(0.12879 0.0044605 -0.0029007)
(0.130427 0.0060117 -0.0091967)
(0.129448 0.00455834 -0.0117027)
(0.128425 0.0015226 -0.00976943)
(0.128676 -0.000302969 -0.00583695)
(0.129828 0.000284922 -0.00216539)
(0.132036 0.00125047 0.000763154)
(0.137471 0.000465248 0.00126785)
(0.146998 -0.00083922 -0.00320334)
(0.154637 -0.0011686 -0.0111833)
(0.154539 -0.00180075 -0.0181773)
(0.15014 -0.00492069 -0.0214732)
(0.147933 -0.0101431 -0.0201143)
(0.156305 -0.0113886 -0.0153638)
(0.156733 -0.0112577 -0.0118067)
(0.152116 -0.0090812 -0.00933199)
(0.144677 -0.00583094 -0.00567728)
(0.139918 -0.00191066 0.000124613)
(0.138914 0.00106152 0.00417061)
(0.13947 0.000861841 0.00366679)
(0.140823 -0.00241236 0.00171632)
(0.144111 -0.00572682 0.00257278)
(0.148361 -0.00643409 0.00526731)
(0.148962 -0.00589504 0.00483357)
(0.143127 -0.00661631 0.000691973)
(0.133708 -0.00732931 -0.00153256)
(0.126189 -0.00522947 0.0011569)
(0.122452 -0.00100222 0.00501754)
(0.122395 0.00248169 0.00552221)
(0.126215 0.0039411 0.00158628)
(0.131226 0.00289838 -0.0045909)
(0.133519 -0.00196203 -0.00875784)
(0.134436 -0.00985023 -0.00792941)
(0.141507 -0.0144853 -0.00358282)
(0.153333 -0.0114844 0.000992673)
(0.154785 -0.00649431 0.00574236)
(0.142667 -0.00463916 0.0107938)
(0.129046 -0.0035637 0.0132613)
(0.123142 -0.000720291 0.0112414)
(0.124896 0.00270178 0.0060235)
(0.129239 0.0048323 -0.000334436)
(0.131562 0.00501748 -0.00590511)
(0.131423 0.00330865 -0.00875975)
(0.131938 0.000738803 -0.00877476)
(0.134515 -0.000618214 -0.00738337)
(0.13736 0.000176771 -0.00476516)
(0.139078 0.000774902 -0.000669037)
(0.1407 -0.00101091 0.00181016)
(0.14505 -0.00280614 -0.00114113)
(0.151734 -0.00177245 -0.00821044)
(0.155957 -0.000401458 -0.0149379)
(0.156037 -0.00280884 -0.0186952)
(0.155181 -0.00799465 -0.0186246)
(0.16126 -0.00821734 -0.0145799)
(0.161878 -0.00832587 -0.0129489)
(0.158166 -0.00743487 -0.0115894)
(0.149377 -0.00595449 -0.00857495)
(0.141545 -0.00263203 -0.00249516)
(0.138743 0.00136128 0.00361506)
(0.139905 0.00242167 0.00595471)
(0.142424 -0.000687647 0.00481914)
(0.145107 -0.00481263 0.00367335)
(0.147657 -0.00622534 0.0046401)
(0.148131 -0.00506414 0.00521441)
(0.144094 -0.0041204 0.0023987)
(0.135974 -0.00385622 -0.00180241)
(0.12792 -0.00257186 -0.00331622)
(0.124114 -0.000232584 -0.00205615)
(0.125343 0.00149659 -0.00110033)
(0.129861 0.00225119 -0.0024783)
(0.135243 0.00228553 -0.0058432)
(0.139456 -0.000227327 -0.00845842)
(0.141924 -0.00722036 -0.00708399)
(0.145418 -0.0147149 -0.00182929)
(0.152139 -0.0149469 0.00361225)
(0.154375 -0.00846076 0.00721554)
(0.145956 -0.00294349 0.0103752)
(0.133571 -0.000284031 0.0128049)
(0.125961 0.00182758 0.0121717)
(0.124621 0.00394557 0.00818814)
(0.125622 0.00521025 0.00323109)
(0.125785 0.00491988 -0.000170919)
(0.125628 0.00279701 -0.0013766)
(0.127675 -0.000231369 -0.00183632)
(0.132568 -0.00180623 -0.00248023)
(0.137621 -0.000807342 -0.00134453)
(0.139953 0.000455351 0.00268493)
(0.139803 -0.000599354 0.00513138)
(0.140293 -0.00239301 0.00145247)
(0.144535 -0.00204071 -0.00586236)
(0.151901 -0.000716012 -0.0117015)
(0.15816 -0.00186808 -0.0146574)
(0.16047 -0.00552303 -0.0155284)
(0.164437 -0.0048039 -0.0122963)
(0.166263 -0.00518916 -0.0127339)
(0.164074 -0.00516695 -0.0129758)
(0.155188 -0.00461926 -0.0114177)
(0.144864 -0.00211262 -0.00596564)
(0.139413 0.00172336 0.00134711)
(0.139681 0.00340434 0.00620929)
(0.142644 0.000897007 0.00695553)
(0.145179 -0.00332372 0.00540789)
(0.146173 -0.00545587 0.00465784)
(0.145356 -0.00473483 0.00493698)
(0.142082 -0.00306966 0.00359951)
(0.136764 -0.00169607 -2.43456e-05)
(0.132255 -0.000369371 -0.00341217)
(0.131322 0.000802756 -0.00435781)
(0.133334 0.00109842 -0.00321256)
(0.135929 0.00076063 -0.00208864)
(0.138692 0.000869201 -0.00307498)
(0.142026 0.000505596 -0.00554386)
(0.144942 -0.00345719 -0.00593456)
(0.14745 -0.0106568 -0.00245055)
(0.151136 -0.0142072 0.00263685)
(0.153382 -0.00971374 0.00663427)
(0.14893 -0.00226639 0.00960209)
(0.139546 0.00292806 0.0115325)
(0.131267 0.005414 0.0113791)
(0.126464 0.00598406 0.00938246)
(0.12385 0.0052361 0.00685262)
(0.122648 0.00353989 0.0046736)
(0.123618 0.000853609 0.00322875)
(0.127346 -0.0024706 0.00228877)
(0.132682 -0.00446949 0.00134204)
(0.137171 -0.00321052 0.00133011)
(0.139058 -6.15878e-05 0.00377056)
(0.138853 0.00146674 0.00624942)
(0.138608 0.000650749 0.00402804)
(0.140898 -0.000316228 -0.00245218)
(0.147432 -0.000591221 -0.00805626)
(0.15588 -0.00146999 -0.0104675)
(0.161656 -0.00330225 -0.0114976)
(0.164649 -0.00268105 -0.00999644)
(0.167787 -0.00267697 -0.0110502)
(0.167197 -0.00270693 -0.0123986)
(0.160052 -0.00216992 -0.0130051)
(0.150043 3.6767e-05 -0.00995289)
(0.143155 0.00293371 -0.0030302)
(0.140881 0.00374176 0.00387221)
(0.141334 0.00136643 0.00720592)
(0.142383 -0.00194922 0.00681227)
(0.142809 -0.00338651 0.0055034)
(0.142098 -0.00279344 0.0050903)
(0.140289 -0.00170998 0.00399098)
(0.13836 -0.000734518 0.000950879)
(0.138068 8.16326e-05 -0.00219218)
(0.139722 6.97259e-05 -0.00318245)
(0.140931 -0.00100685 -0.00191418)
(0.139792 -0.00203171 0.000181846)
(0.138067 -0.00131021 0.00131614)
(0.138783 0.000374166 0.000986938)
(0.142147 -0.0010714 0.000916973)
(0.146253 -0.00732697 0.00279487)
(0.149575 -0.0124656 0.0056738)
(0.150622 -0.00960396 0.00717963)
(0.14699 -0.00107432 0.00783937)
(0.1393 0.00599674 0.00909019)
(0.131489 0.00847607 0.0098202)
(0.126121 0.00730529 0.0090656)
(0.123266 0.00492625 0.00778378)
(0.122505 0.00318011 0.00708529)
(0.123932 0.00188519 0.00674597)
(0.1276 -0.000282165 0.00589974)
(0.132546 -0.0027939 0.00458975)
(0.136636 -0.00290709 0.00414422)
(0.138434 0.000165731 0.00555053)
(0.138815 0.00332823 0.00727991)
(0.139615 0.00398712 0.00596527)
(0.141957 0.00280343 0.000982408)
(0.146715 0.0010596 -0.00441584)
(0.153607 -0.000786376 -0.00759935)
(0.160084 -0.00216531 -0.0090003)
(0.164055 -0.00219436 -0.00918594)
(0.167034 -0.000582482 -0.00963474)
(0.166307 0.000446659 -0.0104062)
(0.162201 0.00070675 -0.0114729)
(0.15688 0.00173178 -0.0110236)
(0.152494 0.00380272 -0.00723134)
(0.148822 0.00450983 -0.00142707)
(0.144976 0.00219755 0.00318207)
(0.141422 -0.00135717 0.00496821)
(0.139296 -0.0031526 0.00506907)
(0.139288 -0.0026268 0.00521866)
(0.141435 -0.0013605 0.00512628)
(0.145307 -0.000251182 0.00356735)
(0.149719 0.000513416 0.00100691)
(0.152095 0.00014557 -0.000462718)
(0.15009 -0.00135179 0.000833599)
(0.144604 -0.002105 0.00435628)
(0.139568 -0.000590837 0.0072642)
(0.138818 0.00202554 0.00649516)
(0.142256 0.00210209 0.00264454)
(0.146545 -0.00273839 0.000672048)
(0.14923 -0.00868239 0.00359581)
(0.149305 -0.0082106 0.00756379)
(0.145946 -0.000229106 0.00838258)
(0.139526 0.00821368 0.00739056)
(0.132992 0.011811 0.00683169)
(0.129098 0.0108164 0.00674881)
(0.127826 0.00776855 0.00628033)
(0.127862 0.00486213 0.00513205)
(0.128658 0.00292374 0.00392639)
(0.130505 0.00146961 0.00353912)
(0.133524 0.000287394 0.00393752)
(0.136951 0.000312022 0.00453294)
(0.139821 0.00206249 0.00551423)
(0.141574 0.00423574 0.00704904)
(0.142363 0.00501208 0.00744845)
(0.143278 0.00388834 0.00457636)
(0.145842 0.00136036 -0.000790667)
(0.151162 -0.00138538 -0.00565032)
(0.15814 -0.00277355 -0.00825078)
(0.161783 -0.00559007 -0.00842296)
(0.164087 -0.00198733 -0.00819759)
(0.162853 0.00180252 -0.00788443)
(0.158784 0.00333207 -0.00841902)
(0.154294 0.0035528 -0.00880197)
(0.15194 0.00430924 -0.00764947)
(0.151759 0.00507695 -0.00490243)
(0.151411 0.00405442 -0.0016495)
(0.14885 0.000980084 0.000921857)
(0.144509 -0.00258322 0.00253656)
(0.140843 -0.00544106 0.00387912)
(0.140369 -0.00763693 0.00510436)
(0.144152 -0.0087268 0.00532361)
(0.150882 -0.00758986 0.00396676)
(0.156325 -0.00447395 0.00185264)
(0.155972 -0.00149373 0.00109023)
(0.149944 0.000434074 0.00288189)
(0.142807 0.00262854 0.00497747)
(0.13907 0.00507313 0.00372868)
(0.139526 0.00538774 -0.00107601)
(0.142104 0.00204129 -0.00499914)
(0.14526 -0.00332025 -0.00352238)
(0.147247 -0.00602191 0.0020431)
(0.146289 -0.00239404 0.00632021)
(0.1431 0.00524308 0.00710431)
(0.140366 0.01142 0.00571789)
(0.139779 0.0133328 0.00328649)
(0.140189 0.0115613 0.00048079)
(0.139741 0.00815635 -0.00148642)
(0.138517 0.00496959 -0.001583)
(0.137669 0.00283473 0.000139765)
(0.137833 0.00180549 0.00255998)
(0.13857 0.0018676 0.00442043)
(0.139117 0.00274381 0.00559363)
(0.13943 0.00354922 0.00674043)
(0.139979 0.0036391 0.00749837)
(0.14155 0.0029095 0.0062299)
(0.14494 0.000841659 0.00228144)
(0.150356 -0.00271091 -0.00283702)
(0.156644 -0.00579533 -0.00682304)
(0.15759 -0.00248689 -0.00765842)
(0.154395 0.00167929 -0.00847284)
(0.149795 0.00525954 -0.00817463)
(0.146043 0.00625075 -0.00764544)
(0.143973 0.00517983 -0.00723309)
(0.143794 0.00374397 -0.00709303)
(0.145473 0.00273332 -0.00699163)
(0.148644 0.00182742 -0.00612671)
(0.152286 0.000573646 -0.00398749)
(0.154558 -0.00107909 -0.00116076)
(0.153918 -0.00319807 0.00142116)
(0.150999 -0.00614543 0.00359262)
(0.148398 -0.0094165 0.00560801)
(0.148398 -0.0110942 0.00726307)
(0.150761 -0.00969218 0.00770073)
(0.152371 -0.00578386 0.00636215)
(0.150435 -0.000943598 0.00412397)
(0.145694 0.00338453 0.00228827)
(0.141385 0.00546514 0.000553475)
(0.139611 0.00394011 -0.00196022)
(0.140301 -0.000300611 -0.00419617)
(0.14309 -0.00426392 -0.00352087)
(0.146668 -0.00521398 0.000651805)
(0.148399 -0.00234208 0.00548189)
(0.147875 0.00303953 0.00777683)
(0.147368 0.00818428 0.00622675)
(0.14805 0.0110141 0.00140093)
(0.148718 0.0111011 -0.00449747)
(0.148203 0.00879362 -0.00866205)
(0.146787 0.0050505 -0.00946271)
(0.145122 0.00189712 -0.00698195)
(0.143585 0.00115505 -0.00243979)
(0.142354 0.00257278 0.00245756)
(0.141256 0.00405714 0.00650391)
(0.140271 0.00366223 0.00961296)
(0.140059 0.0013176 0.0117074)
(0.141735 -0.00147429 0.0114516)
(0.146075 -0.0036076 0.0076051)
(0.152107 -0.0048652 0.00126565)
(0.156846 -0.00479178 -0.00450776)
(0.160735 0.00277788 0.000465017)
(0.16224 0.00676146 -0.00373132)
(0.160859 0.00934258 -0.00737185)
(0.156872 0.00906413 -0.0102731)
(0.152073 0.00666216 -0.0116963)
(0.148714 0.00372935 -0.0114323)
(0.147854 0.00109362 -0.0101332)
(0.149274 -0.00109582 -0.00848436)
(0.152266 -0.00271036 -0.00666749)