/*--------------------------------*- C++ -*----------------------------------*\
| =========                 |                                                 |
| \\      /  F ield         | OpenFOAM: The Open Source CFD Toolbox           |
|  \\    /   O peration     | Version:  2306                                  |
|   \\  /    A nd           | Website:  www.openfoam.com                      |
|    \\/     M anipulation  |                                                 |
\*---------------------------------------------------------------------------*/
FoamFile
{
    version     2.0;
    format      ascii;
    arch        "LSB;label=32;scalar=64";
    class       volScalarField;
    location    "7";
    object      nut;
}
// * * * * * * * * * * * * * * * * * * * * * * * * * * * * * * * * * * * * * //

dimensions      [0 2 -1 0 0 0 0];

internalField   nonuniform List<scalar> 
60000
(
6.68172e-05
7.25535e-05
7.87972e-05
8.44847e-05
8.80336e-05
8.81568e-05
8.52402e-05
8.13207e-05
7.79864e-05
7.5543e-05
7.36567e-05
7.14314e-05
6.78819e-05
6.28131e-05
5.73453e-05
5.31624e-05
5.10793e-05
5.07745e-05
5.14757e-05
5.25201e-05
5.40059e-05
5.63371e-05
5.91679e-05
6.20705e-05
6.50521e-05
6.84043e-05
7.26611e-05
7.77819e-05
8.19833e-05
8.2982e-05
8.03964e-05
7.54625e-05
6.9556e-05
6.40353e-05
5.97977e-05
5.72042e-05
5.64289e-05
5.72036e-05
5.91805e-05
6.23116e-05
6.62395e-05
7.22302e-05
7.84178e-05
8.42684e-05
8.87733e-05
9.03141e-05
8.81556e-05
8.39407e-05
8.01184e-05
7.76533e-05
7.61126e-05
7.43501e-05
7.13108e-05
6.68771e-05
6.19045e-05
5.74776e-05
5.42906e-05
5.25363e-05
5.1967e-05
5.22412e-05
5.33352e-05
5.52269e-05
5.76407e-05
6.0538e-05
6.41494e-05
6.86694e-05
7.41117e-05
7.99043e-05
8.42701e-05
8.53189e-05
8.28717e-05
7.8275e-05
7.32359e-05
6.87008e-05
6.44273e-05
6.03297e-05
5.73369e-05
5.64545e-05
5.79168e-05
6.13139e-05
6.15022e-05
6.722e-05
7.34192e-05
7.99404e-05
8.63585e-05
9.07462e-05
9.06702e-05
8.65389e-05
8.17366e-05
7.86727e-05
7.73142e-05
7.64169e-05
7.47809e-05
7.19386e-05
6.79553e-05
6.30697e-05
5.79503e-05
5.37426e-05
5.12416e-05
5.03844e-05
5.07583e-05
5.19905e-05
5.39124e-05
5.65888e-05
6.02453e-05
6.4861e-05
7.034e-05
7.64613e-05
8.2054e-05
8.51035e-05
8.46913e-05
8.18011e-05
7.81028e-05
7.44977e-05
7.03577e-05
6.49203e-05
5.90801e-05
5.51924e-05
5.47162e-05
5.71473e-05
5.34744e-05
5.79873e-05
6.3833e-05
7.05944e-05
7.8788e-05
8.69656e-05
9.08618e-05
8.83034e-05
8.26391e-05
7.84273e-05
7.69301e-05
7.69632e-05
7.70438e-05
7.63322e-05
7.42648e-05
7.00305e-05
6.34656e-05
5.61666e-05
5.05455e-05
4.75805e-05
4.66594e-05
4.69503e-05
4.80892e-05
5.00287e-05
5.29036e-05
5.64859e-05
6.0596e-05
6.59078e-05
7.27911e-05
7.92845e-05
8.30349e-05
8.35897e-05
8.20546e-05
7.98007e-05
7.67338e-05
7.14955e-05
6.36157e-05
5.57317e-05
5.1336e-05
5.09944e-05
4.47857e-05
4.63985e-05
5.02183e-05
5.53631e-05
6.33609e-05
7.46862e-05
8.44662e-05
8.65456e-05
8.15768e-05
7.60542e-05
7.39113e-05
7.4634e-05
7.62529e-05
7.75701e-05
7.80856e-05
7.64907e-05
7.09643e-05
6.17282e-05
5.20977e-05
4.53836e-05
4.19821e-05
4.07131e-05
4.06138e-05
4.12141e-05
4.26923e-05
4.47877e-05
4.66928e-05
4.9144e-05
5.45391e-05
6.37226e-05
7.33138e-05
7.965e-05
8.21219e-05
8.19277e-05
8.05689e-05
7.75102e-05
7.06595e-05
6.04169e-05
5.11805e-05
4.60619e-05
4.16529e-05
3.93647e-05
3.971e-05
4.11318e-05
4.40695e-05
5.15626e-05
6.58084e-05
7.62822e-05
7.57599e-05
7.00385e-05
6.70306e-05
6.82168e-05
7.10267e-05
7.35898e-05
7.62014e-05
7.86157e-05
7.78261e-05
7.07999e-05
5.87972e-05
4.71126e-05
3.93495e-05
3.5309e-05
3.34588e-05
3.26951e-05
3.31492e-05
3.49427e-05
3.64871e-05
3.75453e-05
4.10756e-05
4.44369e-05
5.25856e-05
6.5159e-05
7.43988e-05
7.791e-05
7.81757e-05
7.78421e-05
7.53658e-05
6.7919e-05
5.71356e-05
4.76387e-05
4.84686e-05
4.0762e-05
3.61841e-05
3.50912e-05
3.76967e-05
4.06656e-05
4.11955e-05
5.28649e-05
6.07573e-05
5.76694e-05
5.40873e-05
5.61449e-05
6.06469e-05
6.38355e-05
6.64383e-05
7.16624e-05
7.79631e-05
7.89199e-05
7.04912e-05
5.5995e-05
4.25933e-05
3.40922e-05
2.9908e-05
2.82152e-05
2.80023e-05
2.99464e-05
3.29981e-05
3.21072e-05
3.17076e-05
3.98029e-05
3.98544e-05
4.18684e-05
5.5349e-05
6.51181e-05
6.74334e-05
6.83311e-05
7.02223e-05
6.95889e-05
6.42088e-05
5.65748e-05
5.89742e-05
5.21758e-05
4.04273e-05
3.1495e-05
2.87572e-05
3.66896e-05
4.08735e-05
3.29634e-05
3.89355e-05
4.01423e-05
3.44129e-05
3.62909e-05
4.42185e-05
4.92081e-05
4.94248e-05
5.2529e-05
6.38837e-05
7.66112e-05
8.01153e-05
7.0434e-05
5.37848e-05
3.93637e-05
3.14017e-05
2.86114e-05
2.81789e-05
2.98744e-05
3.46294e-05
3.95558e-05
3.27475e-05
2.57628e-05
3.74209e-05
3.53364e-05
3.36677e-05
4.32863e-05
4.29655e-05
3.8699e-05
4.26663e-05
5.19261e-05
5.82399e-05
6.01278e-05
5.30806e-05
5.81984e-05
5.17928e-05
3.73637e-05
2.53233e-05
2.05428e-05
3.29385e-05
3.58235e-05
2.5643e-05
2.98732e-05
2.36976e-05
1.75651e-05
2.3621e-05
3.24179e-05
3.24254e-05
2.6144e-05
3.1319e-05
5.24251e-05
7.40285e-05
8.04457e-05
6.95875e-05
5.11662e-05
3.71133e-05
3.14093e-05
3.1093e-05
3.35418e-05
3.83134e-05
4.57494e-05
4.89763e-05
3.36921e-05
2.22809e-05
3.26418e-05
2.54579e-05
1.91489e-05
2.14276e-05
2.17069e-05
2.34086e-05
2.44554e-05
3.24016e-05
4.33748e-05
3.31636e-05
4.38077e-05
5.31713e-05
4.68573e-05
3.21284e-05
2.14172e-05
1.84252e-05
3.05244e-05
2.97096e-05
2.43084e-05
2.93553e-05
1.62487e-05
1.4779e-05
1.49322e-05
2.14949e-05
1.7389e-05
9.53755e-06
1.76188e-05
4.32118e-05
7.08443e-05
7.85199e-05
6.57691e-05
4.70482e-05
3.58752e-05
3.36338e-05
3.63059e-05
4.24854e-05
5.07236e-05
5.69509e-05
5.06573e-05
2.65219e-05
2.01457e-05
2.36362e-05
1.41562e-05
2.4599e-05
2.88532e-05
2.83056e-05
2.91067e-05
2.74238e-05
2.80406e-05
3.0108e-05
2.86584e-05
3.7739e-05
4.8742e-05
4.05492e-05
2.80833e-05
2.27542e-05
2.08002e-05
2.90566e-05
2.66801e-05
2.68741e-05
2.81741e-05
8.78827e-06
1.55504e-05
8.19734e-06
1.8629e-05
1.37392e-05
1.24754e-05
2.01939e-05
3.84158e-05
6.57637e-05
7.20006e-05
5.8689e-05
4.31565e-05
3.44067e-05
3.25711e-05
3.81754e-05
4.92696e-05
5.96336e-05
5.87758e-05
4.02816e-05
1.64294e-05
1.89503e-05
1.82834e-05
2.31695e-05
2.82613e-05
2.30484e-05
1.5389e-05
1.56478e-05
2.28548e-05
2.15891e-05
2.77704e-05
2.19277e-05
3.83045e-05
4.55724e-05
3.62372e-05
2.98463e-05
2.70833e-05
2.24553e-05
2.81767e-05
2.47475e-05
2.29082e-05
1.94418e-05
4.21709e-06
1.5239e-05
8.24373e-06
1.75376e-05
1.20622e-05
1.70888e-05
2.4752e-05
3.30866e-05
5.58939e-05
6.00463e-05
4.80488e-05
3.22154e-05
2.1162e-05
2.53918e-05
3.45597e-05
4.99286e-05
5.90692e-05
4.97492e-05
2.74525e-05
1.70254e-05
1.80336e-05
1.75199e-05
2.47791e-05
3.20296e-05
3.11322e-05
2.19044e-05
1.41967e-05
2.9151e-05
2.8423e-05
2.16662e-05
2.24379e-05
4.06552e-05
4.19275e-05
3.57518e-05
3.44259e-05
2.84586e-05
2.23647e-05
2.48731e-05
1.87112e-05
1.67325e-05
1.17042e-05
7.38507e-06
1.43376e-05
1.06124e-05
1.52729e-05
1.23297e-05
1.84352e-05
2.39615e-05
2.28112e-05
3.20523e-05
3.2235e-05
2.7772e-05
2.26382e-05
2.12104e-05
2.27467e-05
2.90639e-05
4.75692e-05
5.15849e-05
3.75408e-05
2.30698e-05
1.83311e-05
1.43818e-05
1.72696e-05
2.75953e-05
3.70027e-05
3.83937e-05
3.4125e-05
3.7583e-05
3.14092e-05
2.7472e-05
1.45229e-05
2.55771e-05
4.00564e-05
4.04468e-05
3.9796e-05
3.65468e-05
2.73135e-05
2.27647e-05
2.06896e-05
1.51347e-05
1.40113e-05
8.69621e-06
1.09336e-05
1.37023e-05
1.05046e-05
1.51946e-05
1.4254e-05
2.00265e-05
3.03565e-05
2.57425e-05
1.27709e-05
1.94009e-05
2.79702e-05
2.55011e-05
2.14207e-05
1.79138e-05
3.03181e-05
4.43015e-05
3.9976e-05
2.88674e-05
2.20418e-05
1.65157e-05
1.34912e-05
1.55119e-05
2.34594e-05
3.32555e-05
3.87759e-05
2.37244e-05
2.27416e-05
2.52458e-05
2.49819e-05
9.99374e-06
2.7698e-05
3.93958e-05
4.23678e-05
4.21107e-05
3.49659e-05
2.83929e-05
2.5151e-05
1.95483e-05
1.50137e-05
1.36442e-05
1.12755e-05
1.25668e-05
1.10872e-05
9.55294e-06
1.77841e-05
1.97545e-05
2.35381e-05
2.43128e-05
1.69701e-05
1.85894e-05
2.61197e-05
2.93446e-05
2.33225e-05
1.73611e-05
1.82242e-05
3.45665e-05
3.73411e-05
3.02687e-05
2.44345e-05
1.78358e-05
1.22412e-05
1.34661e-05
1.23744e-05
1.1898e-05
1.88244e-05
1.32318e-05
1.53821e-05
2.14224e-05
3.15373e-05
2.54197e-05
1.42901e-05
3.15166e-05
4.15557e-05
4.42597e-05
3.98069e-05
3.36859e-05
2.97707e-05
2.33327e-05
1.5717e-05
1.42401e-05
1.48093e-05
1.23392e-05
1.05898e-05
1.16182e-05
1.55674e-05
2.06835e-05
1.95742e-05
1.55431e-05
1.914e-05
2.12374e-05
2.0691e-05
2.6347e-05
2.65792e-05
1.80554e-05
1.15807e-05
2.61115e-05
3.29057e-05
2.9615e-05
2.46348e-05
1.78791e-05
1.70141e-05
1.98143e-05
2.03721e-05
1.99737e-05
1.71638e-05
1.23569e-05
1.59679e-05
2.16627e-05
2.90985e-05
3.40739e-05
2.78018e-05
2.31357e-05
3.15068e-05
3.91842e-05
3.86685e-05
3.4462e-05
3.2814e-05
2.70608e-05
1.73423e-05
9.82055e-06
9.79035e-06
1.01044e-05
1.04907e-05
1.36916e-05
1.39946e-05
1.28821e-05
1.68201e-05
2.14673e-05
2.36184e-05
2.0665e-05
1.59416e-05
2.18621e-05
3.02356e-05
2.43139e-05
8.54078e-06
1.50648e-05
2.6234e-05
2.90603e-05
2.53849e-05
2.0847e-05
2.05344e-05
1.87301e-05
1.72909e-05
1.73666e-05
1.56813e-05
8.83601e-06
1.99428e-05
2.70863e-05
2.87894e-05
2.95326e-05
2.92636e-05
2.91822e-05
2.94684e-05
2.79096e-05
2.67404e-05
2.60499e-05
2.80916e-05
2.9635e-05
2.61907e-05
1.84118e-05
9.51793e-06
6.41538e-06
9.10319e-06
1.29385e-05
1.54971e-05
1.73875e-05
2.11607e-05
2.41314e-05
2.45936e-05
2.32837e-05
1.83571e-05
1.67219e-05
2.80907e-05
3.00989e-05
1.65072e-05
8.39438e-06
1.75093e-05
2.41147e-05
2.71061e-05
2.53802e-05
1.80728e-05
1.28212e-05
1.78007e-05
1.8972e-05
1.26806e-05
1.73633e-05
1.58948e-05
2.13183e-05
2.21544e-05
2.20919e-05
2.26663e-05
2.26573e-05
2.70797e-05
2.84236e-05
2.20995e-05
1.75006e-05
1.87383e-05
2.15714e-05
2.39482e-05
2.50566e-05
2.418e-05
2.02787e-05
1.37216e-05
9.24535e-06
1.66255e-05
2.68757e-05
2.95579e-05
2.16704e-05
1.80771e-05
2.72193e-05
2.56664e-05
1.48843e-05
2.86774e-05
4.0187e-05
3.06925e-05
1.16835e-05
1.78251e-05
2.70793e-05
2.91241e-05
2.64397e-05
2.43397e-05
2.50549e-05
2.47022e-05
2.40468e-05
2.27824e-05
1.43681e-05
1.20263e-05
1.69493e-05
2.07511e-05
2.12267e-05
1.95288e-05
1.71363e-05
1.75839e-05
2.01874e-05
2.03031e-05
1.77547e-05
1.63994e-05
1.46293e-05
1.37505e-05
1.5139e-05
1.69528e-05
2.14482e-05
2.38053e-05
2.0959e-05
1.69155e-05
1.98931e-05
2.64695e-05
2.55384e-05
1.81246e-05
2.14457e-05
2.64132e-05
2.17377e-05
1.39958e-05
2.13162e-05
2.3571e-05
1.15431e-05
1.70686e-05
3.07614e-05
3.52145e-05
3.94404e-05
4.55245e-05
4.64856e-05
4.02334e-05
3.04976e-05
2.15403e-05
2.68464e-05
2.38834e-05
2.29896e-05
2.38393e-05
2.57414e-05
2.4712e-05
2.07811e-05
1.73177e-05
1.282e-05
9.4051e-06
1.54747e-05
2.01026e-05
1.81791e-05
1.39777e-05
1.44094e-05
1.77285e-05
1.93149e-05
1.90689e-05
1.92836e-05
1.86619e-05
1.44791e-05
8.38291e-06
5.83018e-06
8.40626e-06
1.555e-05
2.35049e-05
2.72558e-05
2.41921e-05
1.26091e-05
8.41679e-06
7.71267e-06
1.41768e-05
2.98774e-05
3.88282e-05
4.43541e-05
4.64144e-05
4.28739e-05
3.7717e-05
3.40549e-05
3.08547e-05
3.10748e-05
3.124e-05
3.04627e-05
2.96503e-05
2.72771e-05
2.35031e-05
1.76494e-05
1.3377e-05
1.54147e-05
1.73087e-05
1.98193e-05
2.30525e-05
2.25258e-05
1.83605e-05
1.37267e-05
9.56642e-06
7.39347e-06
1.03175e-05
1.1774e-05
1.16034e-05
1.1461e-05
1.51601e-05
1.90771e-05
1.79441e-05
1.91641e-05
2.60355e-05
3.24718e-05
3.35382e-05
2.63679e-05
1.51727e-05
1.10583e-05
1.58239e-05
2.79681e-05
3.73356e-05
3.92649e-05
3.44846e-05
2.70244e-05
2.30136e-05
2.4084e-05
2.814e-05
1.89253e-05
2.35246e-05
2.25033e-05
1.84608e-05
1.43348e-05
1.20662e-05
1.21867e-05
1.29899e-05
1.30325e-05
1.2302e-05
1.12577e-05
1.26146e-05
1.39842e-05
1.35232e-05
1.55129e-05
1.95024e-05
2.04946e-05
1.77891e-05
1.40316e-05
1.27536e-05
1.41799e-05
1.35508e-05
1.43726e-05
1.84885e-05
1.84169e-05
2.0539e-05
2.80991e-05
3.16395e-05
2.79918e-05
2.03699e-05
1.4758e-05
1.57567e-05
2.27181e-05
2.88513e-05
2.78477e-05
2.19741e-05
1.77629e-05
1.56095e-05
1.248e-05
1.2317e-05
1.17023e-05
1.1943e-05
1.14689e-05
1.20417e-05
1.30262e-05
1.32614e-05
1.25334e-05
9.82381e-06
8.09226e-06
8.27183e-06
8.10025e-06
1.2077e-05
1.63007e-05
1.77128e-05
2.09106e-05
2.38012e-05
2.1077e-05
1.54905e-05
1.24123e-05
1.33363e-05
1.4009e-05
9.51242e-06
5.41072e-06
1.12194e-05
1.55196e-05
1.85818e-05
1.99686e-05
1.78056e-05
1.24667e-05
8.48427e-06
8.82118e-06
9.85927e-06
1.28245e-05
1.59178e-05
1.65721e-05
1.63472e-05
1.52996e-05
1.21975e-05
9.40101e-06
9.86407e-06
1.42696e-05
1.22723e-05
6.09324e-06
8.27881e-06
1.29672e-05
1.41656e-05
1.41368e-05
1.30272e-05
9.77425e-06
7.64681e-06
9.09706e-06
1.27261e-05
1.55434e-05
1.47238e-05
1.09095e-05
8.76521e-06
1.00598e-05
1.01814e-05
8.53946e-06
1.1117e-05
1.90103e-05
2.42751e-05
2.31598e-05
1.91856e-05
1.79036e-05
1.90826e-05
2.25731e-05
2.66747e-05
2.70316e-05
2.1618e-05
1.25178e-05
4.99286e-06
7.83727e-06
1.11439e-05
1.41692e-05
1.76844e-05
2.0584e-05
2.08774e-05
1.68494e-05
1.33662e-05
5.45421e-05
5.90392e-05
6.47443e-05
7.00097e-05
7.38799e-05
7.63151e-05
7.77362e-05
7.8349e-05
7.82408e-05
7.78229e-05
7.75414e-05
7.70235e-05
7.54053e-05
7.23691e-05
6.87701e-05
6.5779e-05
6.382e-05
6.26084e-05
6.17552e-05
6.12106e-05
6.14967e-05
6.30795e-05
6.57047e-05
6.84679e-05
7.1124e-05
7.42023e-05
7.82573e-05
8.32355e-05
8.76685e-05
8.94181e-05
8.75424e-05
8.3419e-05
7.89318e-05
7.42834e-05
6.86822e-05
6.22605e-05
5.6864e-05
5.37092e-05
5.23117e-05
5.23822e-05
5.41976e-05
5.87745e-05
6.39192e-05
6.87269e-05
7.29074e-05
7.62406e-05
7.85874e-05
7.99537e-05
8.05006e-05
8.05224e-05
8.03438e-05
7.98001e-05
7.83952e-05
7.59198e-05
7.29192e-05
7.01335e-05
6.77959e-05
6.56536e-05
6.36365e-05
6.22259e-05
6.20873e-05
6.32549e-05
6.51582e-05
6.72959e-05
6.99591e-05
7.39573e-05
7.96207e-05
8.61036e-05
9.10618e-05
9.26919e-05
9.10688e-05
8.73145e-05
8.29086e-05
7.88548e-05
7.44773e-05
6.83144e-05
6.08091e-05
5.45779e-05
5.14231e-05
5.14246e-05
5.07563e-05
5.45662e-05
5.93511e-05
6.44417e-05
6.95797e-05
7.41486e-05
7.75517e-05
7.96821e-05
8.08375e-05
8.12418e-05
8.12224e-05
8.10406e-05
8.05706e-05
7.93509e-05
7.72272e-05
7.45699e-05
7.16879e-05
6.85372e-05
6.52564e-05
6.25663e-05
6.12348e-05
6.13021e-05
6.2167e-05
6.35303e-05
6.57175e-05
6.95973e-05
7.55281e-05
8.27839e-05
8.89943e-05
9.23088e-05
9.2814e-05
9.07761e-05
8.7081e-05
8.38099e-05
8.12795e-05
7.66508e-05
6.78127e-05
5.77293e-05
5.11202e-05
4.91439e-05
4.57415e-05
4.76693e-05
5.17428e-05
5.72203e-05
6.34943e-05
6.95673e-05
7.43251e-05
7.73143e-05
7.89909e-05
7.97236e-05
7.98869e-05
8.0153e-05
8.0832e-05
8.12386e-05
8.05186e-05
7.85526e-05
7.5571e-05
7.16674e-05
6.71073e-05
6.27377e-05
5.9535e-05
5.78054e-05
5.71211e-05
5.71912e-05
5.81144e-05
6.05326e-05
6.50676e-05
7.17857e-05
7.91367e-05
8.51418e-05
8.92688e-05
9.08644e-05
8.92276e-05
8.68486e-05
8.62537e-05
8.48129e-05
7.74723e-05
6.47746e-05
5.33506e-05
4.71883e-05
4.25687e-05
4.027e-05
4.20085e-05
4.68167e-05
5.35809e-05
6.09877e-05
6.74067e-05
7.15664e-05
7.37168e-05
7.46767e-05
7.50456e-05
7.56932e-05
7.72896e-05
7.91792e-05
8.01577e-05
7.97747e-05
7.79242e-05
7.43376e-05
6.91188e-05
6.31475e-05
5.77369e-05
5.3647e-05
5.07851e-05
4.88722e-05
4.77857e-05
4.77746e-05
4.94529e-05
5.35443e-05
6.00277e-05
6.76986e-05
7.57674e-05
8.29789e-05
8.60351e-05
8.53999e-05
8.61008e-05
8.848e-05
8.61322e-05
7.52563e-05
6.07921e-05
4.93686e-05
4.73972e-05
3.7779e-05
3.39557e-05
3.52339e-05
3.99532e-05
4.7099e-05
5.49417e-05
6.08862e-05
6.37846e-05
6.48079e-05
6.54086e-05
6.6513e-05
6.86339e-05
7.12593e-05
7.3294e-05
7.48416e-05
7.57724e-05
7.4679e-05
7.06492e-05
6.42096e-05
5.6982e-05
5.04787e-05
4.51306e-05
4.08523e-05
3.79116e-05
3.66216e-05
3.65355e-05
3.77031e-05
4.08929e-05
4.47038e-05
5.08974e-05
6.25438e-05
7.32916e-05
7.69793e-05
7.82773e-05
8.32421e-05
8.76514e-05
8.38249e-05
7.22718e-05
5.93346e-05
6.29411e-05
4.74985e-05
3.33782e-05
2.85432e-05
2.89229e-05
3.16606e-05
3.73703e-05
4.42618e-05
4.82995e-05
4.91021e-05
4.95926e-05
5.15707e-05
5.44877e-05
5.71218e-05
5.85086e-05
6.0337e-05
6.45452e-05
6.87013e-05
6.93719e-05
6.54896e-05
5.81561e-05
4.98281e-05
4.24553e-05
3.65564e-05
3.272e-05
3.18118e-05
3.33313e-05
3.35145e-05
3.21036e-05
3.19228e-05
3.07585e-05
3.443e-05
4.90068e-05
5.99224e-05
6.22365e-05
6.65653e-05
7.60398e-05
8.17991e-05
7.93556e-05
7.26389e-05
7.74568e-05
6.81024e-05
4.57177e-05
2.88378e-05
2.60856e-05
2.7464e-05
2.71543e-05
2.75372e-05
3.14576e-05
3.20732e-05
2.96279e-05
3.06416e-05
3.55547e-05
3.90669e-05
3.82209e-05
3.61201e-05
4.06238e-05
5.12175e-05
6.05037e-05
6.417e-05
6.07348e-05
5.21497e-05
4.32457e-05
3.66648e-05
3.27988e-05
3.26459e-05
3.72703e-05
4.21149e-05
3.83515e-05
3.00796e-05
2.42081e-05
2.19246e-05
2.58799e-05
3.82211e-05
4.14402e-05
3.87706e-05
4.63459e-05
6.07833e-05
7.06822e-05
7.55684e-05
7.31332e-05
8.24962e-05
6.8209e-05
3.99524e-05
2.49577e-05
2.79542e-05
3.18266e-05
2.73807e-05
2.01814e-05
2.22834e-05
2.00114e-05
1.41916e-05
1.52901e-05
2.10038e-05
2.36212e-05
1.78285e-05
1.50871e-05
2.29652e-05
3.91777e-05
5.47736e-05
6.11225e-05
5.62247e-05
4.6208e-05
3.84957e-05
3.38295e-05
3.10251e-05
3.32633e-05
4.16719e-05
4.55829e-05
3.72867e-05
2.71815e-05
1.86725e-05
1.94472e-05
2.18499e-05
2.51015e-05
1.69056e-05
1.53296e-05
2.10578e-05
3.52095e-05
5.40771e-05
4.02741e-05
7.26885e-05
8.30618e-05
6.25059e-05
3.33525e-05
2.27054e-05
3.07523e-05
3.58496e-05
2.75808e-05
1.64147e-05
1.90007e-05
1.31796e-05
9.7339e-06
1.43646e-05
1.60475e-05
1.69056e-05
1.31583e-05
2.01748e-05
1.88038e-05
3.01954e-05
5.05947e-05
5.69825e-05
4.92711e-05
3.96889e-05
3.3116e-05
2.63879e-05
2.43948e-05
3.27504e-05
4.36991e-05
4.16862e-05
3.20112e-05
2.35822e-05
1.59245e-05
1.66215e-05
1.5162e-05
1.99183e-05
1.71019e-05
2.15293e-05
2.16023e-05
1.78597e-05
2.21508e-05
3.72083e-05
7.3285e-05
7.68279e-05
5.33981e-05
2.66147e-05
2.11147e-05
3.24719e-05
3.70788e-05
2.6269e-05
1.47044e-05
1.60331e-05
1.02777e-05
1.7706e-05
1.96177e-05
1.44621e-05
1.48744e-05
1.85048e-05
2.91044e-05
2.34594e-05
2.42207e-05
4.29304e-05
4.60621e-05
3.81181e-05
2.99034e-05
2.08496e-05
1.58735e-05
2.46415e-05
3.43186e-05
4.02698e-05
3.1972e-05
2.54954e-05
1.61119e-05
1.07025e-05
1.61568e-05
2.23937e-05
3.05824e-05
2.31484e-05
1.95069e-05
2.95602e-05
3.23323e-05
1.88049e-05
4.21529e-05
7.00846e-05
6.47969e-05
4.26052e-05
2.12534e-05
2.2014e-05
3.22789e-05
3.40439e-05
2.36237e-05
1.65348e-05
1.53385e-05
1.29756e-05
1.90467e-05
1.94911e-05
1.75359e-05
1.59764e-05
1.95237e-05
3.05612e-05
2.50434e-05
1.68877e-05
2.84661e-05
2.95923e-05
2.50062e-05
1.94017e-05
1.25104e-05
1.97862e-05
2.51495e-05
3.10073e-05
2.89063e-05
2.21782e-05
1.6659e-05
6.44369e-06
1.23749e-05
1.96163e-05
2.66371e-05
3.60922e-05
3.0049e-05
2.04061e-05
2.77114e-05
2.93617e-05
1.09771e-05
4.87479e-05
6.30415e-05
5.14859e-05
3.21544e-05
1.97289e-05
2.32918e-05
2.97327e-05
2.83489e-05
2.16172e-05
1.79582e-05
1.40307e-05
1.3055e-05
1.86905e-05
2.13705e-05
2.03691e-05
1.60837e-05
1.72256e-05
2.66515e-05
2.3408e-05
1.07775e-05
7.59655e-06
1.5015e-05
2.06726e-05
1.76379e-05
1.20766e-05
1.86056e-05
2.15143e-05
2.57916e-05
1.7747e-05
1.56234e-05
1.20136e-05
9.08432e-06
1.52868e-05
1.82609e-05
2.02891e-05
3.10465e-05
2.93253e-05
2.21001e-05
2.87392e-05
1.90428e-05
2.2888e-05
5.36835e-05
5.60997e-05
4.20028e-05
2.73557e-05
2.1847e-05
2.40417e-05
2.56187e-05
2.25077e-05
1.95683e-05
1.76414e-05
1.49978e-05
1.73168e-05
2.15111e-05
2.20509e-05
1.88467e-05
1.16495e-05
1.458e-05
2.52727e-05
2.32131e-05
1.56071e-05
1.6883e-05
1.80703e-05
1.98506e-05
1.51316e-05
1.25523e-05
1.52701e-05
2.37485e-05
1.96044e-05
1.37239e-05
1.48597e-05
1.62616e-05
1.19697e-05
1.17281e-05
1.09977e-05
1.44047e-05
2.28422e-05
1.67822e-05
1.94396e-05
2.59507e-05
8.35744e-06
3.97331e-05
5.85273e-05
5.16365e-05
3.71971e-05
2.83879e-05
2.62451e-05
2.64023e-05
2.4351e-05
2.21453e-05
2.191e-05
2.10341e-05
2.0284e-05
2.18412e-05
2.17885e-05
1.97657e-05
1.73825e-05
1.58968e-05
1.63274e-05
1.67479e-05
2.20096e-05
2.42312e-05
1.58638e-05
1.1412e-05
1.44548e-05
1.29263e-05
1.21605e-05
1.95939e-05
2.27648e-05
1.67273e-05
1.47941e-05
1.66707e-05
1.54573e-05
1.12752e-05
9.42626e-06
8.84063e-06
1.53992e-05
1.84723e-05
2.06823e-05
2.64037e-05
2.39013e-05
1.62385e-05
5.3123e-05
6.54249e-05
5.68619e-05
4.56342e-05
3.80518e-05
3.35026e-05
2.9477e-05
2.53576e-05
2.51489e-05
2.69839e-05
2.63297e-05
2.31555e-05
2.0111e-05
1.95166e-05
1.8956e-05
1.67654e-05
1.59756e-05
1.82107e-05
2.32389e-05
2.1818e-05
1.16708e-05
1.02385e-05
1.62618e-05
1.52e-05
1.29691e-05
1.55371e-05
2.18392e-05
1.89568e-05
1.50975e-05
1.30094e-05
1.31954e-05
1.43297e-05
1.78002e-05
1.59923e-05
9.3463e-06
1.87466e-05
2.27435e-05
2.38751e-05
2.80864e-05
2.28719e-05
2.05545e-05
5.29319e-05
7.0802e-05
7.07605e-05
5.96469e-05
4.51259e-05
3.38897e-05
2.68191e-05
2.37848e-05
2.42036e-05
2.59887e-05
2.44023e-05
2.06598e-05
2.127e-05
2.14037e-05
1.72576e-05
1.29518e-05
1.42872e-05
1.66681e-05
1.40431e-05
9.43103e-06
1.33468e-05
2.05056e-05
2.17062e-05
1.65529e-05
1.50034e-05
1.91817e-05
2.16655e-05
1.8404e-05
1.56529e-05
1.50202e-05
1.61128e-05
1.78064e-05
2.03697e-05
1.86842e-05
2.35026e-05
2.93104e-05
3.04536e-05
2.68863e-05
2.34147e-05
2.24986e-05
2.21591e-05
3.80311e-05
5.91341e-05
6.74137e-05
5.73986e-05
3.94294e-05
2.5098e-05
1.87113e-05
1.87996e-05
1.86752e-05
1.42637e-05
1.60641e-05
2.44016e-05
2.50602e-05
1.96483e-05
1.77637e-05
1.93909e-05
1.55808e-05
8.49003e-06
7.40795e-06
1.28345e-05
2.19357e-05
2.92812e-05
2.72833e-05
2.03091e-05
1.77215e-05
1.90338e-05
2.27549e-05
2.48572e-05
2.1854e-05
1.69002e-05
1.46648e-05
1.36978e-05
1.60729e-05
2.47273e-05
2.68526e-05
2.64235e-05
2.44955e-05
1.96951e-05
1.56085e-05
2.24097e-05
2.76265e-05
2.22108e-05
3.32639e-05
5.04094e-05
4.99276e-05
3.81162e-05
2.50441e-05
1.35122e-05
5.62697e-06
9.10887e-06
1.258e-05
1.45925e-05
1.99769e-05
2.77255e-05
3.22633e-05
2.97443e-05
2.1076e-05
1.41691e-05
1.53113e-05
1.67896e-05
1.52473e-05
1.94946e-05
2.38564e-05
2.05795e-05
1.87903e-05
2.13274e-05
2.68972e-05
3.43903e-05
3.65188e-05
3.02842e-05
2.04296e-05
1.49996e-05
1.87049e-05
1.55658e-05
1.47276e-05
1.61882e-05
2.0901e-05
2.30843e-05
2.03187e-05
1.71053e-05
2.03186e-05
2.55228e-05
2.35365e-05
1.94651e-05
2.43086e-05
2.60729e-05
2.1297e-05
1.84395e-05
1.81402e-05
1.55716e-05
1.56271e-05
1.90788e-05
2.24885e-05
3.00153e-05
3.64139e-05
3.28801e-05
2.00981e-05
9.55343e-06
1.46263e-05
2.06965e-05
2.32517e-05
1.89746e-05
1.26055e-05
1.24296e-05
1.66308e-05
2.41327e-05
3.07012e-05
3.57234e-05
3.78381e-05
3.66371e-05
3.28049e-05
2.5173e-05
1.74115e-05
2.13283e-05
1.51722e-05
1.54974e-05
1.88302e-05
2.10726e-05
2.02127e-05
1.75385e-05
1.61507e-05
1.70233e-05
1.67129e-05
1.50794e-05
1.64301e-05
1.62999e-05
1.21524e-05
1.01705e-05
1.30676e-05
1.5095e-05
1.73627e-05
2.3101e-05
2.88181e-05
2.85157e-05
2.34772e-05
1.94909e-05
1.31325e-05
4.18717e-06
1.01253e-05
2.0934e-05
2.8312e-05
2.83241e-05
2.29216e-05
1.92239e-05
1.79074e-05
2.1375e-05
2.58039e-05
2.59823e-05
2.48365e-05
2.90573e-05
3.51386e-05
3.56208e-05
2.96317e-05
2.94422e-05
2.71441e-05
2.44171e-05
2.17931e-05
1.81309e-05
1.36842e-05
1.33528e-05
1.48587e-05
1.20569e-05
1.16952e-05
1.73649e-05
2.25443e-05
2.38477e-05
2.08512e-05
1.58158e-05
1.04589e-05
8.17555e-06
1.1661e-05
1.44282e-05
1.69725e-05
2.0351e-05
1.80777e-05
1.16853e-05
9.92052e-06
7.53248e-06
6.58682e-06
1.62184e-05
2.50211e-05
2.91931e-05
2.75041e-05
2.25509e-05
2.01226e-05
2.11087e-05
2.19831e-05
1.89111e-05
1.50021e-05
1.7039e-05
2.1426e-05
2.62735e-05
2.95432e-05
1.52925e-05
1.75208e-05
1.59598e-05
1.31029e-05
1.244e-05
1.20741e-05
9.89212e-06
8.93758e-06
1.25904e-05
1.49363e-05
1.59799e-05
1.84521e-05
2.11929e-05
2.2628e-05
2.22815e-05
2.14675e-05
2.12374e-05
2.27354e-05
2.5421e-05
2.5488e-05
2.16742e-05
1.78602e-05
1.48719e-05
1.0286e-05
6.4572e-06
8.1903e-06
9.73094e-06
1.04689e-05
1.6347e-05
2.21659e-05
2.17705e-05
1.94891e-05
1.97524e-05
1.78784e-05
1.38399e-05
1.22267e-05
9.49945e-06
4.75485e-06
6.45714e-06
1.08792e-05
1.34204e-05
1.25654e-05
1.07121e-05
1.10776e-05
1.13378e-05
1.0453e-05
1.04983e-05
1.11486e-05
1.19811e-05
1.13887e-05
8.61758e-06
9.27361e-06
1.29256e-05
1.30842e-05
1.30628e-05
1.59986e-05
1.62623e-05
1.27845e-05
9.96281e-06
1.22993e-05
1.64661e-05
1.7011e-05
1.35743e-05
1.14572e-05
1.12127e-05
1.25284e-05
1.9173e-05
2.5536e-05
2.68684e-05
2.41646e-05
1.96496e-05
1.46163e-05
1.21506e-05
1.28805e-05
1.50174e-05
1.66794e-05
1.60413e-05
1.28891e-05
9.81e-06
1.11895e-05
6.65156e-06
7.74205e-06
7.21624e-06
1.29764e-05
1.73758e-05
1.82029e-05
1.7337e-05
1.63148e-05
1.79349e-05
2.09578e-05
2.28249e-05
2.39378e-05
2.46745e-05
2.27412e-05
1.76268e-05
1.26743e-05
1.32152e-05
1.48892e-05
1.26457e-05
9.61809e-06
1.35165e-05
1.74346e-05
1.78436e-05
1.82799e-05
1.81397e-05
1.68173e-05
2.32619e-05
3.12244e-05
3.05624e-05
2.4067e-05
2.0254e-05
1.8187e-05
1.69281e-05
1.88026e-05
2.28173e-05
2.55841e-05
2.42952e-05
2.0854e-05
1.55127e-05
8.03671e-06
4.36969e-05
4.52227e-05
4.80719e-05
5.20742e-05
5.67323e-05
6.11532e-05
6.47454e-05
6.72754e-05
6.87497e-05
6.95578e-05
7.01873e-05
7.05504e-05
7.01351e-05
6.88823e-05
6.76713e-05
6.72947e-05
6.74905e-05
6.76604e-05
6.76798e-05
6.76601e-05
6.79037e-05
6.87453e-05
6.96987e-05
7.01382e-05
7.05648e-05
7.17216e-05
7.40056e-05
7.77546e-05
8.21094e-05
8.49503e-05
8.54097e-05
8.43037e-05
8.21593e-05
7.81361e-05
7.08995e-05
6.12155e-05
5.24366e-05
4.68034e-05
4.39586e-05
4.32028e-05
4.27243e-05
4.40221e-05
4.67538e-05
5.07064e-05
5.54086e-05
6.03192e-05
6.48555e-05
6.85327e-05
7.11339e-05
7.28572e-05
7.38653e-05
7.40903e-05
7.3504e-05
7.2512e-05
7.18488e-05
7.17356e-05
7.15969e-05
7.09879e-05
7.01113e-05
6.94345e-05
6.93652e-05
6.98613e-05
7.02439e-05
7.01511e-05
7.03371e-05
7.18017e-05
7.50246e-05
7.98329e-05
8.47824e-05
8.80232e-05
8.89696e-05
8.81155e-05
8.61112e-05
8.30099e-05
7.76744e-05
6.90667e-05
5.84606e-05
4.96114e-05
4.47035e-05
4.28597e-05
4.03653e-05
4.08469e-05
4.31666e-05
4.70733e-05
5.21062e-05
5.77871e-05
6.33983e-05
6.82868e-05
7.21382e-05
7.48943e-05
7.65223e-05
7.70987e-05
7.6966e-05
7.6624e-05
7.64979e-05
7.65304e-05
7.61124e-05
7.48221e-05
7.29281e-05
7.10142e-05
6.9677e-05
6.9047e-05
6.86092e-05
6.79567e-05
6.76293e-05
6.87653e-05
7.2006e-05
7.7197e-05
8.28955e-05
8.73907e-05
8.98784e-05
9.0176e-05
8.89507e-05
8.75435e-05
8.5482e-05
7.97751e-05
6.8339e-05
5.51126e-05
4.59888e-05
4.17424e-05
3.75393e-05
3.66321e-05
3.83061e-05
4.20963e-05
4.73742e-05
5.36413e-05
6.0136e-05
6.60985e-05
7.11618e-05
7.50658e-05
7.76228e-05
7.8939e-05
7.95975e-05
8.01823e-05
8.08896e-05
8.14375e-05
8.11555e-05
7.95998e-05
7.68816e-05
7.33707e-05
6.98135e-05
6.69632e-05
6.48695e-05
6.31351e-05
6.18602e-05
6.20672e-05
6.44757e-05
6.93264e-05
7.54565e-05
8.13421e-05
8.62393e-05
8.87974e-05
8.87188e-05
8.86687e-05
9.01048e-05
8.9408e-05
8.06259e-05
6.45467e-05
4.96872e-05
4.1226e-05
3.60377e-05
3.25869e-05
3.2789e-05
3.59887e-05
4.11022e-05
4.74205e-05
5.42366e-05
6.074e-05
6.65399e-05
7.14146e-05
7.51467e-05
7.76096e-05
7.92609e-05
8.08017e-05
8.25404e-05
8.41119e-05
8.47473e-05
8.39126e-05
8.13952e-05
7.692e-05
7.09052e-05
6.47379e-05
5.95423e-05
5.55366e-05
5.25633e-05
5.11764e-05
5.20869e-05
5.58896e-05
6.16305e-05
6.77664e-05
7.49642e-05
8.13085e-05
8.3267e-05
8.35724e-05
8.73571e-05
9.28876e-05
9.1378e-05
7.76424e-05
5.83548e-05
4.37667e-05
3.84038e-05
3.07728e-05
2.79452e-05
2.97385e-05
3.4243e-05
3.9715e-05
4.55981e-05
5.14466e-05
5.68398e-05
6.18159e-05
6.65223e-05
7.05177e-05
7.34479e-05
7.57387e-05
7.80677e-05
8.04869e-05
8.25309e-05
8.37624e-05
8.34879e-05
8.01949e-05
7.31984e-05
6.39516e-05
5.46345e-05
4.67984e-05
4.10987e-05
3.79929e-05
3.80298e-05
4.14534e-05
4.65764e-05
5.02616e-05
5.51075e-05
6.5237e-05
7.13454e-05
7.09944e-05
7.40693e-05
8.48748e-05
9.4144e-05
8.99427e-05
7.21592e-05
5.19495e-05
4.66978e-05
3.38452e-05
2.63281e-05
2.48704e-05
2.88066e-05
3.36514e-05
3.74475e-05
4.05061e-05
4.29296e-05
4.51649e-05
4.88632e-05
5.4197e-05
5.9132e-05
6.2444e-05
6.44231e-05
6.60361e-05
6.8421e-05
7.22323e-05
7.64524e-05
7.79704e-05
7.36489e-05
6.4045e-05
5.21246e-05
4.0947e-05
3.29743e-05
2.89038e-05
2.84973e-05
3.21087e-05
3.72715e-05
4.03988e-05
3.92339e-05
4.31998e-05
5.37048e-05
5.31194e-05
5.00567e-05
6.11346e-05
8.13963e-05
9.28481e-05
8.60531e-05
6.62866e-05
6.15787e-05
4.31602e-05
3.11491e-05
2.36151e-05
2.38833e-05
2.96693e-05
3.35755e-05
3.39454e-05
3.25565e-05
3.03169e-05
2.90253e-05
3.10634e-05
3.5323e-05
3.96184e-05
4.07469e-05
3.75927e-05
3.48039e-05
3.82697e-05
4.93713e-05
6.14413e-05
6.5531e-05
6.04114e-05
5.02341e-05
3.97272e-05
3.23741e-05
2.89238e-05
2.90384e-05
3.26266e-05
3.6776e-05
3.81521e-05
3.4745e-05
3.20278e-05
3.57459e-05
3.84523e-05
2.60576e-05
2.4427e-05
4.6766e-05
7.6095e-05
8.93777e-05
8.19362e-05
7.87751e-05
5.82523e-05
4.20594e-05
3.13319e-05
2.21441e-05
2.2914e-05
3.05133e-05
3.32641e-05
3.02255e-05
2.57955e-05
2.18116e-05
2.09604e-05
2.15891e-05
2.08163e-05
1.89105e-05
1.56622e-05
1.97947e-05
2.61589e-05
2.26578e-05
2.51006e-05
4.14756e-05
4.76984e-05
4.43275e-05
3.82581e-05
3.42585e-05
3.43069e-05
3.64435e-05
3.78575e-05
3.71433e-05
3.86154e-05
3.92754e-05
2.79316e-05
2.65025e-05
2.85058e-05
2.41571e-05
8.99849e-06
1.65797e-05
3.48007e-05
6.97344e-05
8.63751e-05
8.41527e-05
7.457e-05
5.51099e-05
4.36201e-05
3.34931e-05
1.98401e-05
2.26536e-05
3.282e-05
3.44063e-05
2.88551e-05
2.30452e-05
1.8597e-05
1.88141e-05
2.01837e-05
1.91907e-05
1.9428e-05
2.18615e-05
2.84005e-05
3.65568e-05
3.02515e-05
1.61745e-05
2.75361e-05
3.43708e-05
3.3605e-05
3.18897e-05
3.35582e-05
3.73773e-05
3.83383e-05
3.35628e-05
2.59254e-05
3.25814e-05
3.14552e-05
1.95586e-05
2.04229e-05
2.48015e-05
1.87695e-05
1.46862e-05
2.33018e-05
2.5438e-05
6.4837e-05
6.27405e-05
7.90834e-05
6.68197e-05
5.24005e-05
4.59256e-05
3.31665e-05
1.66821e-05
2.52682e-05
3.56707e-05
3.59454e-05
3.00066e-05
2.26668e-05
1.58707e-05
1.70574e-05
2.14876e-05
1.98247e-05
1.2248e-05
6.64097e-06
1.43766e-05
2.74822e-05
2.26014e-05
1.20778e-05
2.52144e-05
3.0296e-05
3.00078e-05
3.00988e-05
3.00345e-05
2.98443e-05
2.77554e-05
2.05541e-05
1.16268e-05
2.24914e-05
1.57473e-05
2.02494e-05
1.38393e-05
2.31077e-05
1.68749e-05
2.20717e-05
2.92897e-05
2.23048e-05
2.62748e-05
6.13833e-05
7.06295e-05
5.77909e-05
4.9172e-05
4.40143e-05
2.86522e-05
1.66818e-05