/*--------------------------------*- C++ -*----------------------------------*\
| =========                 |                                                 |
| \\      /  F ield         | OpenFOAM: The Open Source CFD Toolbox           |
|  \\    /   O peration     | Version:  2306                                  |
|   \\  /    A nd           | Website:  www.openfoam.com                      |
|    \\/     M anipulation  |                                                 |
\*---------------------------------------------------------------------------*/
FoamFile
{
    version     2.0;
    format      ascii;
    arch        "LSB;label=32;scalar=64";
    class       volScalarField;
    location    "7";
    object      p;
}
// * * * * * * * * * * * * * * * * * * * * * * * * * * * * * * * * * * * * * //

dimensions      [0 2 -2 0 0 0 0];

internalField   nonuniform List<scalar> 
60000
(
-8.54536e-05
-6.76529e-05
-4.49512e-05
-5.32332e-05
-9.83417e-05
-0.000142552
-0.000162956
-0.00016532
-0.00016767
-0.000166748
-0.000157582
-0.000143042
-0.000135511
-0.000142964
-0.000147294
-0.000125809
-8.45131e-05
-4.27577e-05
-1.97003e-05
-2.43672e-05
-4.58302e-05
-7.10756e-05
-0.000113816
-0.000177025
-0.000244042
-0.00028359
-0.000262495
-0.000178129
-7.2615e-05
-1.20421e-05
-1.46124e-05
-5.66894e-05
-9.53196e-05
-8.89748e-05
-3.95482e-05
1.05988e-05
3.30094e-05
1.71112e-05
-2.81861e-05
-7.10295e-05
-8.43665e-05
-6.66542e-05
-4.36446e-05
-5.17939e-05
-9.74909e-05
-0.000142834
-0.000164038
-0.000166295
-0.000168309
-0.000167092
-0.000157881
-0.000143552
-0.000136285
-0.000143865
-0.000148303
-0.000126833
-8.55161e-05
-4.36722e-05
-2.02632e-05
-2.43872e-05
-4.54469e-05
-7.02928e-05
-0.000112691
-0.00017619
-0.000243997
-0.000284697
-0.000264553
-0.000180479
-7.45419e-05
-1.33558e-05
-1.55686e-05
-5.72444e-05
-9.62725e-05
-9.03932e-05
-4.07452e-05
1.01612e-05
3.33428e-05
1.81436e-05
-2.69229e-05
-6.96785e-05
-8.40726e-05
-6.59093e-05
-4.26675e-05
-5.06436e-05
-9.76568e-05
-0.000145052
-0.000167528
-0.000169259
-0.000170275
-0.000168143
-0.000158547
-0.000144152
-0.000136854
-0.000144714
-0.000149725
-0.000128616
-8.72976e-05
-4.50737e-05
-2.07611e-05
-2.38981e-05
-4.43788e-05
-6.87489e-05
-0.000111504
-0.000175853
-0.000244987
-0.000286995
-0.000267482
-0.000182964
-7.59856e-05
-1.43399e-05
-1.60379e-05
-5.83403e-05
-9.83378e-05
-9.32466e-05
-4.30898e-05
8.92699e-06
3.31436e-05
1.89547e-05
-2.57917e-05
-6.8696e-05
-8.45374e-05
-6.62675e-05
-4.16786e-05
-4.95136e-05
-9.8845e-05
-0.000149657
-0.000174273
-0.000175153
-0.000174434
-0.00017041
-0.000159751
-0.000144831
-0.000137161
-0.000145341
-0.000151307
-0.000130978
-8.9882e-05
-4.70576e-05
-2.11547e-05
-2.26648e-05
-4.23685e-05
-6.71414e-05
-0.000110221
-0.00017619
-0.000246957
-0.000290579
-0.000271223
-0.000185262
-7.63064e-05
-1.45688e-05
-1.70187e-05
-6.05931e-05
-0.000101977
-9.80871e-05
-4.6342e-05
7.01105e-06
3.22147e-05
1.93802e-05
-2.49046e-05
-6.84016e-05
-8.55423e-05
-6.65526e-05
-3.93111e-05
-4.76679e-05
-0.000100291
-0.000155712
-0.000183972
-0.000184282
-0.000181429
-0.000174421
-0.000161739
-0.000145632
-0.000137053
-0.000145237
-0.000152262
-0.000133176
-9.30076e-05
-4.99904e-05
-2.1953e-05
-2.08313e-05
-3.92007e-05
-6.43496e-05
-0.000108463
-0.000176893
-0.000249505
-0.000295738
-0.00027687
-0.000189753
-7.81623e-05
-1.52601e-05
-1.84618e-05
-6.43612e-05
-0.000107412
-0.000103892
-4.98075e-05
5.1028e-06
3.06787e-05
1.88853e-05
-2.41715e-05
-6.83696e-05
-8.66325e-05
-6.76598e-05
-3.64859e-05
-4.2351e-05
-0.000106077
-0.000163639
-0.000195858
-0.000196137
-0.000191457
-0.000180511
-0.000164867
-0.000146914
-0.000136697
-0.000144227
-0.000151781
-0.000133915
-9.56025e-05
-5.36636e-05
-2.36379e-05
-1.87286e-05
-3.46513e-05
-5.97811e-05
-0.000105895
-0.00017751
-0.000252992
-0.000303168
-0.000287801
-0.000199378
-8.53754e-05
-2.27025e-05
-2.39514e-05
-6.69811e-05
-0.000114758
-0.000110873
-5.29327e-05
4.35903e-06
2.94156e-05
1.83718e-05
-2.32657e-05
-6.81694e-05
-8.96615e-05
-7.25265e-05
-3.50519e-05
-3.28712e-05
-9.92674e-05
-0.000174583
-0.000213986
-0.000211754
-0.000205023
-0.000188564
-0.000168536
-0.000148653
-0.000136912
-0.000142784
-0.00014991
-0.000132387
-9.61757e-05
-5.69558e-05
-2.61492e-05
-1.6666e-05
-2.86132e-05
-5.27462e-05
-0.000101583
-0.000177314
-0.00025749
-0.000312866
-0.000302664
-0.000212644
-9.57085e-05
-3.42223e-05
-3.73217e-05
-7.93825e-05
-0.000125726
-0.000119669
-5.61667e-05
5.05221e-06
2.96216e-05
1.80317e-05
-2.16367e-05
-6.71727e-05
-9.22427e-05
-8.21465e-05
-3.9738e-05
-2.18299e-05
-8.40058e-05
-0.000176986
-0.000234932
-0.000235941
-0.00022631
-0.000201133
-0.000172816
-0.00014969
-0.000137527
-0.000143118
-0.000148467
-0.000129005
-9.3998e-05
-5.80861e-05
-2.8478e-05
-1.4787e-05
-2.13333e-05
-4.28503e-05
-9.48081e-05
-0.000176233
-0.000260405
-0.000318121
-0.000310055
-0.000217912
-9.58387e-05
-3.3386e-05
-4.72194e-05
-9.66424e-05
-0.000144197
-0.000134345
-6.31636e-05
3.45153e-06
3.05282e-05
2.06872e-05
-1.71209e-05
-6.31661e-05
-8.86672e-05
-9.01355e-05
-4.90283e-05
-1.2306e-05
-6.23255e-05
-0.000169612
-0.000251367
-0.000262147
-0.000256571
-0.000221097
-0.000181754
-0.000152137
-0.000137685
-0.000144031
-0.000151042
-0.000130032
-9.11317e-05
-5.4967e-05
-2.77205e-05
-1.21625e-05
-1.36205e-05
-3.09097e-05
-8.5902e-05
-0.000175343
-0.00026247
-0.000316658
-0.000301437
-0.000201089
-7.26472e-05
-1.11614e-05
-3.9645e-05
-0.000109473
-0.000170272
-0.000158694
-7.46649e-05
-3.80672e-08
2.55757e-05
1.63776e-05
-1.40086e-05
-5.49985e-05
-7.86381e-05
-8.77908e-05
-5.56438e-05
-3.52355e-06
-3.28203e-05
-0.00015019
-0.000258247
-0.00030083
-0.000294331
-0.000250846
-0.000194106
-0.000156979
-0.000141108
-0.000146067
-0.000152782
-0.000134427
-9.75213e-05
-5.93035e-05
-2.329e-05
-6.42918e-06
-6.12673e-06
-1.95774e-05
-7.70891e-05
-0.000175527
-0.000266138
-0.000313373
-0.000283634
-0.000166177
-2.56658e-05
3.8227e-05
-1.20343e-05
-0.000111706
-0.00019588
-0.000191628
-9.36968e-05
-6.69612e-06
1.82294e-05
9.23441e-06
-1.63385e-05
-4.97568e-05
-5.68428e-05
-7.25531e-05
-5.64515e-05
2.75746e-06
1.06999e-06
-0.000111925
-0.000246418
-0.00032362
-0.000338776
-0.000293355
-0.000214335
-0.000161608
-0.000143028
-0.000148977
-0.000155572
-0.00013949
-0.000106767
-7.55025e-05
-3.74268e-05
-7.09093e-06
-1.46579e-06
-1.19891e-05
-7.11834e-05
-0.000175675
-0.000272574
-0.000314421
-0.000270654
-0.000136531
2.04592e-05
0.000101984
3.7986e-05
-9.6341e-05
-0.000213118
-0.000224503
-0.000120143
-2.63582e-05
2.98209e-06
-1.43816e-06
-1.69415e-05
-4.05034e-05
-2.1795e-05
-3.33483e-05
-4.66018e-05
3.93195e-06
2.73303e-05
-6.25646e-05
-0.000207147
-0.000318008
-0.00036708
-0.000332115
-0.000246328
-0.000170439
-0.000142925
-0.000147791
-0.000156048
-0.000142319
-0.000116331
-8.93379e-05
-5.93262e-05
-3.08279e-05
-7.30779e-06
-1.79906e-05
-7.21952e-05
-0.000172843
-0.000271908
-0.000309304
-0.00026039
-0.000133438
3.06825e-05
0.000147982
9.73015e-05
-5.36213e-05
-0.000203121
-0.000239905
-0.000145169
-5.43896e-05
-2.0255e-05
-1.76396e-05
-1.90734e-05
-2.50656e-05
3.43297e-06
7.41869e-06
-9.19534e-06
1.23703e-06
3.73161e-05
-1.83012e-05
-0.000150523
-0.00028065
-0.000364853
-0.000365284
-0.000280565
-0.000185725
-0.000143931
-0.000143983
-0.000154998
-0.000142231
-0.000119474
-9.74503e-05
-7.27543e-05
-5.33409e-05
-4.39266e-05
-4.98469e-05
-8.88688e-05
-0.00016831
-0.000253358
-0.000285464
-0.000241765
-0.000138393
3.71421e-06
0.000154089
0.000137752
9.20131e-06
-0.000155296
-0.000216413
-0.000158576
-8.16662e-05
-4.38393e-05
-2.97484e-05
-2.5164e-05
-2.20359e-05
9.78622e-06
3.00805e-05
1.24193e-05
-1.04158e-06
3.16965e-05
1.30737e-05
-8.94827e-05
-0.000221377
-0.000331576
-0.00037063
-0.000309557
-0.00020239
-0.000145395
-0.00013889
-0.000154538
-0.000147159
-0.000119248
-0.000100013
-7.75296e-05
-6.04023e-05
-6.81828e-05
-9.74382e-05
-0.000108765
-0.000160194
-0.000230298
-0.000252992
-0.000223672
-0.000140235
-2.77275e-05
0.000125765
0.000141118
6.1399e-05
-8.40792e-05
-0.000164264
-0.000151295
-0.00010262
-6.60197e-05
-4.40531e-05
-3.48343e-05
-2.61713e-05
-6.34248e-06
3.26983e-05
1.73928e-05
-7.08707e-06
1.62832e-05
3.40976e-05
-3.41607e-05
-0.000154461
-0.00027617
-0.000345467
-0.000316031
-0.000217144
-0.00014578
-0.000135887
-0.000150879
-0.000155096
-0.000132101
-0.000105766
-7.82392e-05
-5.72313e-05
-7.20527e-05
-0.000107377
-0.000115222
-0.000146736
-0.000206874
-0.000235366
-0.000206096
-0.000138236
-5.90126e-05
6.88988e-05
0.000118408
8.3864e-05
-2.51176e-05
-0.000106347
-0.000129232
-0.000116214
-8.48309e-05
-6.073e-05
-4.80108e-05
-3.52857e-05
-3.00916e-06
2.85738e-05
1.24436e-05
-1.49171e-05
-1.82173e-06
3.51794e-05
4.36504e-06
-9.561e-05
-0.000214008
-0.000295821
-0.00029554
-0.000219224
-0.000150732
-0.000141249
-0.000155094
-0.000160755
-0.000142494
-0.000114562
-8.36235e-05
-5.98583e-05
-6.83764e-05
-0.000102843
-0.000114279
-0.000130144
-0.000175641
-0.000211715
-0.000184266
-0.000122248
-7.85812e-05
-1.63432e-06
7.25025e-05
8.06609e-05
5.28952e-06
-6.55043e-05
-0.000106556
-0.000115327
-0.000103644
-8.60812e-05
-6.5157e-05
-4.07691e-05
-4.4855e-06
2.706e-05
7.25224e-06
-3.22576e-05
-1.30228e-05
1.82003e-05
7.41518e-06
-5.71725e-05
-0.000155167
-0.000230954
-0.00025379
-0.000207061
-0.000151774
-0.000142067
-0.000158915
-0.000167376
-0.000149629
-0.000119669
-8.69026e-05
-6.62938e-05
-7.52009e-05
-0.000102701
-0.000118883
-0.00011968
-0.000147789
-0.000186235
-0.000169781
-0.000107111
-7.11069e-05
-4.36633e-05
2.06331e-05
6.75577e-05
1.64847e-05
-3.82894e-05
-8.97126e-05
-0.000116712
-0.000114776
-0.000103992
-7.78746e-05
-4.85532e-05
-6.17027e-06
2.84875e-05
9.10665e-06
-3.08996e-05
-4.63218e-05
-1.29628e-05
-1.65141e-05
-5.02068e-05
-9.12738e-05
-0.000152905
-0.000189429
-0.000184444
-0.000157023
-0.000144744
-0.000160956
-0.000167618
-0.000149403
-0.000124299
-9.42104e-05
-6.75031e-05
-6.93095e-05
-0.000100927
-0.000124713
-0.000118658
-0.000126948
-0.000166418
-0.000160394
-0.000103628
-5.3861e-05
-5.07975e-05
-1.58858e-05
-5.11493e-06
4.04429e-06
-3.37804e-05
-8.6582e-05
-0.000121699
-0.000122437
-8.82662e-05
-6.94675e-05
-4.21347e-05
4.46878e-06
2.8906e-05
4.52722e-06
-4.42317e-05
-6.46987e-05
-4.76222e-05
-3.69059e-05
-5.89708e-05
-8.84069e-05
-0.000104763
-0.000116576
-0.000130041
-0.000137303
-0.000154178
-0.000166908
-0.000170715
-0.000156707
-0.000143237
-0.000118112
-9.13926e-05
-7.07067e-05
-9.05624e-05
-0.000111975
-0.000109753
-0.000100879
-0.000121554
-0.000137174
-9.63169e-05
-3.96771e-05
-5.23635e-05
-3.41543e-05
-9.72603e-06
3.58764e-06
-4.38327e-05
-0.000107671
-0.00013261
-0.000117966
-8.79638e-05
-6.22134e-05
-3.20885e-05
-4.75159e-06
3.26149e-06
-1.75056e-05
-5.46996e-05
-7.67709e-05
-8.23642e-05
-8.09841e-05
-7.83696e-05
-9.12829e-05
-9.78065e-05
-0.000107297
-0.000115993
-0.000124383
-0.000135619
-0.000150004
-0.000158348
-0.000156536
-0.000157624
-0.000161272
-0.000147073
-0.000125372
-0.000115873
-0.000111472
-9.81037e-05
-8.13317e-05
-8.07952e-05
-0.000107871
-0.000108105
-0.000109097
-7.65242e-05
-5.69181e-05
-2.03542e-06
8.84144e-06
-4.17892e-05
-0.000111307
-0.000140015
-0.000126929
-9.88416e-05
-6.81707e-05
-3.58354e-05
1.25209e-05
3.80194e-06
-1.85639e-05
-5.03714e-05
-6.76533e-05
-8.89276e-05
-0.000107852
-0.000132302
-0.000139893
-0.000127445
-0.000105049
-0.00010084
-0.000114481
-0.000137609
-0.000154249
-0.000156638
-0.00015152
-0.000155668
-0.000168432
-0.000166239
-0.000156193
-0.000147954
-0.000132248
-0.000106364
-7.67097e-05
-8.53604e-05
-9.53718e-05
-0.000118157
-0.000120518
-8.82674e-05
-4.98346e-05
9.9634e-06
1.6714e-05
-3.70893e-05
-0.000124622
-0.000188088
-0.000193515
-0.000153597
-9.83988e-05
-4.78345e-05
-1.02391e-05
-7.02314e-06
-3.80176e-05
-6.54539e-05
-5.60916e-05
-4.61638e-05
-5.73735e-05
-9.58055e-05
-0.000128015
-0.00014349
-0.000123099
-0.000103591
-0.000106667
-0.000132123
-0.000153326
-0.000157016
-0.000153071
-0.0001551
-0.000162639
-0.000166318
-0.000169499
-0.000177356
-0.000148172
-0.000117962
-7.87259e-05
-5.9132e-05
-7.63596e-05
-0.000103603
-0.000113648
-9.55944e-05
-6.75465e-05
1.4011e-05
4.70546e-05
-1.10778e-05
-0.000117095
-0.000207344
-0.000247051
-0.000214854
-0.000145002
-6.5844e-05
-4.8554e-05
-2.37522e-05
-3.86787e-05
-6.97668e-05
-8.81595e-05
-6.30517e-05
-5.71667e-05
-6.56296e-05
-8.35012e-05
-0.000104337
-0.000117402
-0.00012482
-0.000131948
-0.000146001
-0.000151244
-0.000148026
-0.000147776
-0.000151611
-0.000154244
-0.00014368
-0.000134789
-0.000133864
-0.000133214
-0.000120591
-8.26251e-05
-5.85323e-05
-6.59276e-05
-8.76629e-05
-9.38271e-05
-8.54378e-05
-7.03473e-05
-2.08452e-05
2.20626e-05
-3.2169e-06
-8.06266e-05
-0.000158924
-0.000199246
-0.000195935
-0.000160195
-0.000103058
-8.38695e-05
-5.22719e-05
-5.33024e-05
-6.91972e-05
-7.84701e-05
-5.45244e-05
-5.05408e-05
-7.36017e-05
-0.000107864
-0.000138022
-0.000162213
-0.000159511
-0.000154458
-0.000145024
-0.000130169
-0.00011489
-0.000114009
-0.000126201
-0.000141225
-0.000153124
-0.000147787
-0.000132482
-0.000111142
-9.22588e-05
-7.11671e-05
-5.11895e-05
-4.86509e-05
-6.55948e-05
-8.76037e-05
-0.000104713
-0.00010465
-7.78408e-05
-3.75886e-05
-3.25798e-05
-6.99691e-05
-0.00012605
-0.000168099
-0.000177377
-0.0001715
-0.000131771
-0.00011385
-7.87673e-05
-6.53966e-05
-6.57559e-05
-7.82291e-05
-6.44373e-05
-5.68645e-05
-7.40324e-05
-0.000107335
-0.000142583
-0.000174007
-0.000179218
-0.000176856
-0.000167908
-0.000147441
-0.000125227
-0.000118945
-0.000133158
-0.000145891
-0.00013876
-0.000121879
-0.000112625
-0.000106867
-8.14952e-05
-4.90019e-05
-2.14398e-05
-2.02688e-05
-5.20377e-05
-9.99907e-05
-0.000147031
-0.000146703
-0.000135962
-0.000117303
-7.49377e-05
-7.54817e-05
-0.00010503
-0.000141449
-0.000170611
-0.000171678
-0.000149656
-4.09364e-05
-1.32497e-07
3.83096e-05
3.02747e-05
-3.69723e-05
-0.000127007
-0.000200254
-0.000244539
-0.000255906
-0.000241503
-0.000211196
-0.000184944
-0.000178123
-0.000185997
-0.000184197
-0.000155346
-0.000107304
-6.28812e-05
-4.19669e-05
-5.25993e-05
-7.47569e-05
-8.81306e-05
-0.000100126
-0.000142912
-0.000211432
-0.000271756
-0.000274688
-0.000182279
-3.57525e-05
5.62842e-05
5.68125e-05
3.90103e-05
3.25184e-05
2.77599e-05
3.7295e-05
6.65211e-05
9.31602e-05
8.0014e-05
2.41225e-05
-2.98174e-05
-4.07823e-05
4.44551e-07
3.98978e-05
3.32005e-05
-3.38389e-05
-0.000124233
-0.000198322
-0.000243713
-0.000255884
-0.000241931
-0.000211716
-0.000185416
-0.000178693
-0.000186833
-0.00018545
-0.000156652
-0.000108567
-6.3942e-05
-4.26029e-05
-5.28948e-05
-7.49617e-05
-8.81451e-05
-9.99301e-05
-0.000142472
-0.000211105
-0.000272595
-0.000277327
-0.000186694
-4.02712e-05
5.23748e-05
5.37366e-05
3.59759e-05
2.99839e-05
2.54805e-05
3.47045e-05
6.39554e-05
9.15515e-05
7.97378e-05
2.4546e-05
-2.94134e-05
-4.077e-05
1.2267e-06
4.30175e-05
3.74407e-05
-3.02676e-05
-0.000122692
-0.000198834
-0.000245728
-0.000258217
-0.000244007
-0.000213205
-0.000186361
-0.000179558
-0.000188196
-0.000187363
-0.000158793
-0.000110547
-6.5397e-05
-4.32259e-05
-5.30204e-05
-7.5131e-05
-8.80901e-05
-9.96102e-05
-0.000141855
-0.00021102
-0.000274079
-0.000280764
-0.000191384
-4.38749e-05
4.95324e-05
5.13312e-05
3.27717e-05
2.75812e-05
2.36362e-05
3.21995e-05
6.09087e-05
8.94946e-05
7.9724e-05
2.54617e-05
-2.89405e-05
-4.11577e-05
3.39386e-06
4.80482e-05
4.28731e-05
-2.69427e-05
-0.000123897
-0.000203595
-0.000252198
-0.000263973
-0.00024828
-0.000215815
-0.000187673
-0.000180499
-0.000189848
-0.000189857
-0.000161635
-0.00011313
-6.71226e-05
-4.36326e-05
-5.27135e-05
-7.50229e-05
-8.73228e-05
-9.91023e-05
-0.000141097
-0.00021117
-0.000276105
-0.000284416
-0.000195229
-4.51047e-05
4.97831e-05
5.03212e-05
2.94674e-05
2.51293e-05
2.21568e-05
3.01191e-05
5.79038e-05
8.71154e-05
7.95426e-05
2.63063e-05
-2.9004e-05
-4.28918e-05
6.2714e-06
5.46777e-05
5.05772e-05
-2.3424e-05
-0.000128051
-0.000213255
-0.000263905
-0.000273581
-0.000254909
-0.00021962
-0.000189371
-0.000181383
-0.000191276
-0.000192215
-0.000164503
-0.000115957
-6.91471e-05
-4.40057e-05
-5.20115e-05
-7.45161e-05
-8.63751e-05
-9.84312e-05
-0.000140335
-0.000212095
-0.000278521
-0.000289026
-0.000199894
-4.60702e-05
5.13323e-05
4.99881e-05
2.57466e-05
2.21182e-05
2.05965e-05
2.86714e-05
5.57e-05
8.4777e-05
7.86086e-05
2.59417e-05
-3.06499e-05
-4.79196e-05
8.49589e-06
6.46919e-05
6.08448e-05
-1.77888e-05
-0.00013364
-0.000227263
-0.000281184
-0.000287333
-0.000264008
-0.000224819
-0.000191707
-0.000182296
-0.000192305
-0.000193635
-0.000166145
-0.000117922
-7.09956e-05
-4.44968e-05
-5.11932e-05
-7.36811e-05
-8.50972e-05
-9.72085e-05
-0.000139543
-0.00021283
-0.000282909
-0.000298458
-0.000211826
-5.45186e-05
4.73203e-05
4.561e-05
1.94002e-05
1.75762e-05
1.80433e-05
2.73846e-05
5.47421e-05
8.30974e-05
7.70047e-05
2.39271e-05
-3.49653e-05
-5.69989e-05
7.63619e-06
7.72587e-05
7.59548e-05
-7.73109e-06
-0.000135333
-0.000242862
-0.000303639
-0.000305613
-0.000275813
-0.00023159
-0.000194942
-0.000183633
-0.000193277
-0.000194328
-0.000166172
-0.000117623
-7.11735e-05
-4.44379e-05
-5.03868e-05
-7.28919e-05
-8.35257e-05
-9.52563e-05
-0.000138268
-0.000214857
-0.000290943
-0.000316379
-0.000237143
-7.6568e-05
3.31401e-05
3.10164e-05
2.77545e-06
6.81042e-06
1.1568e-05
2.35652e-05
5.36186e-05
8.1886e-05
7.49495e-05
2.11251e-05
-4.12983e-05
-6.58781e-05
3.4191e-06
9.01159e-05
0.000103402
1.64549e-05
-0.000124675
-0.000250924
-0.000328305
-0.000328705
-0.000291625
-0.000241001
-0.000199046
-0.000184712
-0.000194242
-0.000195747
-0.000166799
-0.000115912
-6.84605e-05
-4.18193e-05
-4.85528e-05
-7.22653e-05
-8.21004e-05
-9.29238e-05
-0.000137028
-0.000217348
-0.000303364
-0.000339057
-0.000270139
-0.000110233
1.1379e-05
1.17228e-05
-2.43836e-05
-1.54236e-05
-2.56139e-06
1.27485e-05
4.55727e-05
7.70474e-05
7.19788e-05
1.95179e-05
-4.49152e-05
-6.29523e-05
6.50533e-07
0.0001016
0.000137672
5.57902e-05
-9.67503e-05
-0.000245157
-0.000348446
-0.000355222
-0.00031274
-0.000254945
-0.000206388
-0.000186556
-0.000193305
-0.000195253
-0.000168935
-0.000119629
-6.83066e-05
-3.70512e-05
-4.34078e-05
-7.05104e-05
-8.11769e-05
-9.10941e-05
-0.000136799
-0.000220853
-0.000310538
-0.00034857
-0.000285362
-0.000135115
-1.24876e-05
-5.48569e-06
-5.33389e-05
-4.75144e-05
-2.63054e-05
-2.81541e-06
3.20014e-05
6.17343e-05
6.01877e-05
1.80251e-05
-3.78572e-05
-4.53577e-05
5.70224e-06
0.000109195
0.000171623
0.000108374
-5.03247e-05
-0.000222333
-0.000344975
-0.000382006
-0.000340046
-0.000274049
-0.000215683
-0.000190143
-0.00019393
-0.000193843
-0.000169109
-0.00012557
-7.69656e-05
-4.14044e-05
-3.9586e-05
-6.69209e-05
-8.06129e-05
-9.04677e-05
-0.00013789
-0.000226332
-0.000316314
-0.000346538
-0.000276108
-0.000131185
-2.30544e-05
-1.81239e-05
-7.53851e-05
-8.61209e-05
-6.28074e-05
-2.77069e-05
1.83454e-05
5.14032e-05
4.73849e-05
1.25617e-05
-2.86953e-05
-2.08344e-05
1.71148e-05
0.000108538
0.000190873
0.000160664
1.31379e-05
-0.000178325
-0.000328248
-0.000391683
-0.000370876
-0.000298902
-0.000226066
-0.000192494
-0.000194084
-0.000193302
-0.000169417
-0.000130925
-8.66718e-05
-5.17442e-05
-4.62209e-05
-6.95243e-05
-8.36145e-05
-9.33455e-05
-0.000140792
-0.000233317
-0.000319497
-0.000337437
-0.000254087
-0.000110359
-1.39969e-05
-1.78419e-05
-8.51494e-05
-0.000116631
-0.000104213
-6.20584e-05
-3.45643e-06
4.25423e-05
4.42723e-05
1.62455e-05
-1.01619e-05
6.10002e-06
2.71694e-05
9.83673e-05
0.000188939
0.000190837
7.94756e-05
-0.00011457
-0.000287624
-0.000386531
-0.000395555
-0.00033134
-0.0002404
-0.000192879
-0.000192264
-0.000192791
-0.000172007
-0.00013661
-9.74828e-05
-6.45536e-05
-5.81562e-05
-8.21381e-05
-9.76842e-05
-0.000103462
-0.000147382
-0.000238818
-0.000321769
-0.000330247
-0.000235737
-9.72944e-05
-9.83677e-06
-3.86018e-06
-7.47267e-05
-0.000125761
-0.000132316
-9.57801e-05
-3.36613e-05
2.06421e-05
3.3059e-05
1.64903e-05
7.08874e-06
2.77124e-05
3.57151e-05
7.04433e-05
0.000176275
0.000193225
0.000126997
-4.58334e-05
-0.000226241
-0.000353277
-0.000400356
-0.000366833
-0.000261074
-0.000197635
-0.000190878
-0.000193006
-0.000174058
-0.000140941
-0.000107564
-7.85601e-05
-7.42112e-05
-0.000100864
-0.000120621
-0.000129928
-0.000156563
-0.000234574
-0.000319083
-0.000317565
-0.000226748
-0.000108724
-3.78162e-05
5.02029e-06
-5.0413e-05
-0.000108624
-0.000128825
-0.000113652
-6.50976e-05
-1.48222e-05
7.83055e-06
8.46326e-06
1.746e-05
4.01741e-05
4.01941e-05
4.7989e-05
0.000133065
0.000174995
0.000149738
1.17373e-05
-0.000159994
-0.000299076
-0.000380561
-0.000373896
-0.000286201
-0.00020651
-0.000191086
-0.000193998
-0.000178562
-0.000147578
-0.000113925
-8.51133e-05
-8.22844e-05
-0.000113745
-0.000140902
-0.000143973
-0.000152878
-0.000215602
-0.000308628
-0.000291676
-0.000210177
-0.000120586
-8.41598e-05
-2.08888e-06
-2.63348e-05
-7.85213e-05
-9.90238e-05
-0.000106621
-8.38308e-05
-4.95107e-05
-2.58989e-05
-9.87334e-06
1.91888e-05
3.26352e-05
3.95306e-05
3.13153e-05
8.33372e-05
0.000141084
0.000148629
4.73248e-05
-0.000104767
-0.000241803
-0.000339693
-0.000369345
-0.000302336
-0.000218454
-0.000188441
-0.000195838
-0.000182989
-0.000158331
-0.000119
-8.37229e-05
-7.5056e-05
-0.000102276
-0.000131965
-0.000128853
-0.00013765
-0.000203156
-0.000275999
-0.000265402
-0.000189476
-0.000120651
-9.76628e-05
-1.17821e-05
-8.10129e-06
-4.95435e-05
-7.38197e-05
-9.47774e-05
-9.29721e-05
-7.38823e-05
-5.2875e-05
-3.0189e-05
-2.83003e-06
2.47894e-05
4.52514e-05
2.95789e-05
4.97891e-05
9.48864e-05
0.000120757
6.12397e-05
-6.24048e-05
-0.000191863
-0.000284215
-0.000338752
-0.000305424
-0.000227148
-0.000189153
-0.000191284
-0.000186705
-0.000168801
-0.000123033
-7.55929e-05
-6.30981e-05
-9.1341e-05
-0.000123176
-0.000124501
-0.000127456
-0.000187716
-0.000253643
-0.00024018
-0.000163403
-0.00011209
-9.97299e-05
-2.74143e-05
6.59403e-06
-2.16832e-05
-5.80257e-05
-8.3703e-05
-9.8684e-05
-8.70765e-05
-7.04736e-05
-4.67746e-05
-1.99948e-05
2.06438e-05
5.11476e-05
3.16047e-05
3.16428e-05
5.05846e-05
6.91542e-05
3.9405e-05
-4.92856e-05
-0.000161157
-0.000208283
-0.00026467
-0.000275747
-0.000236644
-0.00020139
-0.000197762
-0.000192927
-0.000169538
-0.000126476
-7.05321e-05
-5.63309e-05
-8.32634e-05
-0.000115503
-0.00012435
-0.000127052
-0.000163953
-0.000228964
-0.000216936
-0.000143068
-9.20196e-05
-8.7888e-05
-4.10404e-05
3.46825e-06
-4.24466e-06
-3.98951e-05
-7.86081e-05
-0.000100534
-9.56652e-05
-8.33311e-05
-5.86724e-05
-2.9343e-05
1.72193e-05
4.91282e-05
3.17344e-05
2.46165e-06
1.59208e-05
9.51366e-06
-6.55027e-06
-5.23603e-05
-7.05018e-05
-0.000120185
-0.000161503
-0.000208828
-0.000221805
-0.000210147
-0.000210048
-0.000203517
-0.000176566
-0.000113412
-6.6493e-05
-5.09083e-05
-7.30638e-05
-0.000109688
-0.000129293
-0.000128671
-0.000146454
-0.00019242
-0.00019964
-0.000141641
-8.11881e-05
-6.74639e-05
-3.57092e-05
-5.78305e-06
-2.7045e-06
-3.66207e-05
-7.22116e-05
-9.42145e-05
-9.73749e-05
-8.36468e-05
-6.18607e-05
-2.88974e-05
6.54051e-06
3.28393e-05
1.65541e-05
-2.27814e-05
-3.63281e-05
-3.3099e-05
-3.12654e-05
-6.32433e-05
-8.22017e-05
-6.88815e-05
-6.05399e-05
-0.000105335
-0.000160165
-0.000195069
-0.000202655
-0.000200004
-0.000179034
-0.000143045
-0.000104943
-7.8554e-05
-6.4674e-05
-9.41358e-05
-0.000129248
-0.000132544
-0.000127806
-0.000148595
-0.000172845
-0.000143766
-8.65696e-05
-6.65455e-05
-3.48836e-05
-3.29529e-06
-1.32678e-06
-4.32759e-05
-8.53002e-05
-9.78407e-05
-9.37622e-05
-8.17034e-05
-6.66439e-05
-3.47599e-05
-1.19758e-05
-1.98227e-06
-1.42984e-05
-3.92865e-05
-5.80898e-05
-7.10003e-05
-6.48339e-05
-6.26919e-05
-6.68137e-05
-6.10759e-05
-6.55643e-05
-8.12036e-05
-0.000112141
-0.000148026
-0.00017413
-0.000185225
-0.000177793
-0.000156811
-0.000143688
-0.000130006
-0.000115701
-0.000113071
-0.000109375
-0.000117127
-0.00011049
-0.000116366
-0.000130937
-0.000138475
-0.000135532
-9.16082e-05
-4.58422e-05
-4.67716e-06
-1.92463e-06
-5.13574e-05
-0.000101698
-0.000115061
-0.000101258
-7.50497e-05
-5.16336e-05
-3.00219e-05
-1.38404e-05
-3.05318e-06
-2.28619e-05
-4.68112e-05
-5.72637e-05
-7.40075e-05
-9.21015e-05
-0.000103306
-0.000102674
-8.62249e-05
-6.87858e-05
-6.89848e-05
-9.27343e-05
-0.000129047
-0.000157589
-0.000171249
-0.000173918
-0.000174023
-0.000178632
-0.000172825
-0.000159991
-0.000150143
-0.000133493
-0.000116846
-0.000106041
-0.000115077
-0.00012784
-0.000136509
-0.000123511
-8.43899e-05
-3.02188e-05
9.00976e-07
-3.85755e-06
-5.64111e-05
-0.000124594
-0.000153871
-0.000143734
-0.000102725
-5.66993e-05
-2.74574e-05
-4.87627e-06
-7.14242e-06
-4.51568e-05
-6.83492e-05
-6.45891e-05
-4.17964e-05
-4.81578e-05
-7.44826e-05
-9.51809e-05
-9.64791e-05
-8.87199e-05
-7.5851e-05
-8.61634e-05
-0.00011955
-0.000151407
-0.000165619
-0.000166221
-0.000167381
-0.000172591
-0.000180106
-0.000189323
-0.000196265
-0.000186782
-0.000156467
-0.000122654
-0.000104568
-0.000107281
-0.000114563
-0.000107314
-8.20756e-05
-4.01928e-05
-4.46525e-06
7.53534e-06
-3.97061e-05
-0.000112537
-0.000166347
-0.000175079
-0.000147742
-9.26571e-05
-3.56256e-05
-3.78384e-05
-2.19012e-05
-4.05872e-05
-7.25024e-05
-7.37736e-05
-5.73202e-05
-5.21916e-05
-6.21567e-05
-7.68602e-05
-8.7112e-05
-8.61168e-05
-8.3327e-05
-9.70102e-05
-0.000125463
-0.000147825
-0.000153972
-0.000153176
-0.000147027
-0.000140116
-0.000129601
-0.000135647
-0.000147005
-0.000157482
-0.000147003
-0.00011696
-9.7441e-05
-0.000105706
-0.000120806
-0.000115967
-9.14567e-05
-6.33384e-05
-3.58805e-05
-1.34891e-05
-3.44422e-05
-8.52503e-05
-0.000138367
-0.00016275
-0.000158623
-0.000125807
-7.83542e-05
-6.89474e-05
-4.44463e-05
-5.09069e-05
-6.88478e-05
-9.15729e-05
-5.53469e-05
-4.77906e-05
-6.30736e-05
-8.74953e-05
-0.000109453
-0.00011747
-0.000127786
-0.000134871
-0.000141125
-0.000138198
-0.000125972
-0.000121075
-0.000130086
-0.000141916
-0.000150931
-0.000139609
-0.000127394
-0.000118187
-0.000108341
-9.2188e-05
-7.85501e-05
-7.70007e-05
-8.73547e-05
-9.861e-05
-9.97743e-05
-9.34205e-05
-7.63812e-05
-5.75153e-05
-5.24159e-05
-7.96304e-05
-0.00012312
-0.000156374
-0.000161743
-0.000148018
-0.000108965
-9.96762e-05
-7.73852e-05
-6.50532e-05
-6.14485e-05
-6.42234e-05
-5.28862e-05
-5.07653e-05
-6.92849e-05
-0.000100965
-0.000130379
-0.000151078
-0.000163275
-0.000173336
-0.000172465
-0.000155758
-0.000131872
-0.000120197
-0.000127048
-0.000135851
-0.000132908
-0.000122284
-0.000118644
-0.000110779
-9.10893e-05
-5.90422e-05
-3.72173e-05
-3.7169e-05
-6.00575e-05
-0.000100062
-0.000112874
-0.000127538
-0.000120547
-0.00010478
-7.83983e-05
-7.73807e-05
-0.0001006
-0.000130628
-0.000148131
-0.000148749
-0.000129686
4.1506e-05
1.63871e-05
5.50577e-06
-7.44361e-06
-3.27175e-05
-7.51756e-05
-0.000123873
-0.000173816
-0.000208332
-0.000217783
-0.000197679
-0.000172382
-0.000169913
-0.000191236
-0.000201941
-0.000175894
-0.000126782
-8.5351e-05
-6.75307e-05
-7.52192e-05
-8.95772e-05
-9.05154e-05
-9.48587e-05
-0.000130135
-0.000178449
-0.000220435
-0.000236536
-0.000196356
-0.000100324
-1.46506e-05
3.47846e-05
6.6886e-05
8.6723e-05
8.36704e-05
7.28359e-05
7.67278e-05
9.32257e-05
9.1038e-05
7.00162e-05
5.9828e-05
4.25409e-05
1.78571e-05
7.86282e-06
-4.51282e-06
-2.93444e-05
-7.20255e-05
-0.000121267
-0.000172208
-0.000207466
-0.000217674
-0.000198032
-0.000172694
-0.000169958
-0.000191299
-0.000202387
-0.000176639
-0.000127464
-8.59114e-05
-6.8051e-05
-7.58004e-05
-9.02836e-05
-9.1245e-05
-9.51428e-05
-0.000130157
-0.000178417
-0.000220455
-0.000237059
-0.000198011
-0.000102644
-1.66736e-05
3.21863e-05
6.40915e-05
8.39343e-05
8.04515e-05
6.87537e-05
7.21701e-05
8.92884e-05
8.85506e-05
6.86572e-05
5.98356e-05
4.47626e-05
2.08824e-05
1.09662e-05
-1.5275e-06
-2.67355e-05
-7.03636e-05
-0.000120589
-0.000172713
-0.000208361
-0.000219067
-0.000199354
-0.000173461
-0.000170172
-0.000191854
-0.000203807
-0.000178352
-0.000128684
-8.66263e-05
-6.8538e-05
-7.63441e-05
-9.10089e-05
-9.20031e-05
-9.49426e-05
-0.000129945
-0.000178551
-0.000221023
-0.000238268
-0.000200489
-0.000105111
-1.78018e-05
2.99721e-05
6.17875e-05
8.21406e-05
7.85464e-05
6.54632e-05
6.70836e-05
8.41231e-05
8.54769e-05
6.77336e-05
6.15689e-05
4.91145e-05
2.60301e-05
1.52093e-05
1.6968e-06
-2.55886e-05
-7.13356e-05
-0.000123178
-0.000176429
-0.000211936
-0.000222469
-0.000201868
-0.000174851
-0.000170807
-0.000193272
-0.000206659
-0.000181614
-0.000130999
-8.79314e-05
-6.92614e-05
-7.70394e-05
-9.19078e-05
-9.24346e-05
-9.51458e-05
-0.000129488
-0.000179008
-0.000222324
-0.000240215
-0.00020359
-0.000107114
-1.78645e-05
2.89945e-05
6.0718e-05
8.19772e-05
7.86045e-05
6.40683e-05
6.28068e-05
7.84561e-05
8.16529e-05
6.69114e-05
6.40416e-05
5.57096e-05
3.39558e-05
2.11511e-05
4.99523e-06
-2.59293e-05
-7.52088e-05
-0.000129424
-0.000183837
-0.000218256
-0.000227758
-0.000205422
-0.000176858
-0.000171885
-0.00019544
-0.000210767
-0.000186398
-0.000134876
-9.0731e-05
-7.10517e-05
-7.85079e-05
-9.35438e-05
-9.31678e-05
-9.4947e-05
-0.000129076
-0.00018004
-0.00022509
-0.000243323
-0.0002081
-0.000109615
-1.71796e-05
2.94746e-05
6.1006e-05
8.31331e-05
8.02036e-05
6.49574e-05
6.08532e-05
7.33843e-05
7.68297e-05
6.5134e-05
6.68507e-05
6.4157e-05
4.56599e-05
3.01643e-05
9.66112e-06
-2.68591e-05
-8.15281e-05
-0.000139115
-0.000194936
-0.000227161
-0.000234728
-0.000209702
-0.000179367
-0.00017323
-0.000197725
-0.000214948
-0.000191314
-0.000139659
-9.52365e-05
-7.46289e-05
-8.14415e-05
-9.64905e-05
-9.47399e-05
-9.47766e-05
-0.000128919
-0.000181995
-0.000227268
-0.000249107
-0.000217291
-0.000117076
-1.97296e-05
2.92358e-05
6.21609e-05
8.47225e-05
8.18791e-05
6.72224e-05
6.21122e-05
7.04463e-05
7.16547e-05
6.16379e-05
6.85529e-05
7.28884e-05
6.18108e-05
4.43991e-05
1.83952e-05
-2.58864e-05
-8.89412e-05
-0.000151298
-0.00020918
-0.000238284
-0.000243455
-0.000214565
-0.000182241
-0.000174462
-0.000199299
-0.000217602
-0.000194893
-0.000143709
-9.98038e-05
-7.9011e-05
-8.56921e-05
-0.000100936
-9.7366e-05
-9.47443e-05
-0.000128841
-0.00018483
-0.000232834
-0.000260014
-0.000236365
-0.000137636
-3.46627e-05
1.94145e-05
5.91908e-05
8.45496e-05
8.02931e-05
6.68686e-05
6.49146e-05
7.04253e-05
6.73462e-05
5.65461e-05
6.52716e-05
7.74945e-05
8.09317e-05
6.44508e-05
3.43262e-05