/*--------------------------------*- C++ -*----------------------------------*\
| =========                 |                                                 |
| \\      /  F ield         | OpenFOAM: The Open Source CFD Toolbox           |
|  \\    /   O peration     | Version:  2306                                  |
|   \\  /    A nd           | Website:  www.openfoam.com                      |
|    \\/     M anipulation  |                                                 |
\*---------------------------------------------------------------------------*/
FoamFile
{
    version     2.0;
    format      ascii;
    arch        "LSB;label=32;scalar=64";
    class       surfaceScalarField;
    location    "7";
    object      phi;
}
// * * * * * * * * * * * * * * * * * * * * * * * * * * * * * * * * * * * * * //

dimensions      [0 3 -1 0 0 0 0];

oriented        oriented;

internalField   nonuniform List<scalar> 
175300
(
4.83947e-06
5.44741e-07
-3.78376e-07
5.24441e-06
4.13721e-07
-4.36153e-08
5.66528e-06
4.37736e-07
2.71e-07
5.94481e-06
6.54563e-07
6.75259e-07
5.96755e-06
8.93405e-07
1.17063e-06
5.7737e-06
9.08876e-07
1.68311e-06
5.51476e-06
6.82553e-07
2.05914e-06
5.31029e-06
4.04463e-07
2.13998e-06
5.16822e-06
2.29184e-07
1.9335e-06
5.05584e-06
1.57914e-07
1.5774e-06
4.92827e-06
1.17949e-07
1.2659e-06
4.73833e-06
4.05302e-08
1.14029e-06
4.441e-06
-3.81075e-08
1.18334e-06
4.04757e-06
-9.12424e-08
1.27879e-06
3.67685e-06
-1.76933e-07
1.32908e-06
3.4614e-06
-3.08512e-07
1.29681e-06
3.42246e-06
-4.46517e-07
1.17631e-06
3.50713e-06
-5.6091e-07
9.72152e-07
3.62833e-06
-5.93328e-07
7.24448e-07
3.73598e-06
-4.92081e-07
4.59065e-07
3.87265e-06
-3.07776e-07
1.68527e-07
4.07813e-06
-1.09704e-07
-1.03214e-07
4.3041e-06
1.64208e-07
-3.45442e-07
4.49861e-06
3.51788e-07
-4.44859e-07
4.6626e-06
3.03753e-07
-4.26224e-07
4.82232e-06
-1.49104e-08
-3.76777e-07
5.03151e-06
-5.24211e-07
-4.72826e-07
5.28566e-06
-8.97715e-07
-8.24917e-07
5.46595e-06
-8.61085e-07
-1.29264e-06
5.44468e-06
-4.81528e-07
-1.63165e-06
5.20142e-06
-8.79633e-09
-1.86057e-06
4.80023e-06
3.60519e-07
-2.08394e-06
4.34334e-06
4.61681e-07
-2.14834e-06
3.98268e-06
2.25564e-07
-1.99391e-06
3.79608e-06
-7.17186e-08
-1.82724e-06
3.78116e-06
-1.80637e-07
-1.7503e-06
3.90617e-06
-1.08334e-07
-1.63076e-06
4.09098e-06
1.04715e-07
-1.36085e-06
4.28269e-06
3.70258e-07
-9.96891e-07
5.44822e-07
-6.61334e-07
1.61492e-05
1.49949e-06
-9.47704e-07
1.75187e-05
1.04322e-06
4.20494e-08
1.88518e-05
1.18714e-06
1.08548e-06
1.97908e-05
1.87702e-06
2.42876e-06
2.00279e-05
2.54597e-06
3.9617e-06
1.95545e-05
2.55009e-06
5.38899e-06
1.8733e-05
1.92114e-06
6.26799e-06
1.79876e-05
1.15684e-06
6.31807e-06
1.74691e-05
6.37984e-07
5.64916e-06
1.71041e-05
4.00389e-07
4.64249e-06
1.67091e-05
2.68181e-07
3.78761e-06
1.60796e-05
7.58683e-08
3.40433e-06
1.50925e-05
-1.18621e-07
3.45136e-06
1.38556e-05
-3.24872e-07
3.68559e-06
1.27203e-05
-7.21406e-07
3.87496e-06
1.20033e-05
-1.30249e-06
3.86361e-06
1.17536e-05
-1.85384e-06
3.5599e-06
1.18297e-05
-2.18128e-06
2.96776e-06
1.20385e-05
-2.10954e-06
2.20276e-06
1.23059e-05
-1.63217e-06
1.37333e-06
1.27234e-05
-9.59099e-07
5.22038e-07
1.33285e-05
-2.31623e-07
-2.47493e-07
1.40137e-05
5.93527e-07
-8.53614e-07
1.47123e-05
9.53665e-07
-1.08827e-06
1.54584e-05
4.7004e-07
-1.02811e-06
1.6298e-05
-9.39565e-07
-9.45678e-07
1.72606e-05
-2.74909e-06
-1.29954e-06
1.81841e-05
-3.84688e-06
-2.29794e-06
1.86737e-05
-3.42891e-06
-3.54684e-06
1.84428e-05
-1.85986e-06
-4.52588e-06
1.75561e-05
-1.04177e-07
-5.23226e-06
1.63097e-05
1.06749e-06
-5.71445e-06
1.50174e-05
1.19663e-06
-5.70364e-06
1.39284e-05
3.67623e-07
-5.34114e-06
1.31567e-05
-4.66356e-07
-5.11557e-06
1.2807e-05
-6.92644e-07
-5.04531e-06
1.29251e-05
-3.96543e-07
-4.68272e-06
1.33764e-05
3.29734e-07
-3.8441e-06
1.40405e-05
1.18358e-06
-2.78704e-06
1.64708e-06
-1.81517e-06
2.963e-05
2.21006e-06
-2.04858e-06
3.22207e-05
1.10916e-06
-3.55492e-07
3.47733e-05
1.3389e-06
1.51022e-06
3.67784e-05
2.66936e-06
3.92184e-06
3.76756e-05
3.9434e-06
6.64047e-06
3.71929e-05
4.05519e-06
9.10864e-06
3.57444e-05
3.1561e-06
1.06077e-05
3.41843e-05
2.00386e-06
1.07518e-05
3.30514e-05
1.12036e-06
9.73267e-06
3.23332e-05
6.22993e-07
8.1503e-06
3.16747e-05
3.35621e-07
6.73632e-06
3.06531e-05
2.50355e-08
5.94829e-06
2.90199e-05
-2.54524e-07
5.76824e-06
2.69171e-05
-6.15118e-07
5.96785e-06
2.48443e-05
-1.42377e-06
6.30163e-06
2.32947e-05
-2.65978e-06
6.4684e-06
2.2445e-05
-3.86613e-06
6.16606e-06
2.2187e-05
-4.57883e-06
5.32891e-06
2.22864e-05
-4.41306e-06
4.13689e-06
2.26322e-05
-3.43079e-06
2.79081e-06
2.33085e-05
-2.04116e-06
1.39438e-06
2.43269e-05
-4.55476e-07
4.70521e-08
2.55456e-05
1.06746e-06
-9.15242e-07
2.69137e-05
1.45436e-06
-1.2789e-06
2.8489e-05
-4.00388e-08
-1.0825e-06
3.03119e-05
-3.41019e-06
-7.89156e-07
3.23582e-05
-7.41298e-06
-1.19333e-06
3.42694e-05
-9.65412e-06
-2.73541e-06
3.53149e-05
-8.48911e-06
-4.8731e-06
3.50054e-05
-4.81547e-06
-6.7375e-06
3.35173e-05
-8.46137e-07
-8.12511e-06
3.14411e-05
1.67606e-06
-8.92879e-06
2.9301e-05
1.90391e-06
-8.82748e-06
2.73451e-05
2.90577e-07
-8.25631e-06
2.56324e-05
-1.2252e-06
-8.051e-06
2.44103e-05
-1.56234e-06
-8.20341e-06
2.40207e-05
-9.74164e-07
-7.8999e-06
2.44788e-05
3.70367e-07
-6.71296e-06
2.5607e-05
1.95942e-06
-5.05064e-06
2.67089e-06
-3.47141e-06
4.47195e-05
1.85454e-06
-4.53606e-06
4.87907e-05
-3.65872e-07
-2.39191e-06
5.29765e-05
-6.15484e-07
5.67614e-07
5.66617e-05
1.54841e-06
4.06456e-06
5.89874e-05
3.81016e-06
8.19383e-06
5.91443e-05
4.42119e-06
1.2103e-05
5.72416e-05
3.73077e-06
1.46863e-05
5.45728e-05
2.63794e-06
1.53308e-05
5.24408e-05
1.58979e-06
1.42362e-05
5.11748e-05
7.81733e-07
1.2232e-05
5.02779e-05
2.45464e-07
1.03096e-05
4.90391e-05
-2.05019e-07
9.016e-06
4.69912e-05
-5.01929e-07
8.31366e-06
4.41796e-05
-8.76353e-07
8.10336e-06
4.10798e-05
-1.94686e-06
8.37873e-06
3.8256e-05
-3.75662e-06
8.84161e-06
3.61258e-05
-5.7165e-06
8.86523e-06
3.48856e-05
-7.15094e-06
8.11311e-06
3.44408e-05
-7.28691e-06
6.75747e-06
3.46353e-05
-6.01202e-06
5.08305e-06
3.54638e-05
-3.84435e-06
3.23396e-06
3.68617e-05
-1.16432e-06
1.36954e-06
3.86453e-05
1.27625e-06
-3.08412e-08
4.07751e-05
1.58505e-06
-4.93932e-07
4.33015e-05
-1.55144e-06
8.41916e-08
4.62339e-05
-7.82196e-06
9.69815e-07
4.95842e-05
-1.52292e-05
1.03227e-06
5.29308e-05
-1.95292e-05
-7.62778e-07
5.51507e-05
-1.75098e-05
-4.04673e-06
5.5338e-05
-1.07215e-05
-7.36351e-06
5.36467e-05
-3.27341e-06
-1.00229e-05
5.09646e-05
1.5712e-06
-1.16004e-05
4.80763e-05
2.373e-06
-1.15697e-05
4.52408e-05
1.87367e-08
-1.06468e-05
4.23341e-05
-2.26175e-06
-1.02977e-05
3.95824e-05
-2.71225e-06
-1.08045e-05
3.7775e-05
-1.87419e-06
-1.10592e-05
3.75033e-05
-8.46996e-08
-1.01266e-05
3.87399e-05
2.12177e-06
-8.27852e-06
3.04204e-06
-6.33475e-06
6.02479e-05
-1.59222e-07
-9.2599e-06
6.57929e-05
-4.58746e-06
-7.09194e-06
7.19413e-05
-6.61795e-06
-3.51173e-06
7.80312e-05
-4.03848e-06
1.36169e-06
8.29229e-05
8.23694e-08
7.03153e-06
8.50024e-05
2.07035e-06
1.30678e-05
8.34549e-05
2.55985e-06
1.76263e-05
7.96598e-05
2.45882e-06
1.95869e-05
7.60546e-05
1.8324e-06
1.89276e-05
7.38827e-05
8.48842e-07
1.67296e-05
7.27146e-05
-2.95503e-08
1.44731e-05
7.14911e-05
-7.10879e-07
1.28501e-05
6.94126e-05
-1.0048e-06
1.1552e-05
6.63044e-05
-1.17817e-06
1.04595e-05
6.24265e-05
-2.11796e-06
1.01021e-05
5.81309e-05
-4.04766e-06
1.06626e-05
5.39412e-05
-6.46687e-06
1.12925e-05
5.06412e-05
-8.83238e-06
1.10786e-05
4.87316e-05
-1.00228e-05
9.96508e-06
4.82034e-05
-9.22385e-06
8.31254e-06
4.88821e-05
-6.58514e-06
6.26994e-06
5.04974e-05
-2.60141e-06
3.95092e-06
5.27327e-05
1.14639e-06
2.09186e-06
5.54998e-05
1.4555e-06
1.62888e-06
5.87523e-05
-3.74987e-06
2.88813e-06
6.2379e-05
-1.41062e-05
5.33938e-06
6.66597e-05
-2.64254e-05
6.92412e-06
7.1759e-05
-3.46465e-05
5.52339e-06
7.63462e-05
-3.27751e-05
1.10865e-06
7.84864e-05
-2.19062e-05
-4.74674e-06
7.77407e-05
-9.20412e-06
-9.91196e-06
7.51584e-05
-3.53552e-07
-1.336e-05
7.18711e-05
2.18118e-06
-1.39961e-05
6.83405e-05
-4.30703e-07
-1.2628e-05
6.43225e-05
-3.3938e-06
-1.17278e-05
5.97418e-05
-3.90006e-06
-1.23804e-05
5.55373e-05
-2.80213e-06
-1.34679e-05
5.31656e-05
-8.70357e-07
-1.35388e-05
5.33563e-05
1.50538e-06
-1.24013e-05
2.28221e-06
-1.08443e-05
7.53064e-05
-3.56839e-06
-1.59337e-05
8.11613e-05
-1.18157e-05
-1.4851e-05
8.85559e-05
-1.7457e-05
-1.18514e-05
9.70977e-05
-1.63696e-05
-6.56797e-06
0.000105908
-1.12441e-05
7.86552e-07
0.000112256
-6.05432e-06
9.41256e-06
0.000113208
-2.5252e-06
1.74672e-05
0.000109223
1.52327e-07
2.23476e-05
0.000103927
1.20627e-06
2.32385e-05
0.000100364
6.19973e-07
2.12203e-05
9.87719e-05
-5.3539e-07
1.87472e-05
9.77579e-05
-1.58347e-06
1.7258e-05
9.6056e-05
-1.99121e-06
1.59317e-05
9.32349e-05
-1.82933e-06
1.38626e-05
8.93045e-05
-2.16988e-06
1.20341e-05
8.40884e-05
-3.52029e-06
1.18938e-05
7.76327e-05
-5.62239e-06
1.30096e-05
7.10977e-05
-8.45494e-06
1.3738e-05
6.61344e-05
-1.11767e-05
1.33213e-05
6.36008e-05
-1.20751e-05
1.20818e-05
6.33674e-05
-9.92053e-06
1.02278e-05
6.47679e-05
-4.74225e-06
7.74277e-06
6.71168e-05
7.62275e-07
5.58493e-06
7.01563e-05
1.40632e-06
5.24303e-06
7.36621e-05
-6.17183e-06
7.57006e-06
7.70661e-05
-2.12631e-05
1.19031e-05
8.05458e-05
-3.93735e-05
1.57348e-05
8.59135e-05
-5.32663e-05
1.61757e-05
9.36621e-05
-5.46829e-05
1.18279e-05
0.000100641
-4.15916e-05
3.82077e-06
0.000103738
-2.17888e-05
-5.7123e-06
0.000103133
-6.1851e-06
-1.30721e-05
0.000100403
3.03272e-07
-1.58731e-05
9.66138e-05
-1.31557e-06
-1.44976e-05
9.18799e-05
-4.48397e-06
-1.26274e-05
8.58912e-05
-4.84458e-06
-1.2841e-05
7.91668e-05
-3.27358e-06
-1.44618e-05
7.35547e-05
-1.20935e-06
-1.57526e-05
7.08712e-05
9.73672e-07
-1.61331e-05
1.04556e-06
-1.61091e-05
9.29438e-05
-6.12964e-06
-2.17856e-05
9.63534e-05
-1.94931e-05
-2.32555e-05
0.000101963
-3.0535e-05
-2.24685e-05
0.000109634
-3.25995e-05
-1.89112e-05
0.000120537
-2.88216e-05
-1.23968e-05
0.000133346
-2.36504e-05
-2.12312e-06
0.000141543
-1.60293e-05
1.04187e-05
0.000140885
-7.47044e-06
2.09475e-05
0.000134934
-1.97796e-06
2.5891e-05
0.000129721
-7.39961e-07
2.51826e-05
0.000127534
-1.63545e-06
2.23504e-05
0.000126926
-2.97579e-06
2.112e-05
0.000125902
-3.66716e-06
2.09592e-05
0.000123823
-3.25172e-06
1.89961e-05
0.000120784
-2.70956e-06
1.53367e-05
0.000116116
-2.90823e-06
1.31908e-05
0.000108627
-3.79746e-06
1.39114e-05
9.87506e-05
-5.90646e-06
1.5636e-05
8.90902e-05
-9.42467e-06
1.63517e-05
8.23839e-05
-1.2727e-05
1.58333e-05
7.96022e-05
-1.25358e-05
1.44502e-05
7.99032e-05
-6.96929e-06
1.20737e-05
8.19621e-05
4.92981e-07
9.68594e-06
8.51624e-05
1.92274e-06
9.34344e-06
8.91664e-05
-7.84303e-06
1.22573e-05
9.2782e-05
-2.72728e-05
1.75087e-05
9.47115e-05
-4.99132e-05
2.2658e-05
9.67115e-05
-6.89088e-05
2.56722e-05
0.000103261
-7.64556e-05
2.45539e-05
0.000114822
-6.64125e-05
1.7657e-05
0.000125755
-4.34276e-05
5.33257e-06
0.000131439
-1.91804e-05
-8.34727e-06
0.000131766
-5.35154e-06
-1.59575e-05
0.000128628
-3.3814e-06
-1.62049e-05
0.000123617
-5.47601e-06
-1.35185e-05
0.00011711
-5.33408e-06
-1.2602e-05
0.000109061
-3.12661e-06
-1.3977e-05
0.000100831
-5.96644e-07
-1.5959e-05
9.48168e-05
1.61615e-06
-1.7727e-05
1.05087e-06
-1.96263e-05
0.000119546
-4.95632e-06
-2.36081e-05
0.000117995
-2.25268e-05
-2.82418e-05
0.00011843
-3.99417e-05
-3.15637e-05
0.000121371
-4.64715e-05
-3.14531e-05
0.000128452
-4.50466e-05
-2.74186e-05
0.000142646
-4.36458e-05
-1.86933e-05
0.000159553
-3.81899e-05
-4.71172e-06
0.000168011
-2.46146e-05
1.20726e-05
0.000165136
-1.07924e-05
2.42766e-05
0.000159075
-4.99041e-06
2.76987e-05
0.000156525
-4.60001e-06
2.4777e-05
0.000157049
-5.66409e-06
2.27563e-05
0.00015722
-6.27363e-06
2.42622e-05
0.000155886
-5.57575e-06
2.46986e-05
0.000154146
-4.26771e-06
2.0696e-05
0.000151793
-3.39488e-06
1.57414e-05
0.000146148
-2.85282e-06
1.45213e-05
0.000135248
-3.11958e-06
1.66229e-05
0.000120978
-5.43483e-06
1.87528e-05
0.000108002
-9.91344e-06
1.92617e-05
0.000100037
-1.24586e-05
1.84796e-05
9.75431e-05
-8.11316e-06
1.64306e-05
9.88118e-05
6.31489e-07
1.37944e-05
0.000102411
3.3155e-06
1.28723e-05
0.000107587
-7.59798e-06
1.52935e-05
0.000112984
-2.98995e-05
1.97981e-05
0.000115929
-5.48566e-05
2.4131e-05
0.000114963
-7.52812e-05
2.82462e-05
0.000114924
-8.73433e-05
3.20612e-05
0.000123095
-8.52124e-05
3.11076e-05
0.00013875
-6.65607e-05
2.05665e-05
0.000153789
-3.93185e-05
3.14441e-06
0.000161519
-1.69025e-05
-1.17995e-05
0.000161149
-7.64565e-06
-1.66032e-05
0.000156231
-6.08599e-06
-1.45929e-05
0.000149866
-5.09843e-06
-1.21728e-05
0.000142288
-2.63983e-06
-1.22236e-05
0.000133785
5.6572e-07
-1.39706e-05
0.000126545
3.60366e-06
-1.64147e-05
3.37245e-06
-1.95586e-05
0.000156391
-1.33163e-07
-2.00633e-05
0.000151081
-1.78649e-05
-2.69838e-05
0.000144357
-3.98774e-05
-3.53294e-05
0.000140518
-5.26415e-05
-4.13513e-05
0.000141346
-5.40979e-05
-4.15848e-05
0.000150154
-5.63642e-05
-3.47853e-05
0.000168602
-5.8892e-05
-2.13303e-05
0.000186554
-4.84432e-05
-2.69279e-06
0.000191023
-2.71481e-05
1.70357e-05
0.00018495
-1.25074e-05
2.73631e-05
0.000181096
-9.84364e-06
2.60481e-05
0.000183973
-1.16054e-05
2.15615e-05
0.000187472
-1.12739e-05
2.27119e-05
0.000186794
-8.08599e-06
2.64921e-05
0.000184777
-5.18757e-06
2.51254e-05
0.000185131
-4.87594e-06
1.89795e-05
0.000185113
-5.24721e-06
1.51397e-05
0.000178481
-4.15783e-06
1.66614e-05
0.000163378
-3.13106e-06
2.02516e-05
0.000144426
-5.1632e-06
2.21375e-05
0.000128735
-8.37324e-06
2.20463e-05
0.000120495
-6.28201e-06
2.06062e-05
0.000119292
1.72723e-06
1.82137e-05
0.000122854
4.99075e-06
1.65906e-05
0.000129231
-6.17118e-06
1.73985e-05
0.000136658
-2.94937e-05
1.95615e-05
0.000142424
-5.47358e-05
2.17076e-05
0.000142838
-7.3644e-05
2.51601e-05
0.000138205
-8.49541e-05
3.2257e-05
0.000137578
-8.88746e-05
3.88573e-05
0.000149218
-8.1314e-05
3.48302e-05
0.000169477
-6.07962e-05
1.78958e-05
0.000185683
-3.41279e-05
-2.30158e-06
0.00018777
-1.27843e-05
-1.38348e-05
0.00017877
-1.69114e-06
-1.51323e-05
0.000169765
-6.59556e-07
-1.19033e-05
0.000165435
-2.88449e-06
-9.24528e-06
0.000162766
-1.22189e-06
-9.24182e-06
0.000159985
4.14307e-06
-1.15328e-05
6.44939e-06
-1.51543e-05
0.000193982
2.84441e-06
-9.73434e-06
0.000191948
-8.94033e-06
-1.83276e-05
0.000180927
-2.91135e-05
-3.11691e-05
0.000169277
-4.726e-05
-4.49519e-05
0.000163743
-5.43574e-05
-5.32077e-05
0.00016608
-5.88212e-05
-5.09233e-05
0.000178584
-6.81868e-05
-3.82144e-05
0.000199315
-6.92488e-05
-1.87837e-05
0.000214615
-5.15551e-05
4.87745e-06
0.000213992
-2.61691e-05
2.27965e-05
0.000205699
-1.49939e-05
2.64671e-05
0.000205143
-1.81981e-05
2.01871e-05
0.000213012
-2.11449e-05
1.73721e-05
0.00021685
-1.38161e-05
2.15356e-05
0.000212239
-2.65969e-06
2.3648e-05
0.000208721
-5.10544e-07
1.9077e-05
0.000213098
-7.93431e-06
1.38174e-05
0.000217837
-1.31784e-05
1.44647e-05
0.000211353
-1.01355e-05
1.97567e-05
0.000192353
-4.65104e-06
2.37209e-05
0.0001695
-2.00551e-06
2.44955e-05
0.000152459
6.87876e-07
2.39179e-05
0.000145553
5.78496e-06
2.29659e-05
0.000147638
5.87599e-06
2.16464e-05
0.000155256
-7.61827e-06
2.01105e-05
0.000164943
-3.15455e-05
1.77692e-05
0.000173217
-5.41839e-05
1.52867e-05
0.00017623
-6.83905e-05
1.6652e-05
0.000171459
-7.46275e-05
2.59038e-05
0.000163954
-7.85092e-05
3.93797e-05
0.000166228
-8.14966e-05
4.36531e-05
0.000183193
-7.53852e-05
3.00559e-05
0.000202239
-5.26562e-05
7.91827e-06
0.000205908
-1.88987e-05
-9.40758e-06
0.000192661
6.86456e-06
-1.50453e-05
0.000177579
1.13412e-05
-1.23907e-05
0.000171921
1.96158e-06
-6.3357e-06
0.000174588
-3.49958e-06
-2.11586e-06
0.000180607
4.93489e-07
-1.76616e-06
5.09334e-06
-4.49454e-06
0.000218603
8.093e-07
8.34438e-06
0.000228546
-4.61498e-06
-9.12754e-07
0.000222695
-1.39595e-05
-1.86398e-05
0.000206328
-3.01432e-05
-3.97417e-05
0.00019344
-4.42292e-05
-5.77446e-05
0.000190795
-5.39533e-05
-6.46092e-05
0.000197475
-6.60959e-05
-5.65899e-05
0.000212734
-7.72096e-05
-3.72048e-05
0.000232788
-7.30044e-05
-1.25848e-05
0.000244978
-5.05479e-05
1.22296e-05
0.000241194
-2.67362e-05
2.41464e-05
0.000231475
-2.06292e-05
2.06215e-05
0.000231835
-2.66763e-05
1.31492e-05
0.000240937
-2.40678e-05
1.32185e-05
0.000243878
-6.60972e-06
1.74324e-05
0.000237418
6.38718e-06
1.72333e-05
0.00023439
-1.55359e-06
1.27675e-05
0.000242548
-2.07679e-05
1.12965e-05
0.000250812
-2.85064e-05
1.66688e-05
0.000243934
-1.79031e-05
2.29914e-05
0.000221802
-1.06333e-06
2.48549e-05
0.000196934
1.13994e-05
2.48189e-05
0.000181317
1.58139e-05
2.65946e-05
0.000178632
8.74742e-06
2.80009e-05
0.000185796
-1.21194e-05
2.50021e-05
0.000197701
-3.93645e-05
1.64003e-05
0.000209291
-5.87914e-05
5.88604e-06
0.000215195
-6.48274e-05
1.73145e-06
0.000211393
-6.26533e-05
1.20327e-05
0.000199817
-6.0677e-05
3.25567e-05
0.000191992
-6.77234e-05
4.66742e-05
0.000199415
-7.64505e-05
3.91836e-05
0.000215572
-6.48285e-05
1.64195e-05
0.000221467
-2.5843e-05
-4.294e-06
0.00021031
1.3057e-05
-1.41765e-05
0.00019396
2.45963e-05
-1.42543e-05
0.000184897
1.16133e-05
-7.03282e-06
0.000185292
-5.25897e-07
1.91799e-06
0.000191639
-5.3959e-07
8.35665e-06
2.39267e-06
1.06925e-05
0.000232464
-3.12408e-06
2.16096e-05
0.000253381
-7.77741e-06
1.80398e-05
0.000261254
-4.82991e-06
5.05137e-07
0.000249404
-8.13868e-06
-2.74575e-05
0.00023123
-2.39957e-05
-5.3474e-05
0.000222291
-4.20973e-05
-7.05102e-05
0.000225456
-5.82626e-05
-7.17911e-05
0.000235681
-7.30366e-05
-5.7525e-05
0.000251296
-8.20045e-05
-3.29449e-05
0.000269009
-7.46645e-05
-4.64171e-06
0.000276849
-5.00616e-05
1.65014e-05
0.000268905
-2.7653e-05
1.97462e-05
0.00025783
-2.34674e-05
1.12762e-05
0.000259051
-2.63311e-05
6.68673e-06
0.000269067
-1.67355e-05
1.10384e-05
0.000272971
8.84961e-07
1.59914e-05
0.000267719
4.04398e-06
1.47842e-05
0.000265646
-1.60479e-05
1.07915e-05
0.000274851
-4.09458e-05
1.27635e-05
0.000283564
-4.23082e-05
1.97525e-05
0.000275418
-1.56625e-05
2.29203e-05
0.000252312
1.53249e-05
2.30098e-05
0.00023033
2.78083e-05
2.77517e-05
0.000219547
1.79947e-05
3.36232e-05
0.000220129
-9.224e-06
2.98538e-05
0.000229282
-4.27315e-05
1.4242e-05
0.000244003
-6.63936e-05
-3.40391e-06
0.000256106
-6.91092e-05
-1.30969e-05
0.000256015
-5.56583e-05
-6.94459e-06
0.000242739
-4.38321e-05
1.89523e-05
0.000226631
-4.60094e-05
4.40155e-05
0.00022217
-6.24745e-05
4.64338e-05
0.000230772
-6.4455e-05
2.60905e-05
0.000237628
-3.08869e-05
3.149e-06
0.000233685
1.40194e-05
-1.14575e-05
0.000223602
3.21936e-05
-1.70973e-05
0.000214983
2.14627e-05
-1.43217e-05
0.000210697
7.15545e-06
-4.34875e-06
0.000210576
5.10328e-06
6.35879e-06
4.21555e-06
1.5698e-05
0.000251504
-3.92682e-06
1.55044e-05
0.00027434
-1.61396e-05
2.25031e-05
0.000294289
-6.53552e-06
1.32846e-05
0.000294039
7.24837e-06
-1.41816e-05
0.000277455
-1.37658e-06
-4.43312e-05
0.000262312
-2.44333e-05
-6.7984e-05
0.000260264
-4.62968e-05
-7.90223e-05
0.000268414
-6.30788e-05
-7.40292e-05
0.000279671
-7.87923e-05
-5.40299e-05
0.000293182
-8.75083e-05
-2.48044e-05
0.000304505
-7.39348e-05
3.11597e-06
0.0003039
-4.26316e-05
1.47808e-05
0.000292692
-2.09038e-05
9.52686e-06
0.000285315
-1.93306e-05
2.82089e-06
0.000291099
-2.04722e-05
6.1733e-06
0.00030237
-1.09506e-05
1.50562e-05
0.000306508
-1.62804e-06
1.86378e-05
0.000302046
-1.01122e-05
1.40881e-05
0.000299771
-3.60733e-05
9.9061e-06
0.00030682
-5.40024e-05
1.31236e-05
0.000312832
-3.82956e-05
1.77639e-05
0.000304662
4.91038e-08
2.09804e-05
0.000286067
2.65146e-05
2.91383e-05
0.000269131
2.7695e-05
3.75518e-05
0.000259154
7.94163e-06
3.09363e-05
0.000258127
-2.58546e-05
8.05071e-06
0.000269914
-6.17667e-05
-1.31839e-05
0.0002897
-7.65822e-05
-2.38433e-05
0.000299357
-6.14877e-05
-1.92724e-05
0.000289322
-3.7422e-05
4.66897e-06
0.000268456
-2.72491e-05
3.70568e-05
0.000253565
-3.95818e-05
5.13541e-05
0.000252507
-4.94606e-05
3.71028e-05
0.000257141
-2.66488e-05
1.26582e-05
0.000259134
1.41791e-05
-7.02018e-06
0.000258069
3.32568e-05
-1.88371e-05
0.000255235
2.59581e-05
-2.23474e-05
0.000250115
1.4941e-05
-1.64551e-05
0.000244012
1.39649e-05
-6.08543e-06
1.16925e-05
4.09099e-06
0.000287838
8.68282e-07
-3.97442e-06
0.000302995
-2.0088e-05
9.09581e-06
0.000326951
-1.50701e-05
1.10865e-05
0.00033944
7.99541e-06
-6.81782e-06
0.000330541
1.35417e-05
-3.51927e-05
0.000312073
-4.78126e-06
-6.21451e-05
0.000302526
-2.82757e-05
-8.00967e-05
0.000307568
-4.78774e-05
-8.39714e-05
0.000318328
-6.78626e-05
-7.19466e-05
0.000327495
-8.74279e-05
-4.58277e-05
0.000334499
-8.74832e-05
-1.47782e-05
0.000335681
-5.80408e-05
5.8607e-06
0.000328315
-2.2726e-05
6.85095e-06
0.000319564
-9.62567e-06
3.43568e-07
0.000319975
-1.47346e-05
1.90853e-06
0.000330374
-1.65615e-05
1.27652e-05
0.000341653
-1.08046e-05
2.26181e-05
0.000344846
-1.09438e-05
2.14362e-05
0.000338904
-2.59987e-05
1.20854e-05
0.000331911
-4.52292e-05
7.20708e-06
0.000330025
-4.57161e-05
1.23164e-05
0.000327411
-2.10573e-05
2.28537e-05
0.000318086
8.99706e-06
3.43687e-05
0.000306835
2.57166e-05
3.80971e-05
0.000298924
2.25277e-05
2.45359e-05
0.000294286
-2.21197e-06
-1.2467e-06
0.000299128
-4.29135e-05
-2.34849e-05
0.000319084
-7.489e-05
-3.11508e-05
0.000338069
-7.2861e-05
-2.34289e-05
0.000335661
-4.36484e-05
-3.13643e-06
0.000314028
-2.0417e-05
2.98253e-05
0.000292322
-1.98166e-05
5.30821e-05
0.000283161
-2.62999e-05
4.81124e-05
0.000284488
-1.14235e-05
2.44307e-05
0.00028921
1.86676e-05
4.3053e-07
0.000294975
3.20751e-05
-1.73789e-05
0.000299684
2.37387e-05
-2.7118e-05
0.000299364
1.57957e-05
-2.71252e-05
0.000293654
1.9113e-05
-2.14096e-05
1.91415e-05
-1.45098e-05
0.000337411
6.67006e-06
-1.81631e-05
0.000339355
-1.31877e-05
-4.62799e-06
0.000356741
-1.66061e-05
2.00112e-06
0.000378176
2.4842e-06
-7.58292e-06
0.000382942
1.75995e-05
-2.91633e-05
0.000368633
1.11232e-05
-5.47334e-05
0.000354134
-6.27556e-06
-7.6704e-05
0.00035432
-2.54866e-05
-8.83442e-05
0.000365361
-4.9988e-05
-8.48658e-05
0.00037444
-7.8146e-05
-6.53024e-05
0.000376655
-8.971e-05
-3.474e-05
0.000374014
-6.70653e-05
-8.38315e-06
0.000367055
-2.63917e-05
1.38275e-06
0.000358777
-1.61086e-06
-9.63054e-07
0.00035629
-2.86234e-06
-6.9623e-07
0.000363528
-1.23658e-05
1.01996e-05
0.000376541
-1.52868e-05
2.48213e-05
0.000385497
-1.52921e-05
2.95132e-05
0.000380897
-2.0226e-05
1.99527e-05
0.000363444
-2.9547e-05
8.57293e-06
0.000344803
-3.38069e-05
9.22233e-06
0.000334268
-2.45557e-05
1.93123e-05
0.0003322
-6.26804e-06
2.64008e-05
0.000336074
1.21103e-05
2.2258e-05
0.000341212
2.17403e-05
6.28456e-06
0.000341938
1.2127e-05
-1.50309e-05
0.000343005
-2.05998e-05
-3.29377e-05
0.000356643
-6.18532e-05
-3.67668e-05
0.000377103
-7.82547e-05
-2.51649e-05
0.000381034
-5.51376e-05
-3.78021e-06
0.00036058
-2.24677e-05
2.6032e-05
0.000334478
-8.72891e-06
5.11335e-05
0.000320799
-6.83739e-06
5.32405e-05
0.000320777
5.68202e-06
3.35159e-05
0.000325925
2.79777e-05
9.13268e-06
0.000330627
3.64799e-05
-1.01183e-05
0.000335315
2.45269e-05
-2.33806e-05
0.000340498
1.17778e-05
-3.07085e-05
0.000343813
1.28314e-05
-3.24378e-05
1.73626e-05
-2.88378e-05
0.000380113
3.88693e-06
-1.4343e-05
0.0003743
-3.09556e-06
-2.41667e-06
0.00038063
-5.56617e-06
4.30585e-07
0.000402914
4.71893e-06
-7.77375e-06
0.000422373
1.79695e-05
-2.47161e-05
0.000422108
2.11071e-05
-4.67963e-05
0.000411205
1.43154e-05
-6.96018e-05
0.000409789
1.51869e-07
-8.68718e-05
0.000420851
-2.59653e-05
-9.1968e-05
0.000430972
-6.11466e-05
-8.1446e-05
0.000430543
-8.24351e-05
-5.65244e-05
0.000422646
-6.83879e-05
-2.72278e-05
0.000412781
-2.89477e-05
-8.53162e-06
0.000404146
2.88549e-06
-2.59015e-06
0.000400294
8.75274e-06
3.87595e-07
0.000403874
-1.26133e-06
8.20657e-06
0.000412883
-1.05318e-05
2.10889e-05
0.000420709
-1.57624e-05
3.1191e-05
0.000418618
-1.93061e-05
2.87794e-05
0.000402975
-1.98788e-05
1.51218e-05
0.000381083
-1.66024e-05
3.86663e-06
0.000366067
-1.22679e-05
3.10593e-06
0.000365627
-9.63174e-06
6.68051e-06
0.000376595
-4.79584e-06
5.51872e-06
0.00038783
5.52259e-06
-2.99171e-06
0.000390322
1.21885e-05
-1.67605e-05
0.000389393
-3.25892e-06
-2.85845e-05
0.000397989
-4.2374e-05
-3.09972e-05
0.000416028
-7.50167e-05
-2.09253e-05
0.000424213
-6.55309e-05
-1.65048e-06
0.000409047
-3.01528e-05
2.43792e-05
0.000383435
-4.92579e-06
4.91527e-05
0.000365996
7.19924e-06
5.48296e-05
0.000360359
2.22782e-05
3.7821e-05
0.000358545
4.06028e-05
1.74755e-05
0.000355698
4.37799e-05
5.45276e-06
0.000355419
2.6352e-05
-4.6107e-06
0.000362136
5.07622e-06
-1.77681e-05
0.000373859
-2.18864e-06
-2.77154e-05
2.96662e-06
-2.63065e-05
0.000418796
-3.79015e-06
-8.16218e-06
0.00041261
4.21836e-06
5.5775e-06
0.000411239
1.23546e-05
1.08213e-05
0.000425908
2.12799e-05
1.88708e-06
0.000450297
2.71319e-05
-1.8003e-05
0.000467474
2.77905e-05
-3.79389e-05
0.000472089
2.64773e-05
-5.69105e-05
0.000476787
2.13696e-05
-7.53528e-05
0.000488972
5.16137e-07
-8.90844e-05
0.000498636
-3.62711e-05
-9.08195e-05
0.000495043
-6.4475e-05
-7.54384e-05
0.000481188
-5.81975e-05
-4.84282e-05
0.000465868
-2.41113e-05
-2.39709e-05
0.000454059
6.66464e-06
-9.25193e-06
0.000448666
1.43673e-05
2.72459e-07
0.000450105
7.11071e-06
8.79598e-06
0.000453801
-1.4837e-06
1.89337e-05
0.000454331
-8.40219e-06
2.90576e-05
0.000449263
-1.44684e-05
3.08541e-05
0.000438581
-1.38393e-05
1.83805e-05
0.000426239
-5.57818e-06
3.06623e-07
0.000419072
-1.27598e-06
-8.52821e-06
0.000421538
-9.93109e-06
-5.02544e-06
0.00043034
-2.00515e-05
1.69963e-06
0.00043584
-1.35625e-05
1.89902e-06
0.000432833
4.95071e-06
-4.32697e-06
0.00042922
8.27757e-06
-1.21272e-05
0.000435361
-2.08642e-05
-1.56037e-05
0.000451834
-6.11155e-05
-1.03573e-05
0.000465361
-7.06948e-05
4.84956e-06
0.000461092
-4.16686e-05
2.58216e-05
0.000441754
-4.91728e-06
4.58201e-05
0.000420206
2.03663e-05
5.28132e-05
0.00040314
3.741e-05
4.23762e-05
0.000389904
5.07549e-05
2.59919e-05
0.000381385
5.07994e-05
1.55072e-05
0.000380902
3.12635e-05
1.03466e-05
0.000389185
3.86915e-06
2.50902e-06
0.000403703
-1.26835e-05
-9.59851e-06
-1.18111e-05
-1.55139e-05
0.000457031
8.89191e-07
3.12364e-06
0.000452509
1.37468e-05
1.26564e-05
0.000450329
2.93422e-05
1.94346e-05
0.000459442
4.1981e-05
1.61131e-05
0.000478962
4.32528e-05
3.22119e-06
0.000501097
3.4043e-05
-1.68046e-05
0.00052081
2.47469e-05
-3.62294e-05
0.000540826
2.11325e-05
-5.52284e-05
0.000560974
1.22431e-05
-7.34466e-05
0.000571664
-1.24586e-05
-8.61629e-05
0.000565492
-3.83045e-05
-8.45449e-05
0.000547177
-3.92618e-05
-6.48716e-05
0.00052702
-1.47645e-05
-3.7712e-05
0.000510695
1.03505e-05
-1.70911e-05
0.000500444
1.78491e-05
-4.72057e-06
0.000495801
1.35813e-05
5.78157e-06
0.000493511
7.84484e-06
1.70716e-05
0.000489236
1.59594e-06
2.75804e-05
0.00048247
-4.66171e-06
2.89509e-05
0.000476668
-4.69639e-06
1.5364e-05
0.00047746
1.86439e-06
-5.50874e-06
0.000485874
2.65642e-06
-1.60008e-05
0.000494798
-1.34593e-05
-7.64548e-06
0.000494582
-3.16547e-05
8.5856e-06
0.000484262
-2.89296e-05
1.67393e-05
0.000473036
-4.23349e-06
1.56052e-05
0.000471285
1.40481e-05
1.31702e-05
0.000481377
1.15439e-06
9.50649e-06
0.000498201
-3.66002e-05
4.63547e-06
0.000512321
-6.1398e-05
8.29654e-06
0.000513279
-4.59176e-05
2.46096e-05
0.000498183
-4.71618e-06
4.34661e-05
0.000474068
3.09989e-05
4.89558e-05
0.000447872
5.02501e-05
3.74929e-05
0.000426327
5.76613e-05
2.52273e-05
0.000416319
5.4859e-05
2.45165e-05
0.00041903
3.97241e-05
2.86104e-05
0.00042996
1.7473e-05
2.41833e-05
0.000443731
-8.28526e-07
1.16219e-05
-5.90543e-06
2.39826e-06
0.000514236
1.62311e-05
4.00082e-06
0.000514122
2.40805e-05
1.33606e-05
0.000510307
3.61854e-05
2.87807e-05
0.00051257
5.00032e-05
3.57575e-05
0.000523552
5.50109e-05
2.61718e-05
0.000539922
4.28132e-05
5.22089e-06
0.000560712
1.96652e-05
-1.43182e-05
0.000587429
1.97068e-06
-2.80544e-05
0.000615565
-4.58303e-06
-4.40639e-05
0.000631794
-8.45783e-06
-6.58208e-05
0.000628837
-1.58043e-05
-8.16169e-05
0.000614985
-1.71547e-05
-7.87085e-05
0.000601143
-4.09197e-06
-5.90727e-05
0.000589729
1.0661e-05
-3.44259e-05
0.000576373
1.74706e-05
-1.43798e-05
0.000560834
1.86095e-05
-6.11164e-07
0.000546203
1.74447e-05
9.63254e-06
0.000534547
1.12103e-05
1.9389e-05
0.000528431
3.17526e-07
2.74995e-05
0.000531577
-8.21319e-06
2.68851e-05
0.000546864
-1.30935e-05
1.52162e-05
0.000569665
-2.02676e-05
1.81595e-06
0.000584142
-3.29373e-05
7.22592e-07
0.00057743
-4.37782e-05
1.87966e-05
0.000554337
-3.75992e-05
4.31957e-05
0.000533691
-9.23127e-06
5.57248e-05
0.000528702
2.33432e-05
4.90455e-05
0.000537646
3.09239e-05
2.61703e-05
0.000552072
2.95958e-06
3.25858e-06
0.000564042
-3.48638e-05
-1.33467e-06
0.000564671
-4.09317e-05
1.1959e-05
0.000547645
-7.37371e-06
3.16911e-05
0.000518207
3.55627e-05
4.22511e-05
0.000487433
6.22127e-05
3.68994e-05
0.000466012
7.17145e-05
2.70583e-05
0.000459167
7.0022e-05
2.62666e-05
0.00046413
5.79215e-05
3.20104e-05
0.000475445
3.87336e-05
3.27207e-05
0.000489839
2.15604e-05
2.30037e-05
1.40214e-05
9.31176e-06
0.000571787
2.51257e-05
1.60172e-05
0.000570395
2.88795e-05
2.41229e-05
0.000565487
3.42317e-05
3.4225e-05
0.000565813
3.97153e-05
4.28119e-05
0.00057564
3.89373e-05
4.374e-05
0.000591786
2.64096e-05
3.12563e-05
0.000610196
4.67616e-06
7.57589e-06
0.000631029
-1.33239e-05
-1.77991e-05
0.00065715
-2.18675e-05
-3.74286e-05
0.000682544
-2.03271e-05
-5.22975e-05
0.000694175
-1.28932e-05
-6.4997e-05
0.000687678
-1.45264e-06
-7.24713e-05
0.0006734
1.29011e-05
-6.92322e-05
0.000661766
2.23687e-05
-5.58987e-05
0.000653688
2.29799e-05
-3.77296e-05
0.000644624
1.98359e-05
-2.10775e-05
0.000631712
1.71581e-05
-9.56598e-06
0.000615459
1.24421e-05
-4.26937e-07
0.000601882
4.06844e-06
1.0962e-05
0.000599683
-8.20926e-06
2.41934e-05
0.000612902
-2.61093e-05
3.11673e-05
0.000634011
-4.67683e-05
2.76986e-05
0.000647436
-6.01672e-05
2.08649e-05
0.000642754
-5.71119e-05
2.55562e-05
0.000623549
-3.6874e-05
4.61207e-05
0.000603197
-3.82312e-06
6.33239e-05
0.000590502
3.04103e-05
5.51421e-05
0.00058638
4.30223e-05
2.30968e-05
0.000590955
2.12373e-05
-1.04388e-05
0.000602193
-2.03548e-05
-2.13211e-05
0.000609496
-4.28215e-05
-6.35442e-06
0.000600776
-2.21038e-05
1.8404e-05
0.000576324
2.48801e-05
3.64948e-05
0.000551198
6.47998e-05
3.96914e-05
0.000537601
8.67484e-05
2.96728e-05
0.000536854
9.13806e-05
1.5959e-05
0.000542372
7.9437e-05
6.33815e-06