/*--------------------------------*- C++ -*----------------------------------*\
| =========                 |                                                 |
| \\      /  F ield         | OpenFOAM: The Open Source CFD Toolbox           |
|  \\    /   O peration     | Version:  2306                                  |
|   \\  /    A nd           | Website:  www.openfoam.com                      |
|    \\/     M anipulation  |                                                 |
\*---------------------------------------------------------------------------*/
FoamFile
{
    version     2.0;
    format      ascii;
    arch        "LSB;label=32;scalar=64";
    class       volScalarField;
    location    "7";
    object      pPrime2Mean;
}
// * * * * * * * * * * * * * * * * * * * * * * * * * * * * * * * * * * * * * //

dimensions      [0 4 -4 0 0 0 0];

internalField   nonuniform List<scalar> 
60000
(
4.48737e-09
9.06069e-09
1.8665e-08
2.82515e-08
3.42279e-08
3.56018e-08
3.33093e-08
2.8993e-08
2.41825e-08
2.22618e-08
2.66356e-08
3.55163e-08
4.29122e-08
4.34367e-08
3.57753e-08
2.36543e-08
1.32999e-08
8.02124e-09
6.27429e-09
5.58741e-09
7.0879e-09
1.4799e-08
2.91007e-08
4.40242e-08
5.14812e-08
4.70099e-08
3.37282e-08
2.2118e-08
2.05583e-08
2.7558e-08
3.57016e-08
3.81825e-08
3.3161e-08
2.4333e-08
1.68311e-08
1.28205e-08
1.20803e-08
1.26788e-08
1.10001e-08
6.58328e-09
4.28076e-09
8.70187e-09
1.83302e-08
2.80744e-08
3.4205e-08
3.56234e-08
3.32586e-08
2.88445e-08
2.39676e-08
2.20249e-08
2.6469e-08
3.54858e-08
4.29964e-08
4.3601e-08
3.59828e-08
2.38551e-08
1.3447e-08
8.10153e-09
6.3041e-09
5.56993e-09
7.01493e-09
1.46839e-08
2.89812e-08
4.39225e-08
5.14191e-08
4.69933e-08
3.37237e-08
2.20853e-08
2.05167e-08
2.75778e-08
3.58641e-08
3.85191e-08
3.36035e-08
2.47405e-08
1.71158e-08
1.2983e-08
1.21669e-08
1.27516e-08
1.10776e-08
6.5714e-09
4.00171e-09
8.34571e-09
1.81327e-08
2.81666e-08
3.45593e-08
3.60675e-08
3.35762e-08
2.89379e-08
2.38425e-08
2.17074e-08
2.6133e-08
3.5345e-08
4.31228e-08
4.39545e-08
3.64425e-08
2.42506e-08
1.367e-08
8.16135e-09
6.26992e-09
5.47684e-09
6.88033e-09
1.45702e-08
2.896e-08
4.40036e-08
5.1558e-08
4.70757e-08
3.36361e-08
2.18467e-08
2.02772e-08
2.74959e-08
3.60488e-08
3.89871e-08
3.42276e-08
2.52991e-08
1.7464e-08
1.31137e-08
1.21614e-08
1.27454e-08
1.11054e-08
6.49493e-09
3.6456e-09
7.99575e-09
1.81047e-08
2.85853e-08
3.53719e-08
3.70491e-08
3.43856e-08
2.93837e-08
2.38938e-08
2.13657e-08
2.56283e-08
3.50614e-08
4.32613e-08
4.44895e-08
3.71756e-08
2.48788e-08
1.39951e-08
8.20519e-09
6.15886e-09
5.28663e-09
6.69136e-09
1.45132e-08
2.91272e-08
4.43604e-08
5.1947e-08
4.72534e-08
3.34228e-08
2.1356e-08
1.98611e-08
2.73923e-08
3.63298e-08
3.96068e-08
3.50225e-08
2.59955e-08
1.78864e-08
1.32285e-08
1.20675e-08
1.2664e-08
1.10893e-08
6.35042e-09
3.22099e-09
7.57576e-09
1.80848e-08
2.91298e-08
3.64625e-08
3.84578e-08
3.56918e-08
3.02813e-08
2.42958e-08
2.11978e-08
2.50411e-08
3.45399e-08
4.31976e-08
4.49769e-08
3.80403e-08
2.57287e-08
1.44846e-08
8.28225e-09
5.99585e-09
5.01029e-09
6.42725e-09
1.44498e-08
2.93528e-08
4.48364e-08
5.25741e-08
4.77367e-08
3.34363e-08
2.09681e-08
1.95374e-08
2.74773e-08
3.68395e-08
4.04031e-08
3.59223e-08
2.67735e-08
1.84327e-08
1.347e-08
1.20378e-08
1.2628e-08
1.11142e-08
6.19965e-09
2.74884e-09
7.04627e-09
1.79681e-08
2.96652e-08
3.76471e-08
4.00984e-08
3.73235e-08
3.15697e-08
2.51142e-08
2.1446e-08
2.46863e-08
3.39227e-08
4.28297e-08
4.5143e-08
3.87443e-08
2.66478e-08
1.51531e-08
8.47007e-09
5.81033e-09
4.60193e-09
5.98671e-09
1.42344e-08
2.93857e-08
4.49539e-08
5.28409e-08
4.82004e-08
3.38439e-08
2.1219e-08
1.99768e-08
2.83091e-08
3.79827e-08
4.16116e-08
3.70094e-08
2.76133e-08
1.90761e-08
1.39206e-08
1.22702e-08
1.28924e-08
1.14033e-08
6.15586e-09
2.41547e-09
6.06871e-09
1.72566e-08
2.97943e-08
3.89818e-08
4.24957e-08
3.97022e-08
3.31642e-08
2.60818e-08
2.20679e-08
2.48993e-08
3.3684e-08
4.2447e-08
4.49849e-08
3.90664e-08
2.73845e-08
1.58909e-08
8.79479e-09
5.6655e-09
4.06427e-09
5.23196e-09
1.37217e-08
2.93939e-08
4.52097e-08
5.29369e-08
4.81542e-08
3.37321e-08
2.13677e-08
2.10407e-08
3.0466e-08
4.07504e-08
4.41389e-08
3.87951e-08
2.86226e-08
1.96704e-08
1.44518e-08
1.27784e-08
1.36127e-08
1.2485e-08
6.85622e-09
2.57191e-09
4.75543e-09
1.57328e-08
2.91086e-08
3.96758e-08
4.50081e-08
4.31472e-08
3.58755e-08
2.74894e-08
2.25351e-08
2.53991e-08
3.43583e-08
4.28931e-08
4.50696e-08
3.91174e-08
2.77787e-08
1.65057e-08
9.19263e-09
5.60181e-09
3.48257e-09
4.29007e-09
1.32019e-08
2.99486e-08
4.63487e-08
5.34465e-08
4.73165e-08
3.18583e-08
1.95671e-08
2.08394e-08
3.23887e-08
4.41304e-08
4.81396e-08
4.22509e-08
3.07014e-08
2.04796e-08
1.45762e-08
1.28536e-08
1.42988e-08
1.41751e-08
8.52357e-09
3.43146e-09
3.46734e-09
1.37121e-08
2.79222e-08
3.99496e-08
4.73707e-08
4.72298e-08
3.96887e-08
2.98469e-08
2.32571e-08
2.51621e-08
3.45837e-08
4.40708e-08
4.64134e-08
3.99436e-08
2.81774e-08
1.68504e-08
9.50338e-09
5.54648e-09
2.96289e-09
3.60695e-09
1.34443e-08
3.2089e-08
4.93978e-08
5.50276e-08
4.57647e-08
2.76677e-08
1.49616e-08
1.8318e-08
3.30245e-08
4.73628e-08
5.24461e-08
4.5995e-08
3.27274e-08
2.13003e-08
1.48887e-08
1.30233e-08
1.48947e-08
1.6017e-08
1.09357e-08
5.14164e-09
2.42417e-09
1.11976e-08
2.60567e-08
3.96325e-08
4.93403e-08
5.16954e-08
4.47346e-08
3.32572e-08
2.43815e-08
2.45566e-08
3.32313e-08
4.32264e-08
4.67342e-08
4.12222e-08
2.98162e-08
1.81119e-08
1.00201e-08
5.45779e-09
2.46215e-09
3.37763e-09
1.51494e-08
3.70451e-08
5.61174e-08
5.99879e-08
4.61603e-08
2.36107e-08
9.09593e-09
1.38565e-08
3.16661e-08
4.91947e-08
5.67031e-08
5.06898e-08
3.53677e-08
2.224e-08
1.51831e-08
1.33074e-08
1.56473e-08
1.79989e-08
1.39229e-08
7.55963e-09
1.93324e-09
8.11134e-09
2.26524e-08
3.76196e-08
4.97962e-08
5.56154e-08
5.08235e-08
3.81227e-08
2.6402e-08
2.37139e-08
3.07648e-08
4.03048e-08
4.44317e-08
4.0377e-08
3.07998e-08
2.03573e-08
1.18575e-08
5.94763e-09
2.08621e-09
3.53225e-09
1.81879e-08
4.50299e-08
6.76402e-08
7.04864e-08
5.19543e-08
2.3981e-08
5.48929e-09
8.91335e-09
2.74663e-08
4.70889e-08
5.8044e-08
5.49251e-08
3.98278e-08
2.53765e-08
1.70463e-08
1.41529e-08
1.61708e-08
1.92954e-08
1.66309e-08
9.2647e-09
1.98642e-09
4.95305e-09
1.76355e-08
3.29127e-08
4.69861e-08
5.67217e-08
5.60874e-08
4.43452e-08
2.99054e-08
2.38839e-08
2.8405e-08
3.63386e-08
3.98542e-08
3.64139e-08
2.88911e-08
2.08687e-08
1.38109e-08
7.58591e-09
2.7713e-09
4.28355e-09
2.10877e-08
5.23999e-08
7.91385e-08
8.25726e-08
6.16301e-08
2.99365e-08
6.32514e-09
4.62954e-09
2.05152e-08
3.98216e-08
5.40191e-08
5.64432e-08
4.53436e-08
3.08667e-08
2.12789e-08
1.6496e-08
1.68672e-08
1.9237e-08
1.75184e-08
9.82266e-09
2.25709e-09
2.40316e-09
1.20106e-08
2.60364e-08
4.05978e-08
5.32514e-08
5.76446e-08
4.93772e-08
3.42399e-08
2.51211e-08
2.71661e-08
3.34406e-08
3.56148e-08
3.12765e-08
2.43604e-08
1.8593e-08
1.39818e-08
9.47219e-09
5.50436e-09
6.89742e-09
2.25103e-08
5.32649e-08
8.15447e-08
8.72902e-08
6.78775e-08
3.70226e-08
1.06212e-08
2.20176e-09
1.2344e-08
2.92958e-08
4.49127e-08
5.32106e-08
4.88809e-08
3.6853e-08
2.67664e-08
2.03085e-08
1.85542e-08
1.89892e-08
1.68537e-08
9.53113e-09
2.7921e-09
1.19379e-09
7.21067e-09
1.86093e-08
3.22492e-08
4.59276e-08
5.40673e-08
5.02479e-08
3.70752e-08
2.64997e-08
2.66774e-08
3.23533e-08
3.43274e-08
2.93135e-08
2.17148e-08
1.62227e-08
1.30708e-08
1.04973e-08
8.59977e-09
1.05113e-08
2.29231e-08
4.87746e-08
7.60662e-08
8.47928e-08
6.99232e-08
4.2463e-08
1.62444e-08
2.72666e-09
5.90759e-09
1.91043e-08
3.44871e-08
4.66868e-08
4.86469e-08
4.11749e-08
3.17224e-08
2.40348e-08
2.00755e-08
1.85511e-08
1.56805e-08
9.69863e-09
4.53011e-09
1.96308e-09
4.33127e-09
1.21627e-08
2.40033e-08
3.70319e-08
4.66893e-08
4.66555e-08
3.70366e-08
2.72234e-08
2.62506e-08
3.17185e-08
3.49479e-08
3.12994e-08
2.36364e-08
1.70517e-08
1.31401e-08
1.04232e-08
9.1908e-09
1.14813e-08
2.1204e-08
4.1611e-08
6.62732e-08
7.82759e-08
6.89092e-08
4.5999e-08
2.20261e-08
5.70334e-09
2.99944e-09
1.22867e-08
2.6136e-08
3.92348e-08
4.57789e-08
4.30338e-08
3.53414e-08
2.71843e-08
2.1484e-08
1.82444e-08
1.48064e-08
1.04758e-08
7.10047e-09
4.56801e-09
4.04697e-09
7.95749e-09
1.71215e-08
2.83755e-08
3.7349e-08
3.93e-08
3.35153e-08
2.66333e-08
2.60825e-08
3.11579e-08
3.50201e-08
3.32384e-08
2.67062e-08
1.97221e-08
1.46221e-08
1.06387e-08
8.8428e-09
1.17759e-08
2.02344e-08
3.52374e-08
5.46516e-08
6.71217e-08
6.28039e-08
4.58608e-08
2.66705e-08
1.03839e-08
3.18985e-09
8.30553e-09
1.97647e-08
3.21282e-08
4.09335e-08
4.29718e-08
3.87978e-08
3.09892e-08
2.33169e-08
1.82205e-08
1.4397e-08
1.13123e-08
9.43624e-09
7.66654e-09
6.11924e-09
7.43503e-09
1.3198e-08
2.13499e-08
2.79588e-08
3.00908e-08
2.73817e-08
2.40751e-08
2.53384e-08
3.10612e-08
3.56759e-08
3.46255e-08
2.84482e-08
2.13973e-08
1.60784e-08
1.17614e-08
9.92133e-09
1.37056e-08
2.17701e-08
3.18912e-08
4.43429e-08
5.38821e-08
5.28892e-08
4.12196e-08
2.74219e-08
1.43236e-08
5.83389e-09
6.74287e-09
1.55498e-08
2.70803e-08
3.65772e-08
4.10138e-08
3.95605e-08
3.32893e-08
2.56264e-08
1.91786e-08
1.4618e-08
1.06042e-08
1.08605e-08
1.11438e-08
1.0253e-08
9.98112e-09
1.21476e-08
1.61299e-08
1.92019e-08
2.01635e-08
1.98321e-08
2.06687e-08
2.46537e-08
3.14563e-08
3.67332e-08
3.61708e-08
3.03499e-08
2.30034e-08
1.69029e-08
1.20807e-08
1.04849e-08
1.48743e-08
2.30434e-08
3.09872e-08
3.91722e-08
4.59566e-08
4.54091e-08
3.69814e-08
2.55537e-08
1.52484e-08
8.29367e-09
8.3107e-09
1.56929e-08
2.66041e-08
3.65891e-08
4.17451e-08
3.97084e-08
3.19116e-08
2.29615e-08
1.65996e-08
1.267e-08
9.64015e-09
1.16506e-08
1.37017e-08
1.44016e-08
1.46766e-08
1.53411e-08
1.581e-08
1.50564e-08
1.30165e-08
1.21148e-08
1.46959e-08
2.10875e-08
2.99071e-08
3.69615e-08
3.85946e-08
3.46098e-08
2.82426e-08
2.20516e-08
1.61837e-08
1.26618e-08
1.4499e-08
2.00885e-08
2.59614e-08
3.25617e-08
3.95949e-08
4.14777e-08
3.5081e-08
2.48363e-08
1.52697e-08
9.09745e-09
8.97574e-09
1.58758e-08
2.68093e-08
3.71255e-08
4.18813e-08
3.8969e-08
3.06865e-08
2.09979e-08
1.36143e-08
9.95989e-09
9.18759e-09
1.14587e-08
1.43754e-08
1.64346e-08
1.76065e-08
1.8214e-08
1.77838e-08
1.61727e-08
1.36336e-08
1.16742e-08
1.19209e-08
1.49808e-08
2.08504e-08
2.78856e-08
3.27145e-08
3.33658e-08
3.12872e-08
2.90206e-08
2.58322e-08
2.11102e-08
1.78896e-08
1.80035e-08
2.0056e-08
2.54311e-08
3.38062e-08
3.89133e-08
3.58239e-08
2.68523e-08
1.68841e-08
9.64961e-09
8.19069e-09
1.38954e-08
2.47522e-08
3.55357e-08
4.10152e-08
3.85395e-08
3.03476e-08
2.07273e-08
1.31608e-08
9.34633e-09
7.34036e-09
8.77131e-09
1.24641e-08
1.69514e-08
2.11936e-08
2.3728e-08
2.28931e-08
1.91092e-08
1.48972e-08
1.20496e-08
1.16441e-08
1.34881e-08
1.68628e-08
2.13277e-08
2.60509e-08
2.93601e-08
3.0608e-08
3.09949e-08
3.02063e-08
2.68128e-08
2.18888e-08
1.88884e-08
1.87807e-08
2.33119e-08
3.2474e-08
3.98052e-08
3.81104e-08
2.8105e-08
1.56767e-08
6.88359e-09
5.67095e-09
1.35321e-08
2.71749e-08
4.06782e-08
4.83879e-08
4.63649e-08
3.64063e-08
2.48024e-08
1.55143e-08
9.63736e-09
1.18147e-08
1.08326e-08
1.09866e-08
1.2433e-08
1.51208e-08
1.85179e-08
2.03122e-08
1.93751e-08
1.66081e-08
1.38282e-08
1.27424e-08
1.38702e-08
1.6412e-08
1.92087e-08
2.19482e-08
2.4843e-08
2.7416e-08
2.97924e-08
3.12636e-08
2.99749e-08
2.59241e-08
2.1934e-08
2.00255e-08
2.21868e-08
2.93461e-08
3.71602e-08
3.84743e-08
3.09154e-08
1.81722e-08
6.91992e-09
3.50546e-09
1.12565e-08
2.67707e-08
4.37876e-08
5.5196e-08
5.54988e-08
4.46343e-08
3.06722e-08
2.00849e-08
1.43702e-08
1.4811e-08
1.35838e-08
1.293e-08
1.25808e-08
1.25005e-08
1.34371e-08
1.51447e-08
1.62459e-08
1.64394e-08
1.62567e-08
1.62936e-08
1.70571e-08
1.87124e-08
2.0507e-08
2.21481e-08
2.38122e-08
2.54698e-08
2.68054e-08
2.75241e-08
2.71262e-08
2.51721e-08
2.26238e-08
2.08507e-08
2.12275e-08
2.52663e-08
3.06673e-08
3.2163e-08
2.68904e-08
1.75311e-08
8.99073e-09
5.28066e-09
9.27643e-09
2.03144e-08
3.35449e-08
4.34375e-08
4.58154e-08
4.06317e-08
3.20366e-08
2.38197e-08
1.78683e-08
1.6849e-08
1.27021e-08
9.89064e-09
8.90071e-09
1.01602e-08
1.34284e-08
1.78077e-08
2.15633e-08
2.32949e-08
2.30057e-08
2.17376e-08
1.9937e-08
1.82093e-08
1.74729e-08
1.87519e-08
2.17992e-08
2.55127e-08
2.87026e-08
3.02073e-08
2.9243e-08
2.59071e-08
2.16733e-08
1.85775e-08
1.73796e-08
1.89775e-08
2.34186e-08
2.71363e-08
2.61324e-08
2.06103e-08
1.38754e-08
9.51026e-09
1.02191e-08
1.67546e-08
2.64938e-08
3.50631e-08
3.90635e-08
3.79012e-08
3.34162e-08
2.78043e-08
2.20194e-08
1.90667e-08
1.38125e-08
9.70162e-09
7.75012e-09
8.58277e-09
1.23842e-08
1.78205e-08
2.29622e-08
2.58696e-08
2.64032e-08
2.52727e-08
2.34859e-08
2.2075e-08
2.1204e-08
2.11016e-08
2.25906e-08
2.59745e-08
2.96301e-08
3.19214e-08
3.15516e-08
2.77713e-08
2.18259e-08
1.58112e-08
1.1609e-08
1.15633e-08
1.61863e-08
2.26552e-08
2.65842e-08
2.57776e-08
2.14729e-08
1.68315e-08
1.46731e-08
1.67211e-08
2.26869e-08
2.96771e-08
3.46654e-08
3.64286e-08
3.46511e-08
3.01191e-08
2.45836e-08
4.20699e-09
3.64654e-15
4.24045e-09
1.50735e-08
2.88092e-08
4.02783e-08
4.45433e-08
4.05557e-08
3.2025e-08
2.61563e-08
2.82417e-08
3.56133e-08
4.07571e-08
3.90044e-08
3.09681e-08
2.09624e-08
1.37872e-08
1.09559e-08
1.01631e-08
8.83081e-09
8.50129e-09
1.47336e-08
3.07593e-08
5.20265e-08
6.80898e-08
6.88213e-08
5.28077e-08
3.19962e-08
2.06914e-08
1.99482e-08
2.33594e-08
2.67137e-08
2.78007e-08
2.49758e-08
1.90308e-08
1.43156e-08
1.45367e-08
1.7983e-08
1.89487e-08
1.32042e-08
4.40164e-09
4.11749e-12
3.99601e-09
1.46059e-08
2.82548e-08
3.98058e-08
4.42404e-08
4.03822e-08
3.18954e-08
2.60246e-08
2.81472e-08
3.56234e-08
4.08723e-08
3.91702e-08
3.11288e-08
2.10923e-08
1.38806e-08
1.10174e-08
1.02066e-08
8.84323e-09
8.41155e-09
1.44373e-08
3.02063e-08
5.13144e-08
6.7484e-08
6.85961e-08
5.29836e-08
3.2322e-08
2.09666e-08
2.01618e-08
2.3521e-08
2.68769e-08
2.80633e-08
2.53691e-08
1.94486e-08
1.46445e-08
1.4767e-08
1.81928e-08
1.92002e-08
1.34762e-08
4.68232e-09
2.5822e-11
3.81495e-09
1.4319e-08
2.80612e-08
3.98731e-08
4.4506e-08
4.06367e-08
3.196e-08
2.58801e-08
2.79711e-08
3.56021e-08
4.10341e-08
3.94235e-08
3.1373e-08
2.12743e-08
1.39917e-08
1.10853e-08
1.026e-08
8.85216e-09
8.29579e-09
1.41446e-08
2.97656e-08
5.08614e-08
6.7225e-08
6.8674e-08
5.32935e-08
3.26029e-08
2.11319e-08
2.02628e-08
2.35318e-08
2.68659e-08
2.82351e-08
2.58104e-08
1.9979e-08
1.50273e-08
1.49922e-08
1.84508e-08
1.96134e-08
1.39375e-08
5.06493e-09
9.78664e-11
3.79385e-09
1.43482e-08
2.83855e-08
4.0653e-08
4.55296e-08
4.14823e-08
3.23261e-08
2.57583e-08
2.76625e-08
3.54708e-08
4.11854e-08
3.97286e-08
3.16758e-08
2.14828e-08
1.40962e-08
1.11365e-08
1.03077e-08
8.85352e-09
8.18318e-09
1.39698e-08
2.96702e-08
5.09617e-08
6.75455e-08
6.91055e-08
5.36139e-08
3.26433e-08
2.10485e-08
2.0222e-08
2.34213e-08
2.66769e-08
2.82211e-08
2.61644e-08
2.05215e-08
1.5447e-08
1.52564e-08
1.88324e-08
2.0282e-08
1.46422e-08
5.66363e-09
2.93828e-10
3.9684e-09
1.46732e-08
2.91642e-08
4.21099e-08
4.73677e-08
4.30546e-08
3.31932e-08
2.58513e-08
2.73007e-08
3.51494e-08
4.11555e-08
3.99223e-08
3.19187e-08
2.16579e-08
1.4181e-08
1.11725e-08
1.03335e-08
8.82559e-09
8.06206e-09
1.39044e-08
2.98881e-08
5.1552e-08
6.83795e-08
6.99281e-08
5.41358e-08
3.26832e-08
2.08886e-08
2.01953e-08
2.33794e-08
2.64389e-08
2.79517e-08
2.61862e-08
2.08215e-08
1.5808e-08
1.56344e-08
1.94983e-08
2.13762e-08
1.57544e-08
6.70471e-09
7.30089e-10
4.33004e-09
1.51187e-08
3.00778e-08
4.39441e-08
4.98584e-08
4.53442e-08
3.46817e-08
2.64668e-08
2.72474e-08
3.48179e-08
4.09061e-08
3.98379e-08
3.19183e-08
2.1686e-08
1.42135e-08
1.12102e-08
1.03681e-08
8.75828e-09
7.82965e-09
1.36824e-08
2.99193e-08
5.19274e-08
6.91367e-08
7.11091e-08
5.54884e-08
3.36164e-08
2.14333e-08
2.07628e-08
2.3912e-08
2.65543e-08
2.76178e-08
2.57624e-08
2.05895e-08
1.58998e-08
1.61597e-08
2.06647e-08
2.32026e-08
1.75829e-08
8.69397e-09
1.60671e-09
4.9237e-09
1.54804e-08
3.06254e-08
4.55694e-08
5.2571e-08
4.8081e-08
3.65769e-08
2.75578e-08
2.78063e-08
3.49696e-08
4.08225e-08
3.9633e-08
3.16401e-08
2.14464e-08
1.4102e-08
1.12278e-08
1.04304e-08
8.63798e-09
7.26731e-09
1.28061e-08
2.91725e-08
5.16445e-08
6.95156e-08
7.24072e-08
5.75623e-08
3.56161e-08
2.31551e-08
2.27551e-08
2.60204e-08
2.79716e-08
2.7955e-08
2.53152e-08
1.9807e-08
1.54793e-08
1.67251e-08
2.25193e-08
2.61806e-08
2.07066e-08
1.18995e-08
3.03461e-09
5.50646e-09
1.54193e-08
3.02759e-08
4.63189e-08
5.51568e-08
5.13222e-08
3.89815e-08
2.86464e-08
2.80617e-08
3.50857e-08
4.10932e-08
3.98856e-08
3.16016e-08
2.11191e-08
1.37675e-08
1.10941e-08
1.04521e-08
8.46283e-09
6.32795e-09
1.10911e-08
2.74956e-08
5.08403e-08
6.99457e-08
7.39822e-08
5.97752e-08
3.76826e-08
2.50524e-08
2.54778e-08
2.96244e-08
3.11956e-08
2.98479e-08
2.59488e-08
1.9443e-08
1.4842e-08
1.70871e-08
2.46675e-08
3.00215e-08
2.50591e-08
1.59765e-08
5.07689e-09
6.09437e-09
1.48888e-08
2.8702e-08
4.55695e-08
5.6942e-08
5.50526e-08
4.23141e-08
3.0348e-08
2.79872e-08
3.39983e-08
4.00809e-08
3.9682e-08
3.20402e-08
2.15587e-08
1.37453e-08
1.08032e-08
1.02505e-08
8.21037e-09
5.37599e-09
9.10007e-09
2.51431e-08
4.88233e-08
6.84059e-08
7.28015e-08
5.87977e-08
3.73299e-08
2.57793e-08
2.78748e-08
3.37125e-08
3.54193e-08
3.25434e-08
2.73026e-08
2.00823e-08
1.51343e-08
1.77342e-08
2.63762e-08
3.33833e-08
2.96836e-08
2.02958e-08
7.80842e-09
6.86694e-09
1.44242e-08
2.66694e-08
4.34731e-08
5.74924e-08
5.85719e-08
4.65874e-08
3.28156e-08
2.83167e-08
3.26806e-08
3.81187e-08
3.81535e-08
3.17137e-08
2.23706e-08
1.46652e-08
1.1041e-08
9.97982e-09
7.8942e-09
4.87352e-09
7.98835e-09
2.36372e-08
4.71292e-08
6.5791e-08
6.86773e-08
5.33912e-08
3.2555e-08
2.37051e-08
2.90551e-08
3.78203e-08
4.10294e-08
3.7068e-08
2.97982e-08
2.11384e-08
1.5728e-08
1.88004e-08
2.80048e-08
3.58532e-08
3.36624e-08
2.42491e-08
1.08987e-08
7.54934e-09
1.37007e-08
2.4675e-08
4.07653e-08
5.69477e-08
6.1412e-08
5.12722e-08
3.60424e-08
2.89023e-08
3.13717e-08
3.57623e-08
3.56526e-08
3.00826e-08
2.23129e-08
1.5685e-08
1.19201e-08
1.01803e-08
7.76047e-09
4.95405e-09
8.4363e-09
2.44945e-08
4.79088e-08
6.47653e-08
6.44453e-08
4.65778e-08
2.58094e-08
1.90369e-08
2.77057e-08
4.03485e-08
4.67043e-08
4.36572e-08
3.53062e-08
2.46854e-08
1.75031e-08
1.96595e-08
2.85273e-08
3.64468e-08
3.59639e-08
2.64217e-08
1.32107e-08
7.36302e-09
1.15023e-08
2.16627e-08
3.68581e-08
5.44125e-08
6.27733e-08
5.52965e-08
3.97923e-08
2.97957e-08
3.02226e-08
3.37319e-08
3.32523e-08
2.79208e-08
2.12911e-08
1.60241e-08
1.27988e-08
1.08114e-08
8.22322e-09
5.98201e-09
1.06145e-08
2.78735e-08
5.19265e-08
6.72764e-08
6.37735e-08
4.32263e-08
2.18153e-08
1.44495e-08
2.32188e-08
3.83365e-08
4.85005e-08
4.87542e-08
4.16167e-08
3.04484e-08
2.18641e-08
2.2268e-08
2.94685e-08
3.58315e-08
3.59432e-08
2.62616e-08
1.40625e-08
6.31826e-09
8.13855e-09
1.71409e-08
3.12658e-08
4.85334e-08
5.99313e-08
5.69146e-08
4.32075e-08
3.16995e-08
3.02963e-08
3.31376e-08
3.21491e-08
2.61934e-08
1.97394e-08
1.56219e-08
1.34467e-08
1.17664e-08
9.49277e-09
8.21483e-09
1.36291e-08
3.09218e-08
5.49357e-08
6.99111e-08
6.49139e-08
4.36769e-08
2.26028e-08
1.2926e-08
1.7838e-08
3.14787e-08
4.39356e-08
4.86777e-08
4.56029e-08
3.68645e-08
2.8131e-08
2.61285e-08
3.05997e-08
3.43781e-08
3.39032e-08
2.41277e-08
1.34915e-08
4.83869e-09
4.28683e-09
1.17258e-08
2.45041e-08
4.05445e-08
5.34135e-08
5.45562e-08
4.47692e-08
3.45069e-08
3.17519e-08
3.40222e-08
3.28942e-08
2.64684e-08
1.9452e-08
1.54391e-08
1.39382e-08
1.28286e-08
1.12262e-08
1.06235e-08
1.51303e-08
2.95573e-08
5.11065e-08
6.6315e-08
6.27655e-08
4.42434e-08
2.52854e-08
1.43001e-08
1.4509e-08
2.35517e-08
3.49158e-08
4.24134e-08
4.43066e-08
4.07038e-08
3.43317e-08
3.02632e-08
3.07645e-08
3.16364e-08
3.02491e-08
2.12571e-08
1.25676e-08
3.97894e-09
1.26814e-09
6.58219e-09
1.77724e-08
3.21987e-08
4.53998e-08
4.96598e-08
4.42923e-08
3.66243e-08
3.36034e-08
3.50804e-08
3.46756e-08
2.94999e-08
2.24401e-08
1.67888e-08
1.36001e-08
1.15517e-08
1.0319e-08
1.09381e-08
1.52914e-08
2.68242e-08
4.54086e-08
6.08939e-08
6.04062e-08
4.49737e-08
2.7423e-08
1.59007e-08
1.26514e-08
1.75677e-08
2.68973e-08
3.52628e-08
4.03372e-08
4.09647e-08
3.74293e-08
3.2734e-08
3.03896e-08
2.90583e-08
2.6435e-08
1.75888e-08
1.14968e-08
4.42315e-09
1.62132e-10
2.44895e-09
1.1144e-08
2.32568e-08
3.5391e-08
4.17631e-08
4.06967e-08
3.67651e-08
3.50251e-08
3.65482e-08
3.67362e-08
3.24044e-08
2.53958e-08
1.82379e-08
1.30126e-08
9.77855e-09
8.79545e-09
1.12584e-08
1.70304e-08
2.68942e-08
4.19904e-08
5.62528e-08
5.78804e-08
4.50945e-08
2.93734e-08
1.76622e-08
1.16759e-08
1.36657e-08
2.17032e-08
3.07007e-08
3.78439e-08
4.15473e-08
3.9885e-08
3.44181e-08
2.89835e-08
2.55831e-08
2.20462e-08
1.53742e-08
1.12812e-08
6.06571e-09
2.03412e-09
2.41331e-09
7.25735e-09
1.45254e-08
2.23625e-08
2.81327e-08
3.08078e-08
3.2932e-08
3.6062e-08
3.95001e-08
4.01206e-08
3.53805e-08
2.74882e-08
1.93707e-08
1.35611e-08
9.94348e-09
8.73887e-09
1.19318e-08
1.8977e-08
2.79822e-08
3.92337e-08
5.02426e-08
5.22917e-08
4.19066e-08
2.84485e-08
1.82783e-08
1.20218e-08
1.19944e-08
1.86068e-08
2.78287e-08
3.60068e-08
4.10251e-08
4.08427e-08
3.5456e-08
2.84238e-08
2.31811e-08
1.90053e-08
1.41098e-08
1.25968e-08
9.93775e-09
7.18777e-09
6.83112e-09
8.85496e-09
1.13851e-08
1.34123e-08
1.51998e-08
1.85005e-08
2.50862e-08
3.4292e-08
4.2023e-08
4.41335e-08
3.95015e-08
3.01114e-08
2.01605e-08
1.35762e-08
1.04086e-08
9.5113e-09
1.27025e-08
1.97954e-08
2.82924e-08
3.76523e-08
4.65136e-08
4.85008e-08
3.98414e-08
2.71703e-08
1.7211e-08
1.14077e-08
1.13077e-08
1.73298e-08
2.63755e-08
3.47091e-08
3.99949e-08
3.99773e-08
3.40502e-08
2.578e-08
1.9383e-08
1.58734e-08
1.32842e-08
1.43937e-08
1.43958e-08
1.37091e-08
1.4017e-08
1.48895e-08
1.39359e-08
1.10048e-08
8.23267e-09
8.70965e-09
1.42054e-08
2.41847e-08
3.57768e-08
4.30801e-08
4.237e-08
3.50854e-08
2.55363e-08
1.78926e-08
1.3196e-08
1.09651e-08
1.26265e-08
1.84063e-08
2.59014e-08
3.41324e-08
4.26348e-08
4.60098e-08
3.95309e-08
2.74295e-08
1.69114e-08
1.09188e-08
1.06585e-08
1.61827e-08
2.50218e-08
3.36035e-08
3.83019e-08
3.74881e-08
3.17572e-08
2.34557e-08
1.64154e-08
1.3242e-08
1.27188e-08
1.48887e-08
1.6838e-08
1.74574e-08
1.72122e-08
1.64609e-08
1.49246e-08
1.23027e-08
9.40587e-09
7.90104e-09
9.33995e-09
1.45365e-08
2.28759e-08
3.11831e-08
3.56693e-08
3.47761e-08
3.02082e-08
2.56039e-08
2.15708e-08
1.72585e-08
1.42884e-08
1.50318e-08
1.95961e-08
2.73225e-08
3.68981e-08
4.30511e-08
4.01191e-08
2.99067e-08
1.8734e-08
1.17134e-08
1.09795e-08
1.62694e-08
2.47194e-08
3.24267e-08
3.57398e-08
3.36284e-08
2.78494e-08
2.05989e-08
1.46154e-08
1.21225e-08
1.07137e-08
1.2783e-08
1.56883e-08
1.83751e-08
2.07127e-08
2.16674e-08
1.95129e-08
1.50797e-08
1.07784e-08
8.13034e-09
7.928e-09
1.04058e-08
1.51948e-08
2.14803e-08
2.73457e-08
3.11256e-08
3.24484e-08
3.20723e-08
2.98214e-08
2.50015e-08
1.94396e-08
1.69564e-08
1.91814e-08
2.54134e-08
3.3869e-08
3.94888e-08
3.68303e-08
2.69607e-08
1.62057e-08
9.51315e-09
9.86004e-09
1.69881e-08
2.73098e-08
3.62745e-08
3.94746e-08
3.60961e-08
2.92321e-08
2.14625e-08
1.49157e-08
1.11058e-08
1.42037e-08
1.44849e-08
1.48384e-08
1.54003e-08
1.6651e-08
1.81906e-08
1.80025e-08
1.56259e-08
1.25453e-08
1.03049e-08
9.9267e-09
1.12456e-08
1.35983e-08
1.632e-08
1.93935e-08
2.28323e-08
2.65414e-08
2.99688e-08
3.22687e-08
3.18354e-08
2.86609e-08
2.55388e-08
2.44072e-08
2.61026e-08
3.04225e-08
3.43632e-08
3.3258e-08
2.59562e-08
1.59879e-08
8.47922e-09
7.51261e-09
1.4267e-08
2.57315e-08
3.69277e-08
4.28393e-08
4.06651e-08
3.32282e-08
2.46254e-08
1.8065e-08
1.4786e-08
1.56556e-08
1.51966e-08
1.52482e-08
1.49449e-08
1.47541e-08
1.49897e-08
1.52038e-08
1.45662e-08
1.32568e-08
1.25115e-08
1.33634e-08
1.56725e-08
1.83528e-08
2.00964e-08
2.04267e-08
2.02302e-08
2.06209e-08
2.19535e-08
2.38308e-08
2.51316e-08
2.48131e-08
2.37627e-08
2.34975e-08
2.49341e-08
2.8294e-08
3.19836e-08
3.20645e-08
2.63842e-08
1.75697e-08
1.03892e-08
8.27276e-09
1.24407e-08
2.15281e-08
3.17202e-08
3.83248e-08
3.8801e-08
3.43744e-08
2.80653e-08
2.22293e-08
1.79142e-08
1.71855e-08
1.43685e-08
1.24049e-08
1.12137e-08
1.13354e-08
1.27281e-08
1.51651e-08
1.75064e-08
1.88455e-08
1.91298e-08
1.89237e-08
1.86588e-08
1.85238e-08
1.8664e-08
1.96257e-08
2.15282e-08
2.38826e-08
2.57719e-08
2.63822e-08
2.53731e-08
2.31437e-08
2.06286e-08
1.93322e-08
1.96695e-08
2.14825e-08
2.454e-08
2.66254e-08
2.49287e-08
1.96152e-08
1.39331e-08
1.117e-08
1.28456e-08
1.88839e-08
2.71404e-08
3.38727e-08
3.6298e-08
3.44246e-08
3.0396e-08
2.58175e-08
2.12119e-08
1.93895e-08
1.41578e-08
9.88003e-09
7.60891e-09
8.08144e-09
1.12591e-08
1.61224e-08
2.10358e-08
2.42421e-08
2.5259e-08
2.48389e-08
2.37395e-08
2.26725e-08
2.17966e-08
2.14187e-08
2.2422e-08
2.50664e-08
2.79361e-08
2.95529e-08
2.90397e-08
2.58562e-08
2.06841e-08
1.57609e-08
1.30271e-08
1.36419e-08
1.75353e-08
2.25196e-08
2.50443e-08
2.38728e-08
2.04813e-08
1.73484e-08
1.61968e-08
1.79607e-08
2.25636e-08
2.7677e-08
3.13295e-08
3.26671e-08
3.1806e-08
2.88937e-08
2.45973e-08
5.72267e-09
2.7299e-09
2.12171e-09
5.41744e-09
1.29677e-08
2.32376e-08
3.19632e-08
3.46771e-08
3.04132e-08
2.3947e-08
2.21651e-08
2.6405e-08
3.14756e-08
3.19897e-08
2.7104e-08
2.02225e-08
1.55031e-08
1.37936e-08
1.30534e-08
1.19202e-08
1.19346e-08
1.7062e-08
2.95492e-08
4.57286e-08
5.82362e-08
6.13895e-08
5.38509e-08
3.99124e-08
2.79373e-08
2.33681e-08
2.46889e-08
2.86953e-08
3.12008e-08
2.95484e-08
2.41803e-08
1.80388e-08
1.44177e-08
1.31052e-08
1.15009e-08
8.93705e-09
5.8101e-09
2.72239e-09
2.0223e-09
5.23256e-09
1.27115e-08
2.29654e-08
3.17642e-08
3.46072e-08
3.04542e-08
2.40313e-08
2.22299e-08
2.64527e-08
3.1531e-08
3.2056e-08
2.71563e-08
2.02491e-08
1.55083e-08
1.37964e-08
1.30552e-08
1.19012e-08
1.18661e-08
1.69094e-08
2.92938e-08
4.53686e-08
5.78189e-08
6.10098e-08
5.35654e-08
3.97054e-08
2.77091e-08
2.30788e-08
2.4412e-08
2.8609e-08
3.14598e-08
3.01058e-08
2.48384e-08
1.86073e-08
1.48328e-08
1.3416e-08
1.17368e-08
9.09739e-09
5.81099e-09
2.64091e-09
1.87396e-09
5.04976e-09
1.25336e-08
2.2876e-08
3.1837e-08
3.48174e-08
3.06881e-08
2.41562e-08
2.22281e-08
2.64277e-08
3.15697e-08
3.21598e-08
2.72657e-08
2.03142e-08
1.5546e-08
1.38337e-08
1.30849e-08
1.18873e-08
1.1769e-08
1.67116e-08
2.90439e-08
4.51407e-08
5.76434e-08
6.09266e-08
5.3547e-08
3.96408e-08
2.74506e-08
2.26046e-08
2.38193e-08
2.82156e-08
3.16163e-08
3.08215e-08
2.58353e-08
1.95069e-08
1.54339e-08
1.37742e-08
1.1932e-08
9.17597e-09
5.70288e-09
2.46599e-09
1.66676e-09
4.86911e-09
1.24523e-08
2.30188e-08
3.22506e-08
3.536e-08
3.11028e-08
2.42595e-08
2.20817e-08
2.62703e-08
3.15629e-08
3.22951e-08
2.74464e-08
2.04637e-08
1.56719e-08
1.39609e-08
1.31822e-08
1.19022e-08
1.16813e-08
1.65664e-08
2.89809e-08
4.52721e-08
5.7927e-08
6.12934e-08
5.38588e-08
3.97344e-08
2.71981e-08
2.20178e-08
2.29569e-08
2.7443e-08
3.15072e-08
3.15189e-08
2.70569e-08
2.0745e-08
1.63101e-08
1.42689e-08
1.21271e-08
9.16509e-09
5.51749e-09
2.22518e-09
1.41674e-09
4.67492e-09
1.24163e-08
2.33237e-08
3.29437e-08
3.6186e-08
3.16523e-08
2.4292e-08
2.17182e-08
2.58629e-08
3.136e-08
3.23075e-08
2.76217e-08
2.0676e-08
1.59306e-08
1.42438e-08
1.34009e-08
1.19672e-08
1.16065e-08
1.65097e-08
2.92015e-08
4.58931e-08
5.88396e-08
6.22447e-08
5.46108e-08
4.0077e-08
2.70894e-08
2.15677e-08
2.20958e-08
2.63975e-08
3.10026e-08
3.19223e-08
2.82424e-08
2.22499e-08
1.75871e-08
1.50801e-08
1.24463e-08
9.11451e-09
5.31968e-09
1.9672e-09
1.14783e-09
4.43909e-09
1.23416e-08
2.36902e-08
3.38391e-08
3.72667e-08
3.2358e-08
2.4307e-08
2.11593e-08
2.51049e-08
3.07248e-08
3.19315e-08
2.74645e-08
2.08023e-08
1.63093e-08
1.47325e-08
1.37954e-08
1.21081e-08
1.1457e-08
1.62501e-08
2.92692e-08
4.66714e-08
6.03231e-08
6.40754e-08
5.6354e-08
4.1192e-08
2.75162e-08
2.16433e-08
2.16929e-08
2.54731e-08
3.02185e-08
3.18551e-08
2.90831e-08
2.38446e-08
1.93491e-08
1.64496e-08
1.31141e-08
9.14664e-09
5.24253e-09
1.77168e-09
9.0023e-10
4.13769e-09
1.20532e-08
2.38125e-08
3.46901e-08
3.85404e-08
3.33313e-08
2.4526e-08
2.0661e-08
2.41392e-08
2.95434e-08
3.07541e-08
2.66206e-08
2.05663e-08
1.66766e-08
1.54079e-08
1.44076e-08
1.23691e-08
1.1156e-08
1.53529e-08
2.823e-08
4.62838e-08
6.13277e-08
6.664e-08
5.98143e-08
4.41959e-08
2.93638e-08
2.29266e-08
2.24381e-08
2.54052e-08
2.97748e-08
3.15856e-08
2.94651e-08
2.53482e-08
2.16809e-08
1.86937e-08
1.44958e-08
9.53738e-09
5.56439e-09
1.80339e-09
7.51257e-10
3.79158e-09
1.14496e-08
2.33134e-08
3.48946e-08
3.94693e-08
3.4387e-08
2.51472e-08
2.05408e-08
2.33202e-08
2.82432e-08
2.92691e-08
2.53765e-08
2.01892e-08
1.71518e-08
1.62496e-08
1.51777e-08
1.27285e-08
1.06752e-08
1.36834e-08
2.58053e-08
4.42983e-08
6.11337e-08
6.90759e-08
6.44286e-08
4.89085e-08
3.28712e-08
2.54139e-08
2.42795e-08
2.64193e-08
3.04266e-08
3.2254e-08
3.02792e-08
2.70272e-08
2.46094e-08
2.20815e-08
1.70752e-08
1.07401e-08
6.67519e-09
2.19913e-09
8.26828e-10
3.50605e-09
1.06656e-08
2.23028e-08
3.43169e-08
3.96038e-08
3.50426e-08
2.57971e-08
2.06387e-08
2.23934e-08
2.6428e-08
2.72203e-08
2.4032e-08
2.03178e-08
1.87241e-08
1.81793e-08
1.66023e-08
1.33615e-08
1.01483e-08
1.1461e-08
2.22958e-08
4.09705e-08
5.95147e-08
6.98929e-08
6.73893e-08
5.29104e-08
3.67139e-08
2.85197e-08
2.62142e-08
2.70065e-08
3.07901e-08
3.35923e-08
3.25792e-08
3.03798e-08
2.89307e-08
2.66639e-08
2.10842e-08
1.32478e-08
8.92947e-09
3.07396e-09
1.02199e-09
3.31794e-09
9.86176e-09
2.09744e-08
3.31518e-08
3.90214e-08
3.49618e-08
2.59591e-08
2.04404e-08
2.10703e-08
2.38992e-08
2.43168e-08
2.21235e-08
2.07182e-08
2.12293e-08
2.14083e-08
1.93232e-08
1.50583e-08
1.04462e-08
9.68421e-09
1.84674e-08
3.6465e-08
5.59555e-08
6.80269e-08
6.69258e-08
5.35858e-08
3.82928e-08
3.06213e-08
2.79146e-08
2.70296e-08
2.99048e-08
3.37558e-08
3.47001e-08
3.48767e-08
3.53477e-08
3.295e-08
2.61658e-08
1.70093e-08
1.21439e-08
4.70926e-09
1.17458e-09
2.91648e-09
9.11083e-09
1.99433e-08
3.23765e-08
3.84794e-08
3.43955e-08
2.517e-08
1.93394e-08
1.94057e-08
2.17537e-08
2.2241e-08
2.09106e-08
2.09802e-08
2.30151e-08
2.39829e-08
2.20177e-08
1.74235e-08
1.20105e-08
9.53802e-09
1.57808e-08
3.18203e-08
5.0891e-08
6.36718e-08
6.37197e-08
5.13976e-08
3.72854e-08
3.04287e-08
2.84601e-08
2.68572e-08
2.82276e-08
3.23522e-08
3.51625e-08
3.78258e-08
4.12004e-08
3.95867e-08
3.16668e-08
2.12691e-08
1.52526e-08
6.85919e-09
1.50286e-09
1.89955e-09
7.66278e-09
1.85464e-08