/*--------------------------------*- C++ -*----------------------------------*\
| =========                 |                                                 |
| \\      /  F ield         | OpenFOAM: The Open Source CFD Toolbox           |
|  \\    /   O peration     | Version:  2306                                  |
|   \\  /    A nd           | Website:  www.openfoam.com                      |
|    \\/     M anipulation  |                                                 |
\*---------------------------------------------------------------------------*/
FoamFile
{
    version     2.0;
    format      ascii;
    arch        "LSB;label=32;scalar=64";
    class       volVectorField;
    location    "7";
    object      U;
}
// * * * * * * * * * * * * * * * * * * * * * * * * * * * * * * * * * * * * * //

dimensions      [0 1 -1 0 0 0 0];

internalField   nonuniform List<vector> 
60000
(
(0.00728771 3.63353e-05 0.000134043)
(0.00788281 3.00465e-05 0.000351051)
(0.00855427 2.7938e-05 0.000751626)
(0.00913123 3.38552e-05 0.00135452)
(0.00939141 4.13358e-05 0.00202873)
(0.00923843 3.89792e-05 0.00254568)
(0.00882492 2.75675e-05 0.0027461)
(0.00842714 1.62092e-05 0.00261044)
(0.00816146 9.94336e-06 0.00223466)
(0.0079833 7.27905e-06 0.00176491)
(0.00782456 4.09673e-06 0.0013596)
(0.00759685 -1.96385e-06 0.00113)
(0.00720798 -8.21698e-06 0.0010689)
(0.00663077 -8.86696e-06 0.00110397)
(0.00599247 -4.88368e-06 0.00115137)
(0.00552115 -2.8468e-07 0.00115457)
(0.00533852 -1.07726e-08 0.00107064)
(0.00539655 -6.63005e-06 0.00084912)
(0.00556562 -1.52825e-05 0.000548804)
(0.0057373 -1.65592e-05 0.000285527)
(0.00592584 -1.01717e-05 7.40222e-05)
(0.00620134 -4.60205e-06 -0.000108199)
(0.00654212 9.85223e-06 -0.000238857)
(0.00686399 2.36307e-05 -0.000299268)
(0.00713766 2.80336e-05 -0.000371096)
(0.00739037 2.09775e-05 -0.000590802)
(0.00769865 2.45423e-07 -0.00107249)
(0.00810647 -2.10865e-05 -0.00173283)
(0.00848516 -3.01501e-05 -0.00226972)
(0.00860801 -2.57796e-05 -0.002458)
(0.00836336 -1.32445e-05 -0.00244711)
(0.00781918 2.30939e-06 -0.00245608)
(0.00712921 1.49308e-05 -0.00239087)
(0.00648297 1.30565e-05 -0.00220687)
(0.00603479 4.30604e-06 -0.00203815)
(0.00586216 2.78539e-06 -0.0018813)
(0.00595948 4.12231e-06 -0.00159513)
(0.00621649 9.59811e-06 -0.00111772)
(0.00651055 2.01691e-05 -0.000565397)
(0.00683789 3.13008e-05 -0.000122952)
(0.0219606 0.000155204 0.000348813)
(0.0238419 0.000115409 0.00103705)
(0.0258143 0.000127672 0.00222078)
(0.0275066 0.00019272 0.00386445)
(0.0284359 0.000260175 0.00556174)
(0.0282466 0.000261752 0.00676098)
(0.0271543 0.00019673 0.00712866)
(0.0259062 0.000117962 0.00668053)
(0.0250072 6.65787e-05 0.00570097)
(0.0244441 4.42057e-05 0.00455354)
(0.0239963 3.12172e-05 0.00358048)
(0.0233346 1.16251e-05 0.00299036)
(0.0221704 -8.98208e-06 0.00278798)
(0.020496 -2.76264e-05 0.00285955)
(0.0187069 -5.95238e-05 0.00300639)
(0.0173541 -0.000104918 0.00301512)
(0.0167015 -0.000149856 0.0027342)
(0.0166272 -0.000181733 0.00213864)
(0.0168485 -0.000182632 0.00142356)
(0.0171746 -0.00014478 0.000801373)
(0.0176596 -8.66835e-05 0.000283123)
(0.0184002 -2.63334e-05 -0.000164161)
(0.0193135 5.3616e-05 -0.000490824)
(0.0202737 0.000101506 -0.000691001)
(0.0212881 7.71818e-05 -0.000961682)
(0.0224255 -3.10988e-05 -0.00161585)
(0.02377 -0.000186542 -0.00289016)
(0.0252379 -0.000291092 -0.00453008)
(0.0263494 -0.000267477 -0.00583304)
(0.0265221 -0.000141186 -0.006362)
(0.0256079 5.20076e-06 -0.00642196)
(0.0239762 0.000109413 -0.00633136)
(0.0221404 0.000126568 -0.00600145)
(0.0204569 5.36131e-05 -0.00559909)
(0.0190797 -3.0537e-05 -0.00535605)
(0.0182097 -5.50087e-05 -0.00501598)
(0.0180461 -3.11604e-05 -0.00417411)
(0.0184864 3.40057e-05 -0.00283114)
(0.0192925 0.000113702 -0.00140158)
(0.0204167 0.000161385 -0.000320152)
(0.0364339 0.000295246 -2.54324e-05)
(0.0396626 0.000191325 0.00104394)
(0.0430364 0.000225309 0.00287446)
(0.046082 0.000371227 0.00541058)
(0.0481452 0.000511589 0.00800512)
(0.0484691 0.000515137 0.00986098)
(0.0469734 0.000392708 0.010516)
(0.0447348 0.000241783 0.00997782)
(0.0429306 0.000134751 0.00864875)
(0.041836 8.10579e-05 0.0070681)
(0.0411122 5.05581e-05 0.00568539)
(0.0401539 1.13525e-05 0.00472151)
(0.0384417 -2.81118e-05 0.00421922)
(0.035921 -7.64437e-05 0.00417382)
(0.0330946 -0.000170828 0.00440672)
(0.0306839 -0.000303089 0.00452627)
(0.0291454 -0.000422611 0.00417726)
(0.0284772 -0.000488692 0.00334333)
(0.0284042 -0.000465597 0.00235571)
(0.0286895 -0.000357744 0.00149991)
(0.0293576 -0.00020884 0.000777455)
(0.0304663 -4.19644e-05 0.000142661)
(0.0318909 0.000127892 -0.00033031)
(0.033519 0.000189055 -0.00060854)
(0.0354048 5.87999e-05 -0.000932284)
(0.0376176 -0.000269334 -0.00176049)
(0.0402061 -0.000669938 -0.00350351)
(0.0429601 -0.000901789 -0.00591439)
(0.0450534 -0.000795655 -0.00803332)
(0.0455196 -0.000432426 -0.00915067)
(0.0441615 -3.28581e-05 -0.00949142)
(0.0416689 0.000222468 -0.00933886)
(0.0389149 0.000237358 -0.00871265)
(0.0363326 5.54999e-05 -0.00811627)
(0.0339173 -0.000123225 -0.00795526)
(0.0318673 -0.000162114 -0.00773602)
(0.0307353 -8.93598e-05 -0.00668294)
(0.0308019 6.80777e-05 -0.0047484)
(0.031877 0.000246908 -0.002631)
(0.0337604 0.00033384 -0.00102916)
(0.0497581 0.000352973 -0.00160547)
(0.054276 0.000130011 -0.000387616)
(0.0591433 0.00015883 0.00184253)
(0.0638567 0.000409941 0.00513195)
(0.0676781 0.000651826 0.0086685)
(0.0693717 0.000683512 0.0114208)
(0.0681176 0.000545296 0.01275)
(0.0649252 0.000360763 0.0125277)
(0.0618706 0.000207372 0.0111637)
(0.0599782 0.000109931 0.00939375)
(0.0589521 5.05927e-05 0.00780348)
(0.0578989 -4.65021e-06 0.00653801)
(0.0560171 -5.24333e-05 0.00558147)
(0.0530961 -0.000120529 0.0051416)
(0.0495388 -0.000279694 0.00531629)
(0.0459795 -0.000520986 0.00566037)
(0.0430025 -0.000753024 0.00547386)
(0.0409959 -0.000891862 0.00457028)
(0.0400308 -0.000865564 0.00342686)
(0.0399209 -0.000683611 0.00246519)
(0.0405609 -0.000416195 0.0016746)
(0.0418806 -0.000101354 0.000969744)
(0.0437085 0.000184507 0.000456584)
(0.045949 0.000237354 0.000258357)
(0.0486793 -8.61314e-05 0.000177131)
(0.0519039 -0.000764106 -0.000358106)
(0.055646 -0.00155707 -0.00204232)
(0.059786 -0.0019914 -0.00495578)
(0.0633352 -0.0017513 -0.00809686)
(0.0647921 -0.00102651 -0.0103088)
(0.0636629 -0.000230327 -0.0114423)
(0.0608367 0.000280886 -0.0115888)
(0.0575293 0.000331347 -0.0107625)
(0.0542944 2.24471e-05 -0.00984239)
(0.0509535 -0.000269128 -0.0097012)
(0.0474541 -0.000328817 -0.00987459)
(0.0445102 -0.000211749 -0.00917235)
(0.0431826 4.06378e-05 -0.00719234)
(0.0438413 0.000332812 -0.00471994)
(0.0461392 0.00046046 -0.00277663)
(0.060814 0.000195429 -0.004922)
(0.0661543 -0.000253745 -0.00398119)
(0.0723689 -0.000366271 -0.00178215)
(0.0789416 3.17231e-05 0.00197733)
(0.0851695 0.000495371 0.00653712)
(0.0893841 0.000624369 0.0106323)
(0.0896298 0.000547645 0.0132975)
(0.0860927 0.000417026 0.0140552)
(0.0815904 0.000267204 0.0130897)
(0.0785092 0.000126582 0.0113518)
(0.0770387 2.25859e-05 0.00979755)
(0.0760517 -5.35035e-05 0.00853223)
(0.0744017 -9.63883e-05 0.00720272)
(0.0716329 -0.000149271 0.00607887)
(0.0679227 -0.000326569 0.00581968)
(0.0635615 -0.000640284 0.00631349)
(0.0589027 -0.000990364 0.00652201)
(0.0547047 -0.00126675 0.00576818)
(0.0518585 -0.00133002 0.00455744)
(0.050642 -0.00113702 0.00358747)
(0.0508313 -0.000758613 0.00289222)
(0.0520928 -0.000258595 0.0023015)
(0.0541106 0.000189321 0.001928)
(0.0567308 0.000230168 0.00202998)
(0.0599831 -0.000373066 0.00253385)
(0.0636937 -0.00158112 0.00284627)
(0.0677964 -0.00301542 0.00204522)
(0.0727964 -0.00388345 -0.000592784)
(0.0783992 -0.00348768 -0.00468642)
(0.0822635 -0.00214519 -0.00872725)
(0.0827818 -0.000746549 -0.0116448)
(0.0806897 0.000172616 -0.0129533)
(0.0774754 0.000374332 -0.0123759)
(0.0739586 -2.69696e-05 -0.0110518)
(0.0700429 -0.000435626 -0.0106465)
(0.065394 -0.000518812 -0.0111574)
(0.0603514 -0.000375639 -0.0111756)
(0.0564727 -7.91583e-05 -0.00982327)
(0.0553155 0.000286965 -0.00765319)
(0.0569699 0.000436704 -0.00585518)
(0.0695372 -0.000239647 -0.00965104)
(0.0742303 -0.00111517 -0.00966543)
(0.0805639 -0.00164618 -0.00824442)
(0.0881358 -0.00132979 -0.00494178)
(0.096871 -0.000594421 3.43694e-05)
(0.105128 -7.72594e-08 0.00583019)
(0.109056 0.0002476 0.0108728)
(0.106893 0.000308745 0.0137727)
(0.101403 0.000271115 0.0140444)
(0.0967962 0.000117662 0.0126202)
(0.0946201 -4.27222e-05 0.0112226)
(0.09376 -0.000158148 0.0103969)
(0.0926229 -0.000194153 0.00923473)
(0.0904738 -0.000195815 0.00745446)
(0.0873185 -0.000310992 0.00625369)
(0.0830726 -0.000595004 0.00646334)
(0.0773865 -0.000980515 0.00710192)
(0.0707242 -0.0014032 0.00676211)
(0.0648244 -0.00168772 0.00559204)
(0.0612108 -0.00164869 0.00461469)
(0.0600752 -0.00124456 0.00410037)
(0.0607735 -0.000541591 0.00379711)
(0.0626129 0.000139972 0.00375034)
(0.0652044 0.000211106 0.00431084)
(0.0684841 -0.000785082 0.0055137)
(0.0720327 -0.00274338 0.00684205)
(0.0751668 -0.00508815 0.00752518)
(0.0787484 -0.00675262 0.00658579)
(0.0852129 -0.0066061 0.00313729)
(0.0933089 -0.00457099 -0.00254599)
(0.0984036 -0.0020091 -0.00854875)
(0.0992273 -0.000273453 -0.0125681)
(0.0974187 0.000277647 -0.0133698)
(0.0942409 -9.51187e-05 -0.0120408)
(0.0901685 -0.000585739 -0.0111401)
(0.0850757 -0.000673601 -0.0116191)
(0.0786987 -0.000495242 -0.0122091)
(0.0721935 -0.000190142 -0.0117118)
(0.067944 0.000150513 -0.0104563)
(0.0671727 0.000237954 -0.00959358)
(0.0794558 -0.000851374 -0.0136479)
(0.0812912 -0.00241417 -0.0154064)
(0.0852154 -0.00358061 -0.0155176)
(0.0907416 -0.00364312 -0.0137138)
(0.098463 -0.0029655 -0.0101951)
(0.10981 -0.00207531 -0.00432803)
(0.120733 -0.00107877 0.00338939)
(0.123891 -0.000281092 0.0100672)
(0.119507 0.000110042 0.0132164)
(0.113614 7.99174e-05 0.0128823)
(0.110503 -0.000134344 0.0115728)
(0.10984 -0.000341296 0.0113049)
(0.109398 -0.000397595 0.0111559)
(0.108037 -0.000321853 0.00948751)
(0.105893 -0.000314153 0.00716969)
(0.102881 -0.000452813 0.00637719)
(0.0978293 -0.000720663 0.0070622)
(0.0899049 -0.00115072 0.00728761)
(0.0806729 -0.00166674 0.00638764)
(0.0731626 -0.00197541 0.00539721)
(0.0691591 -0.00174667 0.00498179)
(0.06835 -0.000895264 0.00494841)
(0.0695383 8.4644e-05 0.00520009)
(0.0718722 0.000213031 0.00607202)
(0.0751714 -0.0012272 0.00765793)
(0.078938 -0.00398324 0.00949618)
(0.0816139 -0.00720682 0.0111106)
(0.0823406 -0.00977538 0.0122526)
(0.0848325 -0.0103812 0.0117758)
(0.0934097 -0.00841992 0.0076452)
(0.10471 -0.00486763 -0.000323663)
(0.112358 -0.00166162 -0.00848452)
(0.114729 -0.000191405 -0.0125908)
(0.113151 -0.000253759 -0.0125889)
(0.109263 -0.000691859 -0.0115306)
(0.104314 -0.000729027 -0.011629)
(0.0979709 -0.000502585 -0.0123155)
(0.0903613 -0.000208707 -0.0122947)
(0.0837096 0.000116451 -0.0117769)
(0.0800387 6.37678e-05 -0.0120313)
(0.0944733 -0.00109803 -0.0143287)
(0.0928137 -0.00353988 -0.0181914)
(0.0919716 -0.00561265 -0.0207348)
(0.0932035 -0.00615645 -0.020743)
(0.0964942 -0.00577398 -0.0188628)
(0.104536 -0.00524518 -0.0148075)
(0.118903 -0.00402215 -0.0074865)
(0.130944 -0.00214397 0.00204076)
(0.132006 -0.00075626 0.0094284)
(0.126437 -0.000294162 0.0117454)
(0.122516 -0.000314764 0.0107163)
(0.122461 -0.000559135 0.0104124)
(0.123303 -0.000751131 0.011572)
(0.122716 -0.000659949 0.0113856)
(0.121316 -0.0004444 0.00880097)
(0.12007 -0.000339657 0.00656423)
(0.117614 -0.000407049 0.00653764)
(0.11119 -0.000636432 0.00710952)
(0.10047 -0.00116467 0.00671029)
(0.0888092 -0.00181771 0.00591027)
(0.0802209 -0.00198979 0.00556879)
(0.0763144 -0.00118386 0.00566566)
(0.076167 8.04981e-05 0.00600689)
(0.0782857 0.000378496 0.00690132)
(0.081927 -0.00122817 0.00856362)
(0.0865338 -0.00445487 0.0104688)
(0.0905597 -0.00817126 0.0119695)
(0.0912123 -0.0113522 0.013608)
(0.0887959 -0.0130014 0.0159258)
(0.0908557 -0.011986 0.0160826)
(0.101523 -0.0085846 0.0104597)
(0.115467 -0.00435976 0.00032502)
(0.125312 -0.00147285 -0.00816416)
(0.12779 -0.000773988 -0.0115257)
(0.124633 -0.00097887 -0.0116135)
(0.119876 -0.000839564 -0.0113736)
(0.114627 -0.000336205 -0.0116428)
(0.107986 9.14419e-05 -0.0115811)
(0.10125 0.000427516 -0.0111614)
(0.0967226 0.000253276 -0.0117111)
(0.112026 -0.000450832 -0.0108898)
(0.109896 -0.00339222 -0.0160301)
(0.104518 -0.00652649 -0.0215248)
(0.100049 -0.00792121 -0.0243658)
(0.0988639 -0.00791044 -0.024043)
(0.101466 -0.00808267 -0.0209758)
(0.111601 -0.00775711 -0.0151651)
(0.127622 -0.00549184 -0.00634836)
(0.136894 -0.00260837 0.00335929)
(0.133917 -0.00128865 0.00902725)
(0.128262 -0.00111933 0.00907548)
(0.128507 -0.0011251 0.00786556)
(0.132336 -0.00112798 0.00928117)
(0.133461 -0.00109059 0.0112153)
(0.131489 -0.000931392 0.0100836)
(0.130677 -0.000661113 0.00711549)
(0.131948 -0.000334663 0.0058576)
(0.130562 -0.000166424 0.00624849)
(0.122481 -0.000439802 0.00630561)
(0.109117 -0.00111762 0.00592971)
(0.0956696 -0.00168029 0.00589535)
(0.0868143 -0.00120195 0.00623026)
(0.0838154 0.00014312 0.00668555)
(0.0851296 0.000658589 0.00748827)
(0.0890149 -0.000891676 0.00879608)
(0.0943262 -0.00426953 0.0101743)
(0.0997103 -0.00805633 0.011081)
(0.102557 -0.011121 0.0121633)
(0.100042 -0.0132286 0.0153256)
(0.0956554 -0.01373 0.0192264)
(0.0990837 -0.0116662 0.0180683)
(0.112318 -0.0077621 0.00981557)
(0.128133 -0.00380843 -0.000815213)
(0.135558 -0.00154434 -0.00807552)
(0.1309 -0.000803568 -0.0105531)
(0.122501 -0.000714661 -0.0101568)
(0.118099 -0.000537632 -0.00924551)
(0.116405 4.68765e-05 -0.00864308)
(0.114233 0.000749304 -0.00816619)
(0.112491 0.000863621 -0.0084161)
(0.123369 0.000428565 -0.00364995)
(0.125937 -0.00195488 -0.00931897)
(0.120884 -0.00543357 -0.0172815)
(0.111518 -0.00791976 -0.0237275)
(0.105549 -0.00851487 -0.0263031)
(0.104595 -0.00913567 -0.0246405)
(0.108871 -0.0102908 -0.0195479)
(0.120718 -0.00944133 -0.0120231)
(0.135364 -0.00582121 -0.00268856)
(0.140321 -0.00252636 0.00511472)
(0.134455 -0.00192506 0.00721236)
(0.129719 -0.00253815 0.00523124)
(0.133797 -0.00237796 0.00520344)
(0.139843 -0.00132257 0.00814949)
(0.138807 -0.000628456 0.00939612)
(0.133973 -0.000915771 0.00733402)
(0.13426 -0.00136141 0.00529899)
(0.139539 -0.00102638 0.00515345)
(0.140242 -0.000330117 0.00542824)
(0.131152 -0.000310877 0.00537063)
(0.115937 -0.00075684 0.00567162)
(0.10174 -0.00060445 0.00660053)
(0.0938558 0.000405412 0.00766242)
(0.0929254 0.000859024 0.00848123)
(0.0967098 -0.000793988 0.00877541)
(0.102885 -0.0042042 0.00849704)
(0.109297 -0.00778294 0.00809079)
(0.11355 -0.0103028 0.00854834)
(0.112884 -0.0117594 0.0118906)
(0.107029 -0.012847 0.0180005)
(0.103163 -0.0129732 0.0210073)
(0.110168 -0.0108857 0.0157321)
(0.125342 -0.00684309 0.00501329)
(0.134977 -0.00240791 -0.00467267)
(0.129764 0.000362366 -0.0092168)
(0.117566 0.000645768 -0.00855486)
(0.110368 -0.0002792 -0.00552368)
(0.110408 -0.000454363 -0.00302238)
(0.113753 0.000350022 -0.0018329)
(0.118117 0.000993916 -0.00166635)
(0.122311 0.000431062 0.00566736)
(0.132132 -0.000687787 0.000381966)
(0.134098 -0.00309219 -0.00947678)
(0.125181 -0.00598847 -0.0191764)
(0.114572 -0.00764476 -0.0253662)
(0.110208 -0.0086297 -0.0267654)
(0.11188 -0.0104564 -0.0232737)
(0.118101 -0.0117553 -0.0166024)
(0.129617 -0.00994117 -0.00824713)
(0.14134 -0.00551897 0.000123714)
(0.143664 -0.00255586 0.00474389)
(0.136903 -0.00292305 0.00404974)
(0.132433 -0.00411724 0.0024365)
(0.137372 -0.00298595 0.00421714)
(0.143112 -0.000163313 0.00689794)
(0.140804 0.000804066 0.00677261)
(0.135545 -0.00119671 0.00503619)
(0.137281 -0.00330466 0.00443652)
(0.14497 -0.00287873 0.0048781)
(0.14681 -0.000985896 0.00500181)
(0.137007 0.000268847 0.00507627)
(0.121021 0.000941967 0.00627691)
(0.107933 0.00136471 0.00855162)
(0.102887 0.000892733 0.0101872)
(0.105063 -0.00158689 0.00945454)
(0.111386 -0.00517318 0.00666935)
(0.119031 -0.00808948 0.00393829)
(0.124904 -0.00953004 0.00304079)
(0.125612 -0.00988126 0.00595708)
(0.120013 -0.0102299 0.0134822)
(0.111978 -0.0115401 0.0202649)
(0.111189 -0.0121148 0.0187081)
(0.121105 -0.0093602 0.00907346)
(0.130382 -0.00343992 -0.00166171)
(0.127629 0.0016061 -0.00780233)
(0.11691 0.00277699 -0.00796127)
(0.108595 0.000916012 -0.00418768)
(0.106555 -0.000532975 0.000434682)
(0.109002 -0.000251738 0.00387871)
(0.113923 0.000502852 0.00594511)
(0.116496 -0.000131555 0.0108124)
(0.128421 -0.000488185 0.00863165)
(0.138901 -0.000911721 -0.000825234)
(0.136785 -0.00270655 -0.0124395)
(0.125902 -0.00521512 -0.0211981)
(0.117469 -0.00727778 -0.0257517)
(0.116795 -0.009365 -0.0254173)
(0.121021 -0.0116239 -0.0207357)
(0.127621 -0.012378 -0.013537)
(0.137484 -0.00992409 -0.0053447)
(0.146092 -0.00556776 0.00116611)
(0.145637 -0.00316926 0.00306925)
(0.137779 -0.00377412 0.00173305)
(0.134019 -0.0042454 0.00186298)
(0.139152 -0.00189725 0.00429095)
(0.144581 0.00111859 0.00578192)
(0.143231 0.000692972 0.00508538)
(0.139044 -0.0032061 0.0038889)
(0.140987 -0.00623383 0.00402919)
(0.148663 -0.0048328 0.00482088)
(0.150231 -0.00057489 0.00476655)
(0.139985 0.00271255 0.00534464)
(0.125827 0.00353775 0.00853422)
(0.116848 0.0017528 0.0118719)
(0.114783 -0.00224169 0.0106553)
(0.117584 -0.00687579 0.00499664)
(0.124453 -0.00975783 -0.000201689)
(0.133154 -0.00988027 -0.00228727)
(0.137031 -0.00840815 -0.000583196)
(0.132522 -0.00730148 0.00676135)
(0.122746 -0.00825291 0.0165347)
(0.115801 -0.0107117 0.0195525)
(0.118666 -0.010263 0.0125814)
(0.125239 -0.00449867 0.00204076)
(0.125652 0.00211786 -0.00550608)
(0.120498 0.00451913 -0.00813032)
(0.115037 0.00259227 -0.00657665)
(0.111612 0.000383856 -0.00214388)
(0.110538 0.000120089 0.00312494)
(0.111405 0.000344384 0.00779949)
(0.11573 -0.000745747 0.00747302)
(0.124196 -0.00171902 0.00933576)
(0.137842 -0.000333328 0.00388298)
(0.14353 0.000462545 -0.00647138)
(0.137233 -0.00168851 -0.0157791)
(0.127369 -0.0050042 -0.021984)
(0.122944 -0.00786085 -0.0245373)
(0.125664 -0.0102469 -0.0230191)
(0.130825 -0.0124599 -0.0181266)
(0.136518 -0.012906 -0.010712)
(0.143582 -0.00977548 -0.00285881)
(0.147128 -0.00521391 0.00170047)
(0.143028 -0.0031404 0.00178807)
(0.136466 -0.00353864 0.00103886)
(0.136055 -0.00314098 0.00261623)
(0.141981 -0.000868633 0.00520091)
(0.146804 0.000482097 0.00611608)
(0.145954 -0.00167885 0.00470459)
(0.14247 -0.00630826 0.00309438)
(0.143645 -0.00839784 0.00340006)
(0.149247 -0.00459346 0.00409705)
(0.149467 0.00155391 0.00459483)
(0.141371 0.00482145 0.0078118)
(0.131761 0.00383778 0.0122091)
(0.125449 -0.000129841 0.0108818)
(0.122398 -0.00568359 0.00294543)
(0.124335 -0.0104022 -0.00422919)
(0.133722 -0.0113816 -0.00608334)
(0.143177 -0.00863899 -0.00467571)
(0.142559 -0.00555661 0.000593808)
(0.133111 -0.00482449 0.0107185)
(0.122797 -0.00729825 0.0181147)
(0.119511 -0.00874509 0.0153468)
(0.122186 -0.00468042 0.00603095)
(0.12384 0.00199447 -0.00248463)
(0.123523 0.00514691 -0.00739272)
(0.122785 0.0039443 -0.00882755)
(0.120966 0.00186382 -0.00692972)
(0.117958 0.00134594 -0.0026714)
(0.115163 0.000943938 0.00245628)
(0.122996 -0.00048572 -6.25257e-05)
(0.1257 -0.0032094 0.00410418)
(0.136319 -0.00169924 0.00327534)
(0.146833 0.00161487 -0.00295704)
(0.147005 0.00138782 -0.0108722)
(0.138669 -0.00197254 -0.017817)
(0.131043 -0.00559322 -0.0221274)
(0.130636 -0.00833186 -0.0229694)
(0.135553 -0.0110422 -0.0208447)
(0.140093 -0.0134868 -0.0154993)
(0.143466 -0.0126217 -0.00730479)
(0.145915 -0.00771472 -0.000460849)
(0.144422 -0.00315337 0.00156329)
(0.139582 -0.00219938 0.000879832)
(0.136886 -0.00298883 0.00173082)
(0.139972 -0.00243186 0.00497944)
(0.145887 -0.000934234 0.00776394)
(0.14969 -0.00116448 0.00706845)
(0.148642 -0.00434769 0.00352977)
(0.144377 -0.00782983 0.00145372)
(0.142569 -0.00711587 0.00276898)
(0.142964 -0.00199936 0.00563968)
(0.140296 0.00287737 0.00924488)
(0.134846 0.00446152 0.0116801)
(0.130809 0.00263069 0.0086218)
(0.12811 -0.00213899 0.000240072)
(0.126675 -0.00832202 -0.00676413)
(0.132274 -0.0119581 -0.00740929)
(0.143924 -0.0103078 -0.00473754)
(0.148587 -0.00587822 -0.00147927)
(0.141292 -0.00310193 0.0056722)
(0.129924 -0.00390047 0.0145819)
(0.122994 -0.00544904 0.0164048)
(0.122428 -0.00298379 0.00983874)
(0.124059 0.00234403 0.00127245)
(0.126181 0.00484624 -0.00509425)
(0.128931 0.00387814 -0.00883325)
(0.130323 0.00272689 -0.0100539)
(0.128738 0.00295218 -0.00862879)
(0.1254 0.00253208 -0.0050408)
(0.133194 0.000657882 -0.00414616)
(0.130969 -0.00296709 0.000518073)
(0.134791 -0.00299751 0.00187458)
(0.145038 0.000657927 -0.0010387)
(0.151671 0.00270076 -0.00690089)
(0.148252 0.000852905 -0.0138994)
(0.140352 -0.00240889 -0.0194348)
(0.137062 -0.00553596 -0.0216865)
(0.140686 -0.00894544 -0.0212954)
(0.145876 -0.0126159 -0.0184748)
(0.147847 -0.0137139 -0.0119098)
(0.147468 -0.00973886 -0.00397829)
(0.145592 -0.00362108 0.000283535)
(0.142037 -0.000625239 0.00081337)
(0.139157 -0.00141403 0.00162643)
(0.140105 -0.00263289 0.00499385)
(0.144857 -0.00237109 0.00881744)
(0.150298 -0.00194941 0.0090094)
(0.151808 -0.00300524 0.00489157)
(0.146526 -0.00517572 0.00120757)
(0.138103 -0.00620867 0.00213432)
(0.132157 -0.00423355 0.00580007)
(0.129834 -0.000299446 0.00814102)
(0.13048 0.00313056 0.00740731)
(0.133115 0.00414158 0.00328132)
(0.13464 0.00142425 -0.00329147)
(0.133537 -0.00468227 -0.00824649)
(0.135312 -0.0107204 -0.00766102)
(0.144259 -0.011798 -0.00338682)
(0.151406 -0.00753522 2.93609e-05)
(0.146864 -0.00313981 0.00435937)
(0.135344 -0.00186698 0.0113606)
(0.126786 -0.00206725 0.0148888)
(0.124901 -0.000166282 0.0110046)
(0.126781 0.00348954 0.00381247)
(0.12878 0.00487432 -0.00185125)
(0.130336 0.00327366 -0.00564081)
(0.132383 0.00192267 -0.00882031)
(0.1345 0.00263753 -0.0104395)
(0.135118 0.0031402 -0.00878869)
(0.136249 0.00138571 -0.00115599)
(0.133398 -0.0010065 0.00219256)
(0.13214 -0.00193692 0.00279339)
(0.138283 6.88913e-05 0.000745925)
(0.148106 0.00245407 -0.00372487)
(0.151749 0.00253902 -0.0102402)
(0.147612 0.000910044 -0.0164038)
(0.144143 -0.00167842 -0.0195965)
(0.146825 -0.00568821 -0.0201274)
(0.152171 -0.01058 -0.0192545)
(0.154061 -0.0131583 -0.0155442)
(0.151789 -0.0105392 -0.00859599)
(0.148258 -0.0044005 -0.00247419)
(0.144782 0.000171597 0.000554764)
(0.142182 0.000687629 0.00232647)
(0.142072 -0.000996861 0.00480183)
(0.144722 -0.00224045 0.00786716)
(0.148474 -0.00267348 0.00924461)
(0.15021 -0.00295451 0.0069388)
(0.146828 -0.00334552 0.00259652)
(0.139075 -0.00348998 0.0004589)
(0.131525 -0.00291173 0.00165293)
(0.128449 -0.00157059 0.0031822)
(0.13108 0.000385673 0.00271471)
(0.136447 0.00224508 -0.000283086)
(0.139271 0.00226458 -0.00480123)
(0.138139 -0.00140464 -0.00783509)
(0.138232 -0.00795195 -0.00682566)
(0.144252 -0.0121238 -0.00278182)
(0.151296 -0.00942728 0.000870256)
(0.149718 -0.00384213 0.00451476)
(0.140393 -0.000859935 0.00996135)
(0.131769 1.62943e-05 0.0129954)
(0.128262 0.00198623 0.0101146)
(0.127814 0.00507216 0.00492468)
(0.126889 0.00605121 0.00160484)
(0.12568 0.00393877 -0.000571123)
(0.126589 0.00151537 -0.00365843)
(0.130527 0.00120984 -0.00608847)
(0.135085 0.00212153 -0.00508465)
(0.135326 -0.000350896 0.00123653)
(0.13383 0.000111602 0.00393014)
(0.131339 0.000375479 0.0047992)
(0.133298 0.00139991 0.00307984)
(0.140914 0.00286604 -0.000901784)
(0.1488 0.00365896 -0.00649338)
(0.151641 0.0034474 -0.0118537)
(0.151802 0.00200762 -0.0151822)
(0.154839 -0.00174586 -0.0167899)
(0.159797 -0.00746593 -0.0179653)
(0.161134 -0.0113265 -0.0172459)
(0.157449 -0.00980463 -0.0124103)
(0.15209 -0.00422622 -0.00572201)
(0.147528 0.000689784 -0.000754333)
(0.144566 0.00192021 0.00233714)
(0.144099 0.00065606 0.0046337)
(0.145453 -0.000850241 0.00663521)
(0.146453 -0.00207158 0.00805967)
(0.145744 -0.00298285 0.00741841)
(0.143023 -0.00282956 0.00390651)
(0.138921 -0.00160558 6.94272e-05)
(0.135311 -0.00073615 -0.000998325)
(0.134366 -0.00133811 0.000339811)
(0.136734 -0.00190422 0.00136833)
(0.140078 -0.000576585 6.26542e-05)
(0.140531 0.00142097 -0.00277644)
(0.138247 0.000667179 -0.0042054)
(0.137748 -0.00450318 -0.00272981)
(0.142057 -0.0103638 0.000156199)
(0.148649 -0.0105359 0.00268044)
(0.150659 -0.0054371 0.00520866)
(0.145764 -0.000546153 0.00895578)
(0.138255 0.00236671 0.0111161)
(0.132074 0.0049311 0.00909502)
(0.127378 0.00723927 0.00541598)
(0.123566 0.00720004 0.0035539)
(0.121813 0.00395962 0.00308859)
(0.123084 -0.000138889 0.00161896)
(0.127267 -0.00210419 -0.000532983)
(0.132585 -0.00150984 -0.000931169)
(0.133515 -0.000799407 0.00410792)
(0.132601 0.00123681 0.00535449)
(0.130836 0.003459 0.00617193)
(0.131652 0.00505346 0.00560643)
(0.136307 0.0051445 0.00309553)
(0.142908 0.00439547 -0.00140096)
(0.148936 0.00432015 -0.00654873)
(0.154391 0.00453208 -0.0101978)
(0.160705 0.00232502 -0.0121945)
(0.166189 -0.00312307 -0.0142453)
(0.16701 -0.00801584 -0.0160722)
(0.162636 -0.00774114 -0.014538)
(0.156338 -0.00294733 -0.00913088)
(0.150816 0.00146231 -0.0032937)
(0.146857 0.00257012 0.000878769)
(0.14479 0.00157752 0.00364476)
(0.144138 0.000583734 0.0055018)
(0.143429 -0.000189536 0.00669065)
(0.141663 -0.00103418 0.00663812)
(0.13932 -0.00102289 0.00426108)
(0.138254 9.75901e-05 0.000693435)
(0.139969 0.000310268 -0.0011411)
(0.143351 -0.00190846 -0.000197799)
(0.145013 -0.00446603 0.00143022)
(0.14312 -0.00375466 0.00139888)
(0.139254 -0.000164535 0.000706326)
(0.136748 0.00178005 0.00185141)
(0.137906 -0.00137036 0.00405669)
(0.142349 -0.00754844 0.00517727)
(0.147861 -0.0105429 0.00525802)
(0.150719 -0.00716365 0.00588161)
(0.148304 -0.00103874 0.00799478)
(0.141968 0.00359293 0.00914946)
(0.13426 0.00634003 0.0072716)
(0.126785 0.00803676 0.00490286)
(0.121813 0.00803302 0.00529921)
(0.120898 0.00543714 0.00724694)
(0.123214 0.00146707 0.00733922)
(0.127247 -0.00145018 0.00536128)
(0.131421 -0.00205684 0.00383135)
(0.135112 0.00127785 0.00457981)
(0.136186 0.00296482 0.0051019)
(0.134981 0.00527838 0.00627475)
(0.134429 0.00750738 0.00699524)
(0.136401 0.00798823 0.00576882)
(0.140162 0.00596401 0.00210541)
(0.144813 0.00300479 -0.00233318)
(0.151002 0.00146511 -0.00555552)
(0.159068 0.00115585 -0.00766824)
(0.165921 -8.83477e-05 -0.0102365)
(0.167547 -0.0026276 -0.0131837)
(0.164409 -0.00355302 -0.0142348)
(0.160305 -0.0014094 -0.0117147)
(0.157262 0.00133155 -0.00710929)
(0.15419 0.00249898 -0.00286311)
(0.150132 0.0023825 0.000152777)
(0.145923 0.00173024 0.00208345)
(0.14237 0.000665078 0.00335577)
(0.139874 -0.00031578 0.00443441)
(0.139069 -0.000280907 0.00485939)
(0.14135 0.000619956 0.00381254)
(0.14728 0.000542775 0.00152448)
(0.153568 -0.00183163 3.17299e-05)
(0.154906 -0.00482504 0.00142727)
(0.149892 -0.00477131 0.00480538)
(0.142864 -0.00106653 0.00741555)
(0.139161 0.00249325 0.00794983)
(0.140062 0.00203922 0.00623819)
(0.14357 -0.00280228 0.00421627)
(0.147706 -0.00744988 0.00363202)
(0.150133 -0.00633088 0.00369538)
(0.147937 -0.000294028 0.0043787)
(0.141083 0.005619 0.0056637)
(0.132414 0.00861592 0.00575555)
(0.125026 0.00934928 0.00525322)
(0.121215 0.00872638 0.00608385)
(0.121272 0.00677394 0.00764941)
(0.123673 0.00390628 0.00802752)
(0.127208 0.00142745 0.00683045)
(0.131456 0.000521605 0.00525611)
(0.136422 0.00332268 0.00378679)
(0.136936 0.0038761 0.00426272)
(0.135696 0.00528397 0.00489439)
(0.134731 0.00728521 0.00579435)
(0.136003 0.00829238 0.00624254)
(0.139418 0.00669748 0.00492545)
(0.14366 0.00283055 0.00142678)
(0.148092 -0.000984893 -0.00285313)
(0.153662 -0.00276021 -0.00616787)
(0.16058 -0.00285193 -0.00831854)
(0.165798 -0.00249946 -0.0100778)
(0.166155 -0.00166242 -0.0114088)
(0.162785 0.000264294 -0.0111414)
(0.159364 0.00227269 -0.00890026)
(0.157268 0.00306474 -0.00579204)
(0.155434 0.0033357 -0.00312538)
(0.152849 0.00359047 -0.00158732)
(0.14922 0.00277473 -0.000664946)
(0.145173 0.000330617 0.000802845)
(0.142725 -0.0026638 0.00308781)
(0.144002 -0.00518509 0.0048706)
(0.149017 -0.00701512 0.0046929)
(0.154261 -0.00813673 0.00296642)
(0.155494 -0.00828771 0.00265137)
(0.151893 -0.00650444 0.0053496)
(0.146392 -0.00168722 0.00803003)
(0.142266 0.00451911 0.00686105)
(0.140202 0.0073943 0.00210451)
(0.140115 0.00383498 -0.00198759)
(0.142434 -0.0030354 -0.00202805)
(0.14566 -0.00602685 0.000302363)
(0.145892 -0.00186488 0.002159)
(0.141206 0.00533387 0.0035172)
(0.134345 0.0105 0.00450556)
(0.129389 0.0126666 0.00449541)
(0.127947 0.0126779 0.00356798)
(0.128924 0.0108459 0.00231348)
(0.130448 0.00783344 0.00158262)
(0.13205 0.00508732 0.00196184)
(0.13426 0.00361428 0.00297449)
(0.141882 0.00463013 -0.00144607)
(0.139971 0.00523684 0.0024935)
(0.136643 0.00528187 0.00569378)
(0.134154 0.0046328 0.0084484)
(0.134636 0.00310178 0.0105979)
(0.138553 0.000808285 0.0111565)
(0.144758 -0.00172403 0.00904674)
(0.151196 -0.00368408 0.00437743)
(0.155927 -0.00425635 -0.00135543)
(0.157918 -0.00328434 -0.00651503)
(0.157101 -0.00119458 -0.00978996)
(0.154352 0.001339 -0.0104876)
(0.150904 0.0034988 -0.00932227)
(0.147876 0.00437428 -0.00790116)
(0.14616 0.00384403 -0.00687165)
(0.146432 0.00267363 -0.00579431)
(0.148731 0.00155839 -0.0045628)
(0.151783 0.000965529 -0.00372864)
(0.153692 0.000937901 -0.00316374)
(0.153834 0.000241541 -0.00162787)
(0.153272 -0.00275085 0.00133854)
(0.153261 -0.0073696 0.00458595)
(0.15382 -0.0103237 0.00681431)
(0.15382 -0.00906323 0.00782446)
(0.151942 -0.00457693 0.00817267)
(0.148142 0.000525961 0.0075113)
(0.144013 0.00437898 0.00458366)
(0.141251 0.00535449 -0.000233641)
(0.140766 0.00253764 -0.00395347)
(0.142458 -0.00275982 -0.00352496)
(0.144812 -0.00655432 0.000463178)
(0.145544 -0.00484886 0.00446735)
(0.143501 0.00147698 0.00651542)
(0.140528 0.00822867 0.00655412)
(0.139494 0.012669 0.00441869)
(0.140812 0.0141635 0.000169067)
(0.142427 0.0127063 -0.00466295)
(0.14277 0.00920462 -0.00800875)
(0.142305 0.00578131 -0.00832155)
(0.142164 0.00431738 -0.00560669)
(0.150142 0.00452197 -0.00825981)
(0.147675 0.00616838 -0.00523936)
(0.146723 0.00639612 -0.0019875)
(0.147605 0.00459906 0.00168824)
(0.149493 0.00156235 0.0057606)
(0.150978 -0.00147417 0.00989956)
(0.151704 -0.0035831 0.0128893)
(0.153099 -0.00437726 0.0129275)