/*--------------------------------*- C++ -*----------------------------------*\
| =========                 |                                                 |
| \\      /  F ield         | OpenFOAM: The Open Source CFD Toolbox           |
|  \\    /   O peration     | Version:  2306                                  |
|   \\  /    A nd           | Website:  www.openfoam.com                      |
|    \\/     M anipulation  |                                                 |
\*---------------------------------------------------------------------------*/
FoamFile
{
    version     2.0;
    format      ascii;
    arch        "LSB;label=32;scalar=64";
    class       volVectorField;
    location    "7";
    object      UMean;
}
// * * * * * * * * * * * * * * * * * * * * * * * * * * * * * * * * * * * * * //

dimensions      [0 1 -1 0 0 0 0];

internalField   nonuniform List<vector> 
60000
(
(0.00949957 3.23702e-05 0.00162402)
(0.00975547 2.3529e-05 0.00185105)
(0.00984929 1.68583e-05 0.00203834)
(0.00978994 1.1423e-05 0.00216085)
(0.00960948 5.90632e-06 0.00216848)
(0.0093278 1.07964e-06 0.00202994)
(0.00896069 -1.71797e-06 0.00177694)
(0.00851187 -3.00225e-06 0.00149096)
(0.00799809 -5.11003e-06 0.00125553)
(0.00746775 -8.80729e-06 0.00112278)
(0.00695978 -1.29064e-05 0.00109259)
(0.00650362 -1.49139e-05 0.00110535)
(0.00613976 -1.4719e-05 0.00108541)
(0.00590175 -1.30729e-05 0.000995681)
(0.00581022 -1.07608e-05 0.000841907)
(0.00584568 -8.29171e-06 0.000641836)
(0.00597427 -4.60846e-06 0.00041256)
(0.0061722 -2.25589e-07 0.000169001)
(0.00641983 4.48023e-06 -8.00001e-05)
(0.00671205 8.86683e-06 -0.000341418)
(0.00706219 1.23733e-05 -0.000629912)
(0.00745937 1.39276e-05 -0.000939399)
(0.00786363 1.30732e-05 -0.00124357)
(0.00822506 8.67935e-06 -0.00152514)
(0.00847945 2.117e-06 -0.00177977)
(0.00856936 -3.7883e-06 -0.00200659)
(0.00848729 -8.18046e-06 -0.00218893)
(0.00824333 -9.84034e-06 -0.0022929)
(0.0078503 -7.58e-06 -0.00230768)
(0.00736973 -2.57399e-06 -0.00226106)
(0.00692342 2.35544e-06 -0.00217073)
(0.00661813 6.32604e-06 -0.001999)
(0.00650078 1.04287e-05 -0.00170702)
(0.00657676 1.53597e-05 -0.00132048)
(0.00682627 2.2223e-05 -0.000884405)
(0.00721111 2.92332e-05 -0.00041401)
(0.00767058 3.64621e-05 7.59208e-05)
(0.00815748 4.24872e-05 0.000556397)
(0.00864815 4.42377e-05 0.000992854)
(0.0091115 4.04659e-05 0.00134769)
(0.0288802 0.000124564 0.00431687)
(0.0297524 8.38325e-05 0.00486945)
(0.0301172 5.75101e-05 0.00531995)
(0.0300099 3.74365e-05 0.00561791)
(0.029509 2.05931e-05 0.00564365)
(0.0286567 1.0785e-05 0.00531067)
(0.0275246 7.85394e-06 0.00468551)
(0.0261778 2.50784e-06 0.00397147)
(0.024683 -1.86204e-05 0.00338362)
(0.0231393 -5.60009e-05 0.00304877)
(0.0216174 -9.56093e-05 0.00295219)
(0.0201932 -0.000126465 0.00294028)
(0.0190018 -0.000147114 0.0028423)
(0.0181608 -0.00015521 0.00258544)
(0.0177381 -0.000147268 0.00218398)
(0.017688 -0.000123507 0.00167124)
(0.0179361 -8.86367e-05 0.00108888)
(0.018442 -5.14543e-05 0.00047355)
(0.0191669 -1.86244e-05 -0.000168913)
(0.0200872 3.25246e-06 -0.000869356)
(0.021214 1.3169e-05 -0.00166183)
(0.0225 1.19195e-05 -0.00252117)
(0.023835 -3.15998e-06 -0.00336348)
(0.025074 -3.34549e-05 -0.00411926)
(0.0260128 -6.83739e-05 -0.00475776)
(0.0264517 -9.5938e-05 -0.00528153)
(0.0263239 -0.000107857 -0.00567698)
(0.0256194 -9.59818e-05 -0.00589593)
(0.0243877 -6.51503e-05 -0.00593017)
(0.0228552 -3.47605e-05 -0.00583777)
(0.0214161 -1.70128e-05 -0.00562911)
(0.0203973 -3.9285e-06 -0.00519489)
(0.0199234 1.84924e-05 -0.00444748)
(0.019997 5.63312e-05 -0.00344089)
(0.0205794 0.00010867 -0.00226572)
(0.0216042 0.00016346 -0.000971477)
(0.0229289 0.000209748 0.000362904)
(0.0244316 0.000230916 0.00162972)
(0.0260287 0.000217023 0.0027441)
(0.0275764 0.000175533 0.00363342)
(0.0487385 0.000183349 0.00620562)
(0.0504279 9.15297e-05 0.00703941)
(0.0512534 3.89123e-05 0.00770657)
(0.0512597 3.72065e-06 0.00817802)
(0.0505556 -1.92406e-05 0.00831138)
(0.0492063 -2.26708e-05 0.0079584)
(0.0473763 -1.47006e-05 0.00715201)
(0.0452357 -2.09304e-05 0.00614634)
(0.0428711 -6.91105e-05 0.00526451)
(0.0403591 -0.000156761 0.00471923)
(0.0377839 -0.00024815 0.00451008)
(0.0352823 -0.000321139 0.00443654)
(0.0330853 -0.000374371 0.00427587)
(0.0313933 -0.000399219 0.00392932)
(0.0303447 -0.000383085 0.00339919)
(0.0299233 -0.000324418 0.00270878)
(0.0300622 -0.000240889 0.00191234)
(0.0307249 -0.000156053 0.00106971)
(0.0318539 -8.62622e-05 0.00018146)
(0.0333881 -4.75387e-05 -0.000814304)
(0.0353188 -4.20016e-05 -0.00198328)
(0.0375656 -6.51282e-05 -0.00330142)
(0.0399623 -0.000123048 -0.00463535)
(0.0422839 -0.000213425 -0.00584274)
(0.0441943 -0.000306355 -0.00683708)
(0.0453171 -0.000370304 -0.00761064)
(0.0454583 -0.000382465 -0.0081727)
(0.0445317 -0.000326327 -0.00849625)
(0.0425865 -0.000225655 -0.00859261)
(0.039981 -0.000137233 -0.0085496)
(0.0373753 -9.04099e-05 -0.00837334)
(0.0353611 -5.9721e-05 -0.00789292)
(0.0342053 -4.67235e-06 -0.00695387)
(0.0339492 9.07883e-05 -0.00558989)
(0.0345609 0.00021834 -0.00390366)
(0.0359947 0.000349517 -0.00196972)
(0.0380845 0.000453159 7.26563e-05)
(0.0406478 0.000485677 0.00202522)
(0.0434961 0.000429041 0.00374969)
(0.0463174 0.000311712 0.00514131)
(0.0681218 0.000119445 0.00685784)
(0.0708767 -2.97159e-05 0.00805075)
(0.07244 -9.72869e-05 0.00897555)
(0.0728369 -0.000129461 0.00967057)
(0.0721785 -0.000138091 0.0100422)
(0.0705412 -0.000110806 0.00989762)
(0.0682001 -6.78982e-05 0.0091608)
(0.0654887 -5.55405e-05 0.00803636)
(0.0625141 -0.000120038 0.00692567)
(0.0592265 -0.000259263 0.00616814)
(0.0556516 -0.000414393 0.0058219)
(0.0520007 -0.000544704 0.00566273)
(0.0486136 -0.000648022 0.00544291)
(0.0457669 -0.000708591 0.00506823)
(0.0436847 -0.000700246 0.00453524)
(0.0424438 -0.000615384 0.00383274)
(0.0420606 -0.000484782 0.00300166)
(0.0425485 -0.000354552 0.00213043)
(0.0438455 -0.000253752 0.00122844)
(0.0458346 -0.000210696 0.000194083)
(0.0484748 -0.000231723 -0.00110199)
(0.05166 -0.000306096 -0.00268746)
(0.0551813 -0.000440544 -0.00442292)
(0.0587578 -0.000625025 -0.00609417)
(0.0619518 -0.00079984 -0.00752099)
(0.0641995 -0.00090413 -0.00863751)
(0.0651266 -0.000897204 -0.00945974)
(0.0645121 -0.000751027 -0.00998849)
(0.0623196 -0.000521196 -0.0102476)
(0.0589097 -0.000327711 -0.0103603)
(0.0551082 -0.000234449 -0.0103781)
(0.0517902 -0.000194802 -0.0101137)
(0.0494829 -0.000123196 -0.00933605)
(0.0483881 2.2997e-05 -0.00801093)
(0.0485346 0.00023148 -0.00620199)
(0.0499401 0.000449636 -0.00396282)
(0.0524843 0.000623275 -0.00144712)
(0.0559879 0.000671393 0.00106474)
(0.0601341 0.000559993 0.00336658)
(0.064378 0.000344708 0.00531505)
(0.085381 -0.000196132 0.00550465)
(0.0894279 -0.00038683 0.00731527)
(0.0920585 -0.000435578 0.00871526)
(0.0932587 -0.000410535 0.00979162)
(0.0930942 -0.000360721 0.0105793)
(0.0915834 -0.00026807 0.010913)
(0.0890697 -0.000161201 0.0105711)
(0.0861124 -0.000103911 0.00958237)
(0.0829378 -0.000154882 0.00835499)
(0.0793158 -0.000319819 0.00740999)
(0.0750392 -0.000530397 0.00694938)
(0.0703308 -0.000724912 0.0067235)
(0.0656806 -0.00089071 0.00642446)
(0.0614544 -0.00100595 0.00600124)
(0.0579486 -0.00103273 0.00551341)
(0.0553542 -0.000953844 0.00492879)
(0.0538349 -0.000807424 0.00423859)
(0.0535365 -0.000662321 0.00355204)
(0.0544496 -0.000561689 0.00292308)
(0.0564133 -0.000548965 0.00222871)
(0.0593573 -0.000643724 0.00124666)
(0.0631883 -0.000830391 -0.000185958)
(0.0676805 -0.00110039 -0.00203528)
(0.0725126 -0.00142434 -0.00408284)
(0.0771975 -0.00170693 -0.00604165)
(0.0810124 -0.00185126 -0.00771094)
(0.0833911 -0.00179477 -0.00904875)
(0.0839586 -0.00148622 -0.0100687)
(0.0824861 -0.0010214 -0.0107639)
(0.0791046 -0.000628056 -0.0112202)
(0.0745833 -0.000436815 -0.0115589)
(0.0699683 -0.000387193 -0.0116907)
(0.0661007 -0.000342316 -0.0113879)
(0.0635134 -0.000205246 -0.0105536)
(0.0624574 3.19426e-05 -0.00916374)
(0.0631014 0.000299123 -0.00717007)
(0.0654266 0.000520323 -0.00464828)
(0.0693591 0.000583054 -0.00190727)
(0.074542 0.000424908 0.000794057)
(0.080186 0.000116341 0.00330348)
(0.0980909 -0.00103 0.00106322)
(0.10344 -0.00121146 0.0037964)
(0.10734 -0.00118844 0.00608909)
(0.10986 -0.00101929 0.00788571)
(0.110959 -0.000784035 0.00938676)
(0.110376 -0.00052513 0.0105623)
(0.108293 -0.00030462 0.0110613)
(0.105525 -0.000177974 0.0106157)
(0.102647 -0.000180078 0.00948752)
(0.0993799 -0.000321033 0.00840314)
(0.0951102 -0.000544432 0.00786361)
(0.0898028 -0.000788742 0.00765983)
(0.0840801 -0.00101977 0.00731541)
(0.0784891 -0.0011973 0.00677122)
(0.0733979 -0.00127783 0.00624867)
(0.0690639 -0.0012392 0.00578413)
(0.0657785 -0.00112406 0.00530265)
(0.0638769 -0.00101747 0.00489291)
(0.063505 -0.000977813 0.00469112)
(0.0645085 -0.00106468 0.00463449)
(0.0667751 -0.00132406 0.00445377)
(0.0702976 -0.00174504 0.00382278)
(0.0749912 -0.00229772 0.00253181)
(0.0806427 -0.00289676 0.000580844)
(0.0867631 -0.00335782 -0.00176744)
(0.092435 -0.00353505 -0.00411061)
(0.0968678 -0.00337589 -0.00621706)
(0.099608 -0.00282062 -0.00807065)
(0.100304 -0.00197389 -0.00964439)
(0.0985649 -0.00117155 -0.0108751)
(0.0946658 -0.000711692 -0.011775)
(0.0895883 -0.000574521 -0.0123828)
(0.0843833 -0.000563861 -0.0126729)
(0.0799621 -0.000509856 -0.0126281)
(0.0769441 -0.000361568 -0.012165)
(0.0758199 -0.000165409 -0.0110831)
(0.0767591 1.34768e-06 -0.00928638)
(0.0798985 -1.40189e-06 -0.0070158)
(0.0851251 -0.000257884 -0.00450047)
(0.0916205 -0.000663252 -0.00178393)
(0.104647 -0.00261566 -0.00630534)
(0.110595 -0.00271319 -0.00283334)
(0.115154 -0.00253561 0.000600529)
(0.11876 -0.00220453 0.00346412)
(0.121791 -0.0017196 0.00589939)
(0.123524 -0.00112559 0.00820538)
(0.12316 -0.000613217 0.0100507)
(0.121289 -0.000333759 0.0107576)
(0.119229 -0.00025006 0.010156)
(0.117114 -0.000298826 0.00904919)
(0.113967 -0.000455575 0.00842524)
(0.109125 -0.000693728 0.00833902)
(0.103016 -0.000970877 0.0081067)
(0.0964533 -0.00120508 0.00746468)
(0.0900204 -0.00133623 0.00679266)
(0.0840141 -0.00134679 0.00633342)
(0.078744 -0.0012868 0.00598119)
(0.0747002 -0.00125621 0.00572243)
(0.0722902 -0.00133657 0.00573566)
(0.0715127 -0.00161061 0.00612094)
(0.0722139 -0.0021502 0.00673046)
(0.0744241 -0.00293352 0.00718684)
(0.0781883 -0.00390546 0.0070731)
(0.0834667 -0.00492862 0.00607991)
(0.0900854 -0.00569757 0.00412993)
(0.0971482 -0.00594281 0.00154467)
(0.103443 -0.00565972 -0.00119433)
(0.108375 -0.0048614 -0.00386958)
(0.111877 -0.00361746 -0.00643785)
(0.113386 -0.00226193 -0.00877113)
(0.112201 -0.00124926 -0.0106475)
(0.108517 -0.000769308 -0.0119303)
(0.103295 -0.00065787 -0.0127777)
(0.0977209 -0.000666731 -0.0135108)
(0.0928299 -0.000697419 -0.0141756)
(0.089516 -0.000734363 -0.0144165)
(0.0881979 -0.000782283 -0.0139106)
(0.0890961 -0.000999351 -0.0128021)
(0.0924453 -0.00151023 -0.0112791)
(0.0980274 -0.00215603 -0.00918838)
(0.108458 -0.00466977 -0.0134666)
(0.113514 -0.0047279 -0.0100526)
(0.117543 -0.00430374 -0.00595813)
(0.120703 -0.00378936 -0.00207991)
(0.124159 -0.00318935 0.0012066)
(0.127982 -0.0023159 0.00427066)
(0.130454 -0.0013668 0.00724712)
(0.130479 -0.000750656 0.00939829)
(0.129375 -0.000540597 0.00991001)
(0.128892 -0.000492881 0.00909624)
(0.128259 -0.000465824 0.00837126)
(0.125689 -0.000539201 0.00841435)
(0.120726 -0.000750734 0.00851268)
(0.114183 -0.000992882 0.00800649)
(0.10711 -0.00115617 0.00723433)
(0.100059 -0.00121124 0.0067184)
(0.093294 -0.00120425 0.00642092)
(0.0873246 -0.00124517 0.00616663)
(0.0828619 -0.00144667 0.00608281)
(0.0802785 -0.00190993 0.00643487)
(0.0794817 -0.00272553 0.00732819)
(0.0803399 -0.00386456 0.00855704)
(0.0828448 -0.00522577 0.00962025)
(0.0869783 -0.0066564 0.00994328)
(0.0927411 -0.00777689 0.00910887)
(0.0996628 -0.00818954 0.00709145)
(0.106369 -0.00787232 0.00433598)
(0.111714 -0.00697868 0.00134015)
(0.115945 -0.0055819 -0.00173357)
(0.119567 -0.00389976 -0.00484235)
(0.121959 -0.00236851 -0.00767132)
(0.121955 -0.00130198 -0.00981805)
(0.119126 -0.000764774 -0.0112695)
(0.114334 -0.000585669 -0.0125672)
(0.108971 -0.000663206 -0.0141451)
(0.104363 -0.000956771 -0.0157123)
(0.101289 -0.00133681 -0.0166596)
(0.10004 -0.00188463 -0.0168898)
(0.100787 -0.00279106 -0.0165984)
(0.103703 -0.0039042 -0.0156089)
(0.114546 -0.00635083 -0.0173114)
(0.117517 -0.00665648 -0.0147177)
(0.120171 -0.00609747 -0.0108818)
(0.1222 -0.00537127 -0.00668241)
(0.124378 -0.00476075 -0.00289813)
(0.127848 -0.00388693 0.000439576)
(0.131858 -0.00259725 0.00366966)
(0.133997 -0.00148728 0.00655884)
(0.133583 -0.00107602 0.00815842)
(0.132953 -0.00111911 0.00804364)
(0.134004 -0.00105473 0.00731783)
(0.134991 -0.000844619 0.00737677)
(0.133363 -0.000758906 0.00792501)
(0.128786 -0.000823277 0.00792431)
(0.12256 -0.000891642 0.00737324)
(0.115794 -0.000898696 0.00695881)
(0.108784 -0.000900077 0.00682329)
(0.101868 -0.00100822 0.00666471)
(0.0959354 -0.00131184 0.00647292)
(0.0918064 -0.00190126 0.00659424)
(0.0897022 -0.00287728 0.00734504)
(0.0894422 -0.00423343 0.00875306)
(0.0908219 -0.00584673 0.0104274)
(0.0936745 -0.00756544 0.0116846)
(0.0980468 -0.00899714 0.0118086)
(0.103754 -0.00965076 0.010522)
(0.109597 -0.0093544 0.00814166)
(0.113837 -0.00837591 0.00537055)
(0.11616 -0.0069685 0.00261679)
(0.118001 -0.00527837 -0.000210158)
(0.120353 -0.00356454 -0.00309186)
(0.122587 -0.00207783 -0.00557942)
(0.123082 -0.000987329 -0.00740553)
(0.121082 -0.000375863 -0.00898568)
(0.11777 -0.000309814 -0.0109794)
(0.114777 -0.000772651 -0.0134347)
(0.112754 -0.00145633 -0.0157227)
(0.111664 -0.00226153 -0.01735)
(0.11149 -0.00347228 -0.0182656)
(0.112383 -0.00505377 -0.0183918)
(0.122511 -0.00698155 -0.0174563)
(0.123625 -0.00776046 -0.016291)
(0.124727 -0.00738305 -0.0136251)
(0.12572 -0.00656463 -0.00996776)
(0.126764 -0.00593632 -0.00619519)
(0.128651 -0.00530511 -0.00280051)
(0.131994 -0.00410995 0.000310355)
(0.135484 -0.00256189 0.00324045)
(0.136729 -0.0016207 0.00543136)
(0.135737 -0.00169743 0.00610198)
(0.135416 -0.00206849 0.00566772)
(0.137355 -0.00196272 0.00563809)
(0.139095 -0.00151222 0.00646422)
(0.137697 -0.00116913 0.00709255)
(0.133376 -0.00103343 0.0070344)
(0.12803 -0.000931132 0.00691168)
(0.122503 -0.000795661 0.00710364)
(0.116537 -0.000787892 0.0073049)
(0.110448 -0.00108683 0.00726921)
(0.105335 -0.00174145 0.00723175)
(0.101972 -0.00280159 0.00763109)
(0.100524 -0.00427034 0.00871603)
(0.100842 -0.00602375 0.0102734)
(0.102621 -0.00789213 0.0116601)
(0.105645 -0.00949779 0.0121317)
(0.109722 -0.0103034 0.0113067)
(0.113907 -0.00998981 0.00937546)
(0.11658 -0.00883622 0.0070416)
(0.117045 -0.00731535 0.00488581)
(0.116357 -0.00572839 0.00287462)
(0.116312 -0.00417412 0.000743468)
(0.117552 -0.00260707 -0.00125643)
(0.118914 -0.00109995 -0.00269601)
(0.118977 5.13791e-06 -0.00381148)
(0.11811 0.000320089 -0.00537096)
(0.117723 -0.000210393 -0.00779214)
(0.118313 -0.00114139 -0.010724)
(0.119347 -0.00213638 -0.013538)
(0.120472 -0.00345157 -0.0157652)
(0.121484 -0.00524957 -0.0171607)
(0.129151 -0.00661139 -0.0149807)
(0.129911 -0.00783634 -0.0155576)
(0.130011 -0.00791378 -0.0146699)
(0.130077 -0.00730191 -0.0123118)
(0.130566 -0.00668658 -0.00911017)
(0.131469 -0.00624957 -0.00582234)
(0.133236 -0.0054405 -0.00275087)
(0.136068 -0.00398728 0.000126965)
(0.138763 -0.0025275 0.00260467)
(0.139393 -0.00204823 0.00400825)
(0.138367 -0.00257749 0.0041728)
(0.138482 -0.00307876 0.00417783)
(0.140766 -0.00280057 0.00499347)
(0.142438 -0.00203586 0.00604701)
(0.140979 -0.0014618 0.00651363)
(0.137138 -0.00126111 0.00670153)
(0.132801 -0.00115073 0.0071604)
(0.128533 -0.00100851 0.00775809)
(0.123976 -0.00107844 0.00805599)
(0.119351 -0.00160611 0.00798768)
(0.115459 -0.00267128 0.00796878)
(0.112988 -0.00424921 0.00846771)
(0.112233 -0.00613025 0.00947199)
(0.112986 -0.00803555 0.0104152)
(0.114755 -0.00958944 0.0107017)
(0.117155 -0.0102667 0.0100789)
(0.119451 -0.00974698 0.00865613)
(0.120502 -0.0083474 0.00690365)
(0.119657 -0.00666555 0.005375)
(0.117638 -0.00512964 0.00407904)
(0.115891 -0.0038532 0.00265682)
(0.115516 -0.00252573 0.00120436)
(0.116235 -0.000954342 0.000262828)
(0.116919 0.000467638 -0.000115962)
(0.11755 0.00105535 -0.00069393)
(0.118889 0.000580176 -0.00222124)
(0.12118 -0.000476696 -0.00471758)
(0.123704 -0.00155839 -0.00775451)
(0.1259 -0.00284296 -0.0107844)
(0.127712 -0.00465 -0.013293)
(0.133721 -0.00552828 -0.0117272)
(0.135275 -0.0070243 -0.0135145)
(0.135474 -0.0076363 -0.0142683)
(0.134857 -0.00754755 -0.013442)
(0.134593 -0.00719908 -0.0112155)
(0.134952 -0.00686402 -0.00832351)
(0.135666 -0.00634365 -0.00537856)
(0.137019 -0.00532756 -0.00250583)
(0.139223 -0.00396332 0.000172432)
(0.141149 -0.00298451 0.00215505)
(0.141225 -0.00300524 0.0029902)
(0.140371 -0.00366953 0.00320332)
(0.141041 -0.00393542 0.00384087)
(0.143346 -0.00333783 0.00494344)
(0.144665 -0.00236637 0.00572651)
(0.143339 -0.00169845 0.00613774)
(0.140195 -0.00145227 0.00667308)
(0.13677 -0.00139301 0.00737373)
(0.133755 -0.00140408 0.00781764)
(0.131032 -0.00164686 0.00768056)
(0.12831 -0.00242939 0.00721536)
(0.12581 -0.00398308 0.00707324)
(0.124187 -0.00605059 0.00749071)
(0.123688 -0.00803604 0.00793108)
(0.123992 -0.00942227 0.00792459)
(0.124769 -0.0097948 0.00754458)
(0.125557 -0.00894287 0.00686083)
(0.125413 -0.00721278 0.00585426)
(0.123681 -0.00533541 0.00483985)
(0.120956 -0.00384534 0.00400441)
(0.118507 -0.0028347 0.00294453)
(0.117336 -0.0018727 0.00154709)
(0.117423 -0.000512053 0.000502261)
(0.11811 0.000956863 0.000271031)
(0.119391 0.00170411 0.000334662)
(0.121608 0.00138249 -0.000183726)
(0.124524 0.000378088 -0.00158634)
(0.12744 -0.000661037 -0.00377447)
(0.129763 -0.00182069 -0.00652274)
(0.13172 -0.00353861 -0.00933042)
(0.137764 -0.00442357 -0.00984332)
(0.140057 -0.00594726 -0.011788)
(0.140924 -0.00683264 -0.0132379)
(0.139996 -0.00727745 -0.0134752)
(0.138756 -0.00737208 -0.0121606)
(0.138261 -0.00717886 -0.0098122)
(0.138386 -0.00677249 -0.00715499)
(0.138815 -0.0061508 -0.0044371)
(0.139911 -0.00527105 -0.00165385)
(0.141549 -0.0043214 0.0007972)
(0.142441 -0.00384073 0.00225495)
(0.141918 -0.00417256 0.00270825)
(0.141521 -0.00470554 0.00308571)
(0.142617 -0.00458678 0.00395629)
(0.144247 -0.00368299 0.00490623)
(0.144461 -0.00257606 0.0055402)
(0.142731 -0.00181748 0.00596214)
(0.140041 -0.00157301 0.00620312)
(0.137607 -0.00169485 0.00610369)
(0.136226 -0.00193194 0.00555182)
(0.135724 -0.00229256 0.00467156)
(0.135005 -0.00328853 0.00401313)
(0.13367 -0.00512387 0.00402018)
(0.132206 -0.00711475 0.00428568)
(0.131071 -0.00847612 0.00433105)
(0.130466 -0.00873072 0.00442306)
(0.130374 -0.00772322 0.00472384)
(0.129942 -0.00572786 0.00469556)
(0.1281 -0.00357732 0.00410194)
(0.125138 -0.00200303 0.00333729)
(0.122451 -0.00120171 0.00234157)
(0.121075 -0.000674669 0.000760697)
(0.12102 0.000259048 -0.000890063)
(0.121629 0.00144735 -0.00169486)
(0.12298 0.00206191 -0.00166674)
(0.125495 0.00175999 -0.00164128)
(0.128671 0.000917717 -0.00219045)
(0.131536 4.619e-05 -0.00343919)
(0.133651 -0.00093169 -0.00536052)
(0.135496 -0.00251056 -0.0076496)
(0.142701 -0.00376314 -0.0096335)
(0.145106 -0.00506039 -0.0111147)
(0.146365 -0.00579456 -0.0125423)
(0.145435 -0.00638132 -0.0132354)
(0.143273 -0.00684636 -0.0125328)
(0.141574 -0.00689339 -0.0106037)
(0.140924 -0.00661135 -0.00821796)
(0.140955 -0.00623761 -0.00575335)
(0.141442 -0.0058342 -0.00304607)
(0.142391 -0.00517636 -0.000237438)
(0.143269 -0.00444178 0.00183017)
(0.143184 -0.00426679 0.0025989)
(0.14232 -0.00471423 0.0027677)
(0.141742 -0.00494996 0.00338262)
(0.141638 -0.00438327 0.00451899)
(0.141158 -0.00326727 0.00551872)
(0.139802 -0.00221986 0.00581351)
(0.1379 -0.00161629 0.00522373)
(0.135876 -0.00162305 0.00410549)
(0.134489 -0.00205144 0.00302952)
(0.134762 -0.00255383 0.00215906)
(0.136253 -0.00312158 0.00142789)
(0.137232 -0.00423892 0.0010805)
(0.136905 -0.00578341 0.00121936)
(0.135736 -0.00702059 0.00166156)
(0.134459 -0.00729626 0.00246782)
(0.133801 -0.00635748 0.00360226)
(0.133554 -0.00439012 0.00431646)
(0.132479 -0.00210065 0.00397021)
(0.130109 -0.000367828 0.00294071)
(0.127744 0.000437103 0.00167755)
(0.126679 0.000742572 -0.000160162)
(0.12697 0.00128937 -0.00243566)
(0.127893 0.00202966 -0.00409189)
(0.129251 0.00217036 -0.0046008)
(0.131502 0.00154142 -0.00458686)
(0.134434 0.000776293 -0.00479901)
(0.13707 0.000196481 -0.00548439)
(0.138938 -0.000544386 -0.00666062)
(0.140576 -0.00197946 -0.00814118)
(0.146745 -0.00296856 -0.00892619)
(0.148959 -0.00400453 -0.0102433)
(0.150646 -0.00452596 -0.0117081)
(0.150488 -0.00503693 -0.012712)
(0.148436 -0.00562477 -0.0125088)
(0.145963 -0.0058777 -0.0110026)
(0.144408 -0.0057792 -0.00882031)
(0.143917 -0.00567447 -0.00650268)
(0.144007 -0.00564613 -0.00395478)
(0.14431 -0.00531925 -0.00108763)
(0.144572 -0.00450436 0.001426)
(0.144268 -0.00379962 0.00262999)
(0.143006 -0.0037884 0.00275414)
(0.141124 -0.00410445 0.00296279)
(0.139282 -0.00397678 0.00374217)
(0.137681 -0.00323853 0.0044763)
(0.136228 -0.00228776 0.00430079)
(0.134831 -0.00151992 0.00303358)
(0.133368 -0.00129594 0.0013732)
(0.132217 -0.00181018 0.000257868)
(0.132597 -0.00277039 -0.000130233)
(0.135154 -0.00355697 -0.000321364)
(0.138389 -0.00414819 -0.000441616)
(0.14016 -0.00492591 -4.53304e-05)
(0.139844 -0.00575411 0.000958835)
(0.138303 -0.00603271 0.00232541)
(0.136899 -0.00529998 0.00378325)
(0.136135 -0.00356472 0.00475502)
(0.135128 -0.00133379 0.00464692)
(0.133013 0.000491782 0.00365942)
(0.130696 0.00135894 0.0023828)
(0.129765 0.00154947 0.000631484)
(0.130513 0.00175821 -0.00164815)
(0.132067 0.00206493 -0.00351467)
(0.133677 0.00183564 -0.00430317)
(0.135462 0.00094243 -0.00454226)
(0.137826 0.000174342 -0.0050235)
(0.14054 -9.36722e-05 -0.00584387)
(0.14294 -0.000416245 -0.00680484)
(0.144836 -0.00148817 -0.00782355)
(0.146971 -0.00183763 -0.00650336)
(0.149609 -0.00261954 -0.00832058)
(0.152228 -0.00306813 -0.0102217)
(0.153647 -0.00352676 -0.0117108)
(0.152959 -0.00402783 -0.0121579)
(0.150842 -0.00425803 -0.0112388)
(0.148882 -0.00425413 -0.00926244)
(0.147871 -0.00438919 -0.00689853)
(0.147397 -0.00468898 -0.00446567)
(0.146914 -0.00464513 -0.00184628)
(0.146274 -0.00392861 0.000798699)
(0.145412 -0.00296999 0.00261511)
(0.144045 -0.00249265 0.00313897)
(0.142106 -0.00255041 0.0029644)
(0.140066 -0.00259636 0.00277464)
(0.138391 -0.00231736 0.0026015)
(0.137118 -0.00179786 0.00199743)
(0.136118 -0.00121402 0.000691362)
(0.135348 -0.00084375 -0.000991664)
(0.134998 -0.00122166 -0.00219735)
(0.135603 -0.00241265 -0.00237415)
(0.137804 -0.00377721 -0.00191483)
(0.140948 -0.00454104 -0.0013532)
(0.143135 -0.00482188 -0.000557371)
(0.143112 -0.00493405 0.000782407)
(0.141351 -0.00481943 0.0025388)
(0.139243 -0.00421557 0.00428009)
(0.137535 -0.00285824 0.00548712)
(0.135703 -0.00080588 0.0058489)
(0.133071 0.00112842 0.00552717)
(0.130263 0.00206285 0.00483093)
(0.128748 0.00212481 0.00357308)
(0.129024 0.00207228 0.00175913)
(0.130302 0.00212319 0.00035898)
(0.13169 0.00178608 -0.000120472)
(0.133077 0.000893195 -0.00044041)
(0.135055 7.50022e-05 -0.00135288)
(0.137962 -0.000196489 -0.00262893)
(0.14136 -0.00029751 -0.00382183)
(0.144399 -0.000856923 -0.00502186)
(0.145578 -0.000420809 -0.00358621)
(0.148835 -0.000770035 -0.00556248)
(0.152273 -0.0011465 -0.00779662)
(0.154978 -0.0016238 -0.00981428)
(0.155915 -0.00207072 -0.0109368)
(0.155099 -0.00225127 -0.0106644)
(0.153538 -0.00228539 -0.00915305)
(0.152189 -0.0025751 -0.00704643)
(0.151048 -0.00315428 -0.00486952)
(0.149622 -0.00343096 -0.00259156)
(0.147853 -0.00297069 -7.47764e-05)
(0.146015 -0.00205898 0.00211261)
(0.144183 -0.00139109 0.00321419)
(0.142349 -0.00124701 0.00323393)
(0.140822 -0.00133146 0.0027149)
(0.139783 -0.00132708 0.00208657)
(0.138974 -0.00121641 0.00142721)
(0.138283 -0.00101025 0.000500465)
(0.137976 -0.000700652 -0.000815539)
(0.138255 -0.000738567 -0.00202556)
(0.139077 -0.00165989 -0.0023265)
(0.140618 -0.0031973 -0.00168392)
(0.14271 -0.00431514 -0.000689749)
(0.144254 -0.00444683 0.000393105)
(0.144221 -0.00391107 0.0017381)
(0.142748 -0.00318774 0.00337532)
(0.140797 -0.00249871 0.0050388)
(0.13888 -0.00157523 0.0063258)
(0.136736 -0.000122732 0.00693953)
(0.134052 0.00148791 0.00693415)
(0.131239 0.00234679 0.00652606)
(0.129243 0.00224398 0.00567542)
(0.128568 0.00179623 0.00434822)
(0.128938 0.00146654 0.00323725)
(0.129882 0.0010672 0.00288863)
(0.131229 0.000366367 0.00273779)
(0.133094 -0.000312041 0.00195629)
(0.135727 -0.000501826 0.000598576)
(0.139041 -0.000316414 -0.000752049)
(0.142432 -0.000211344 -0.00203397)
(0.144198 0.0014383 -0.000840517)
(0.147624 0.00139206 -0.00273836)
(0.151364 0.0011005 -0.00491073)
(0.154627 0.000531278 -0.00715543)
(0.15654 6.48093e-06 -0.00894024)
(0.157008 -0.000155596 -0.00957152)
(0.156493 -0.000148336 -0.00881575)
(0.155421 -0.000494848 -0.00713911)
(0.153812 -0.00123623 -0.00525342)
(0.15153 -0.00175158 -0.00336021)
(0.148802 -0.00150541 -0.00119913)
(0.146148 -0.000754209 0.00102172)
(0.143925 -0.000154739 0.00253107)
(0.142285 -3.50727e-05 0.00299001)
(0.141356 -0.000243574 0.00275496)
(0.140981 -0.00053711 0.0023025)
(0.140654 -0.000861787 0.00187974)
(0.140147 -0.00108875 0.00146006)
(0.139829 -0.00103084 0.000928807)
(0.140163 -0.00100513 0.000456882)
(0.141125 -0.00176175 0.000599267)
(0.142361 -0.00325756 0.00150727)
(0.143409 -0.00438383 0.00263237)
(0.143742 -0.00418754 0.00354678)
(0.14315 -0.0029555 0.00449489)
(0.141913 -0.00164422 0.00565951)
(0.140442 -0.000870902 0.00672508)
(0.138816 -0.000379314 0.00731377)
(0.136815 0.000482294 0.00747755)
(0.134359 0.00187903 0.00747387)
(0.131763 0.00305665 0.00738325)
(0.129681 0.00329603 0.00701263)
(0.128568 0.00284689 0.00632166)
(0.128448 0.00236736 0.00578732)
(0.129219 0.00205844 0.00582602)
(0.130766 0.00166743 0.00595795)
(0.132856 0.00121772 0.00534775)
(0.13532 0.00100302 0.00393619)
(0.138123 0.00108527 0.00230734)
(0.141111 0.00130516 0.000772271)
(0.144799 0.00238008 0.000694721)
(0.147738 0.00233648 -0.000905165)
(0.150726 0.00220079 -0.00268786)
(0.15357 0.00177834 -0.00469974)
(0.155855 0.00119257 -0.00669545)
(0.157373 0.000856206 -0.00804276)
(0.158092 0.000904147 -0.008243)
(0.157908 0.000934642 -0.00745188)
(0.156611 0.00058418 -0.00621603)
(0.154205 4.15802e-05 -0.00482259)
(0.151254 -0.000184314 -0.0031124)
(0.148615 1.00628e-05 -0.00108454)
(0.14682 0.000279937 0.000767562)
(0.145856 0.00035256 0.00192351)
(0.145469 0.000203852 0.00238176)
(0.145326 -0.000151588 0.00256072)
(0.145115 -0.000592204 0.00286271)
(0.144758 -0.000818086 0.003356)
(0.144615 -0.000629799 0.00374495)
(0.145081 -0.000349062 0.0036244)
(0.145979 -0.000688739 0.00328006)
(0.146648 -0.00182176 0.00343819)
(0.146588 -0.00283472 0.00430907)
(0.145696 -0.00260848 0.00524415)
(0.144227 -0.0011054 0.00572466)
(0.142608 0.000655383 0.00578678)
(0.141091 0.00182794 0.00571282)
(0.139546 0.00237963 0.00566347)
(0.137683 0.0028896 0.00565312)
(0.135401 0.00381083 0.00557643)
(0.132889 0.00483891 0.0054602)
(0.130647 0.00526929 0.00542988)
(0.129298 0.00497161 0.00539177)
(0.129168 0.00438884 0.00537235)
(0.130232 0.00390052 0.00562928)
(0.132087 0.00352315 0.00604206)
(0.134269 0.00316726 0.00599312)
(0.136568 0.002847 0.00514363)
(0.139092 0.00259574 0.00374845)
(0.141892 0.0024503 0.00221777)
(0.144003 0.00154933 0.0015491)
(0.146536 0.00122001 0.00018552)
(0.149064 0.0011976 -0.00121342)
(0.151479 0.00110128 -0.00276119)
(0.153543 0.000749737 -0.00444257)
(0.155157 0.000432747 -0.00598117)
(0.156389 0.000484516 -0.00695302)
(0.1572 0.00085195 -0.00710921)
(0.157308 0.00114765 -0.00656404)
(0.156333 0.00110845 -0.00561335)
(0.154283 0.000752962 -0.0043624)
(0.151842 0.000167985 -0.00279148)
(0.149955 -0.000660714 -0.00107123)
(0.149114 -0.00158323 0.000398363)
(0.149078 -0.00228777 0.00136783)
(0.149206 -0.00269473 0.00192078)
(0.148929 -0.0029796 0.00241919)
(0.148163 -0.00309033 0.00306775)
(0.147343 -0.00277833 0.00357589)
(0.146991 -0.00213682 0.00342944)
(0.147041 -0.00159103 0.00258531)
(0.146993 -0.00141052 0.00178375)
(0.146442 -0.00138098 0.00173557)
(0.145396 -0.000902903 0.00233004)
(0.144101 0.000436323 0.00284509)
(0.142919 0.00227546 0.00278206)
(0.142086 0.00378051 0.0023115)
(0.141554 0.00448588 0.00189153)
(0.141014 0.00478343 0.00180255)
(0.140124 0.00537846 0.00191934)
(0.138723 0.00641538 0.00203303)
(0.137024 0.00728732 0.00217654)
(0.135596 0.0074397 0.00238846)
(0.134874 0.00694908 0.00261751)
(0.134934 0.00617002 0.00294957)
(0.135525 0.00531651 0.00347442)
(0.136405 0.00450996 0.00400006)
(0.137596 0.00379819 0.00416355)
(0.139299 0.00306798 0.00376229)
(0.141525 0.00224781 0.0028169)
(0.144578 0.00036276 0.00400225)
(0.145663 8.41645e-05 0.0031209)
(0.146622 0.000134517 0.00184985)
(0.147647 0.000285219 0.000313399)
(0.148699 0.000389937 -0.00143236)
(0.14959 0.000516685 -0.00329349)
(0.150176 0.00079685 -0.00506862)
(0.150457 0.00121667 -0.00640421)
(0.150553 0.00162102 -0.00698707)
(0.150541 0.00181014 -0.00673719)
(0.150405 0.00164558 -0.0057959)
(0.150135 0.000994034 -0.00442224)
(0.149892 -0.000190703 -0.00287708)
(0.149965 -0.00168391 -0.00130357)
(0.150512 -0.00300423 0.000225647)
(0.151328 -0.00379928 0.00153361)
(0.151828 -0.00399527 0.00246688)
(0.151515 -0.0036445 0.00307536)
(0.150402 -0.00300467 0.00347811)
(0.148995 -0.002513 0.00358583)
(0.147739 -0.0023865 0.00322085)
(0.146806 -0.00231273 0.00258109)
(0.146158 -0.00188737 0.00213474)
(0.145614 -0.00104501 0.00208959)
(0.145026 2.86131e-05 0.00223845)
(0.144556 0.00116984 0.00218983)
(0.144492 0.00219279 0.00176891)
(0.144887 0.00294438 0.00114146)
(0.145426 0.00351302 0.000570351)
(0.145682 0.00415302 0.000112467)
(0.145414 0.00507307 -0.000389225)
(0.1447 0.00614166 -0.000944483)
(0.143849 0.00693986 -0.00136269)
(0.143158 0.00716589 -0.00145729)
(0.142643 0.00672738 -0.00109715)
(0.142143 0.00568561 -0.000144376)
(0.14167 0.00430055 0.00131579)
(0.141547 0.00294809 0.00282824)
(0.14212 0.00184665 0.00391846)
(0.143289 0.000983388 0.00430956)
(0.152096 0.00165374 0.00392871)
(0.15333 0.001703 0.00434823)