/*--------------------------------*- C++ -*----------------------------------*\
| =========                 |                                                 |
| \\      /  F ield         | OpenFOAM: The Open Source CFD Toolbox           |
|  \\    /   O peration     | Version:  2306                                  |
|   \\  /    A nd           | Website:  www.openfoam.com                      |
|    \\/     M anipulation  |                                                 |
\*---------------------------------------------------------------------------*/
FoamFile
{
    version     2.0;
    format      ascii;
    arch        "LSB;label=32;scalar=64";
    class       volScalarField;
    location    "1.5";
    object      nut;
}
// * * * * * * * * * * * * * * * * * * * * * * * * * * * * * * * * * * * * * //

dimensions      [0 2 -1 0 0 0 0];

internalField   nonuniform List<scalar> 
60000
(
9.98311e-05
9.87176e-05
9.67043e-05
9.49314e-05
9.34678e-05
9.12051e-05
8.70457e-05
8.03412e-05
7.15166e-05
6.2876e-05
5.7157e-05
5.50145e-05
5.48405e-05
5.5046e-05
5.53061e-05
5.60262e-05
5.77486e-05
6.05128e-05
6.39198e-05
6.78559e-05
7.26848e-05
7.86038e-05
8.47821e-05
8.95574e-05
9.10652e-05
8.82222e-05
8.17012e-05
7.39385e-05
6.73389e-05
6.26375e-05
5.99919e-05
5.94832e-05
6.11308e-05
6.49979e-05
7.04291e-05
7.66361e-05
8.31788e-05
8.95593e-05
9.50229e-05
9.87025e-05
0.000102828
0.000102028
9.95228e-05
9.72578e-05
9.58144e-05
9.39592e-05
9.03988e-05
8.48211e-05
7.76138e-05
6.97363e-05
6.2771e-05
5.82735e-05
5.59986e-05
5.48544e-05
5.44926e-05
5.5e-05
5.65879e-05
5.92615e-05
6.28014e-05
6.72267e-05
7.2761e-05
7.9251e-05
8.5719e-05
9.08801e-05
9.32423e-05
9.1677e-05
8.66507e-05
8.01058e-05
7.34172e-05
6.70235e-05
6.19283e-05
5.94025e-05
6e-05
6.34556e-05
6.88125e-05
7.5246e-05
8.19627e-05
8.86856e-05
9.51042e-05
0.000100323
0.000102771
0.000102544
9.94319e-05
9.64969e-05
9.50837e-05
9.41807e-05
9.24208e-05
8.9505e-05
8.53438e-05
7.89289e-05
7.00974e-05
6.18809e-05
5.67161e-05
5.39644e-05
5.26033e-05
5.2312e-05
5.31942e-05
5.52681e-05
5.83223e-05
6.23467e-05
6.76723e-05
7.4242e-05
8.12503e-05
8.77541e-05
9.24974e-05
9.40667e-05
9.20558e-05
8.74163e-05
8.11999e-05
7.37737e-05
6.59524e-05
5.97029e-05
5.69922e-05
5.83504e-05
6.28555e-05
6.92873e-05
7.6402e-05
8.37771e-05
9.14305e-05
9.84968e-05
9.77461e-05
9.89059e-05
9.52805e-05
9.14176e-05
9.0074e-05
9.04201e-05
9.09292e-05
9.1152e-05
9.09185e-05
8.81105e-05
7.97682e-05
6.79598e-05
5.84673e-05
5.30114e-05
5.00681e-05
4.84798e-05
4.80372e-05
4.87572e-05
5.03741e-05
5.27785e-05
5.66674e-05
6.25094e-05
6.97633e-05
7.78201e-05
8.58171e-05
9.19332e-05
9.43225e-05
9.27862e-05
8.84818e-05
8.20805e-05
7.34926e-05
6.36019e-05
5.56135e-05
5.23284e-05
5.38607e-05
5.90462e-05
6.62422e-05
7.40027e-05
8.23823e-05
9.11563e-05
8.41908e-05
8.84617e-05
8.51763e-05
7.97757e-05
7.8316e-05
8.03698e-05
8.32595e-05
8.61406e-05
8.95379e-05
9.22143e-05
8.90453e-05
7.7414e-05
6.33783e-05
5.3436e-05
4.79072e-05
4.45963e-05
4.23587e-05
4.09668e-05
4.00803e-05
3.95006e-05
4.02762e-05
4.36593e-05
4.92737e-05
5.73622e-05
6.86624e-05
8.04676e-05
8.88255e-05
9.1734e-05
9.04488e-05
8.70127e-05
8.14968e-05
7.23225e-05
6.02532e-05
5.04259e-05
4.62705e-05
4.74171e-05
5.20782e-05
5.83097e-05
6.55406e-05
7.47421e-05
5.92312e-05
6.83943e-05
6.77325e-05
6.00013e-05
5.70403e-05
6.17e-05
6.76761e-05
7.21373e-05
7.72512e-05
8.48724e-05
9.10249e-05
8.7249e-05
7.31905e-05
5.79354e-05
4.79011e-05
4.23315e-05
3.85326e-05
3.53095e-05
3.20903e-05
2.8701e-05
2.73388e-05
3.07134e-05
3.5257e-05
3.72415e-05
4.11032e-05
5.49316e-05
7.08158e-05
7.99032e-05
8.22944e-05
8.2166e-05
8.17281e-05
7.93357e-05
7.08923e-05
5.72203e-05
4.60099e-05
4.20961e-05
4.27162e-05
4.44854e-05
4.63565e-05
5.01871e-05
3.89171e-05
4.20942e-05
4.59641e-05
3.76087e-05
2.81374e-05
3.29925e-05
4.48267e-05
5.08851e-05
5.25447e-05
6.01384e-05
7.59606e-05
8.76758e-05
8.44471e-05
6.88333e-05
5.28051e-05
4.30864e-05
3.795e-05
3.46373e-05
3.17821e-05
2.84721e-05
2.44906e-05
2.45104e-05
3.15881e-05
3.80939e-05
3.76077e-05
3.12574e-05
4.11092e-05
5.50628e-05
5.86724e-05
5.81438e-05
6.26688e-05
7.12572e-05
7.53452e-05
6.9066e-05
5.50809e-05
4.36687e-05
4.06476e-05
3.99566e-05
3.93255e-05
4.00119e-05
3.55673e-05
3.01163e-05
2.94396e-05
2.81114e-05
1.2823e-05
7.5143e-06
1.8812e-05
3.09986e-05
2.94204e-05
2.3919e-05
3.58052e-05
6.45573e-05
8.41722e-05
8.18777e-05
6.47778e-05
4.86324e-05
3.99141e-05
3.65501e-05
3.61129e-05
3.70023e-05
3.65998e-05
3.12168e-05
2.44266e-05
2.75994e-05
3.59363e-05
3.55031e-05
2.41518e-05
2.60764e-05
2.63088e-05
2.05183e-05
2.17073e-05
3.41464e-05
5.48104e-05
6.75436e-05
6.49666e-05
5.20538e-05
4.06209e-05
3.59867e-05
3.33401e-05
3.31692e-05
2.62452e-05
2.83329e-05
2.31782e-05
2.90694e-05
2.28694e-05
3.52933e-06
1.41394e-05
1.43591e-05
2.28455e-05
1.36921e-05
1.2854e-05
2.24607e-05
5.72826e-05
8.13957e-05
7.81897e-05
6.03449e-05
4.52279e-05
3.8334e-05
3.78933e-05
4.16364e-05
4.6472e-05
4.67747e-05
3.80767e-05
2.51244e-05
2.31688e-05
3.00167e-05
2.48914e-05
1.35728e-05
2.33933e-05
3.1282e-05
3.71645e-05
3.84691e-05
3.35775e-05
4.39617e-05
5.70374e-05
5.70532e-05
4.64231e-05
3.41939e-05
2.79319e-05
2.5817e-05
2.24036e-05
2.36432e-05
2.4458e-05
2.5743e-05
3.18399e-05
1.91177e-05
9.73612e-06
1.92221e-05
1.22374e-05
2.39503e-05
1.29952e-05
2.23369e-05
2.43353e-05
5.40016e-05
7.6179e-05
7.13792e-05
5.47008e-05
4.13624e-05
3.6787e-05
4.01994e-05
4.85955e-05
5.50569e-05
5.19407e-05
3.88396e-05
2.3346e-05
2.0709e-05
2.28881e-05
1.88324e-05
2.91667e-05
3.35084e-05
2.75703e-05
3.32829e-05
4.01544e-05
3.45981e-05
3.64028e-05
4.64147e-05
4.96271e-05
4.16377e-05
2.88691e-05
2.33025e-05
2.32418e-05
2.2524e-05
2.46462e-05
2.48463e-05
2.57214e-05
2.72778e-05
1.11452e-05
1.54322e-05
2.05493e-05
1.2448e-05
2.54717e-05
1.32959e-05
2.69244e-05
2.40264e-05
4.9129e-05
6.6248e-05
6.06028e-05
4.544e-05
3.33852e-05
3.3491e-05
4.36751e-05
5.75864e-05
6.243e-05
5.31662e-05
3.51437e-05
1.98759e-05
1.95597e-05
2.03488e-05
2.70219e-05
3.37668e-05
2.84915e-05
1.82244e-05
2.0609e-05
2.86675e-05
2.74967e-05
2.96257e-05
4.08376e-05
4.66967e-05
3.78943e-05
2.52996e-05
2.55867e-05
2.64906e-05
2.44588e-05
2.55824e-05
2.15087e-05
1.79991e-05
1.93418e-05
5.8149e-06
1.82184e-05
1.95725e-05
1.39479e-05
1.90463e-05
1.43489e-05
2.73577e-05
2.05766e-05
3.71784e-05
4.57478e-05
3.96265e-05
2.79004e-05
2.28821e-05
3.19533e-05
4.82052e-05
6.46234e-05
6.39443e-05
4.80673e-05
2.9017e-05
2.12307e-05
2.03742e-05
2.22089e-05
2.95988e-05
3.34228e-05
3.29571e-05
2.71267e-05
2.01501e-05
2.11545e-05
2.19826e-05
2.52002e-05
3.94619e-05
4.23557e-05
3.18043e-05
2.86765e-05
2.9461e-05
2.72159e-05
2.29181e-05
2.19842e-05
1.28518e-05
1.27733e-05
1.48366e-05
8.42404e-06
1.91257e-05
1.7512e-05
1.60803e-05
1.31786e-05
2.04555e-05
2.70422e-05
1.87998e-05
1.76457e-05
1.92504e-05
2.48983e-05
2.70362e-05
2.89891e-05
3.16322e-05
4.84127e-05
6.28694e-05
5.53972e-05
3.77223e-05
2.77376e-05
2.44379e-05
2.05929e-05
2.39305e-05
3.04743e-05
3.80644e-05
4.22609e-05
3.62934e-05
2.41728e-05
2.14784e-05
1.91152e-05
2.32924e-05
3.63096e-05
3.4939e-05
3.01243e-05
3.17507e-05
3.13717e-05
2.48785e-05
2.07366e-05
1.39907e-05
6.69134e-06
1.35176e-05
1.17324e-05
1.28709e-05
1.81271e-05
1.80923e-05
1.8564e-05
1.61409e-05
2.791e-05
3.5216e-05
2.77853e-05
1.28506e-05
2.26494e-05
3.10346e-05
2.57231e-05
2.52075e-05
2.27571e-05
4.3568e-05
5.2074e-05
4.09449e-05
3.0501e-05
2.77143e-05
2.11523e-05
1.70651e-05
1.85869e-05
2.55118e-05
3.6741e-05
4.05575e-05
3.23993e-05
2.24693e-05
2.18977e-05
1.39723e-05
2.13975e-05
3.02593e-05
2.66709e-05
3.16799e-05
3.29816e-05
3.00101e-05
2.61575e-05
1.7064e-05
5.03335e-06
1.17832e-05
1.56974e-05
1.29841e-05
1.47274e-05
1.76979e-05
2.13025e-05
2.23059e-05
2.04315e-05
2.06982e-05
1.74161e-05
1.74912e-05
2.1648e-05
2.7024e-05
2.65346e-05
1.86546e-05
1.79375e-05
2.278e-05
4.09857e-05
3.98707e-05
2.93653e-05
2.47378e-05
1.92162e-05
1.41504e-05
1.53031e-05
1.36167e-05
1.59351e-05
2.36088e-05
2.37985e-05
1.72347e-05
1.87339e-05
2.1494e-05
1.47474e-05
1.92869e-05
2.23799e-05
2.75044e-05
2.87024e-05
2.87598e-05
3.12382e-05
2.41164e-05
9.73749e-06
7.97951e-06
1.63284e-05
1.69524e-05
1.36975e-05
1.31552e-05
1.56196e-05
2.04214e-05
2.12589e-05
1.94497e-05
1.94213e-05
2.11048e-05
2.19655e-05
2.40419e-05
3.02578e-05
2.55561e-05
1.14125e-05
1.65684e-05
3.43686e-05
4.00061e-05
3.19487e-05
2.09846e-05
1.59287e-05
2.15724e-05
2.3854e-05
1.94958e-05
1.57088e-05
1.58511e-05
1.85849e-05
1.87184e-05
2.02738e-05
2.54383e-05
2.71274e-05
2.19915e-05
2.88092e-05
2.54146e-05
2.10704e-05
2.02434e-05
2.98789e-05
2.98999e-05
1.78147e-05
6.59588e-06
1.08521e-05
1.50053e-05
1.42695e-05
1.28345e-05
1.31776e-05
1.32929e-05
1.62978e-05
2.18426e-05
2.32802e-05
2.10431e-05
1.82079e-05
1.82069e-05
2.79453e-05
3.14698e-05
1.76506e-05
5.92827e-06
2.36953e-05
3.48301e-05
3.38408e-05
2.47477e-05
1.82467e-05
1.78264e-05
1.60931e-05
1.56948e-05
1.38873e-05
1.04225e-05
1.46617e-05
2.32408e-05
2.66308e-05
2.69226e-05
3.00224e-05
3.16346e-05
3.09289e-05
3.07722e-05
2.26138e-05
1.30734e-05
2.23951e-05
3.1312e-05
2.86587e-05
1.84617e-05
7.82405e-06
9.47364e-06
1.18715e-05
1.17509e-05
1.37511e-05
1.78077e-05
2.48253e-05
2.82878e-05
2.44031e-05
1.91622e-05
1.36954e-05
1.34472e-05
2.49985e-05
3.18163e-05
2.31133e-05
4.95758e-06
1.47503e-05
2.77165e-05
3.12785e-05
2.77084e-05
2.24351e-05
1.72808e-05
1.41198e-05
1.89521e-05
2.27288e-05
1.66207e-05
1.60498e-05
2.54764e-05
2.93151e-05
2.77299e-05
2.61543e-05
2.79992e-05
2.35627e-05
2.33537e-05
1.98122e-05
1.47201e-05
1.4946e-05
1.80349e-05
2.20031e-05
2.38822e-05
2.23359e-05
1.73477e-05
8.42756e-06
4.56846e-06
1.69388e-05
2.75818e-05
3.1701e-05
2.73056e-05
2.23201e-05
2.24231e-05
1.69086e-05
1.12808e-05
2.18545e-05
3.44888e-05
3.42108e-05
1.54587e-05
1.72551e-05
3.34459e-05
3.87567e-05
4.05797e-05
4.14071e-05
3.86132e-05
3.11466e-05
2.23263e-05
2.06049e-05
2.11787e-05
1.72847e-05
2.04131e-05
2.39929e-05
2.20137e-05
2.01351e-05
2.17669e-05
1.8214e-05
1.62025e-05
1.50787e-05
1.98052e-05
2.45793e-05
2.16318e-05
1.40687e-05
1.40322e-05
1.77243e-05
2.07218e-05
2.24187e-05
1.92748e-05
1.63955e-05
2.42327e-05
3.16423e-05
2.89649e-05
2.2814e-05
2.56516e-05
2.62481e-05
1.9529e-05
1.28453e-05
1.81707e-05
2.48781e-05
1.71247e-05
1.0007e-05
3.24252e-05
4.38334e-05
4.92094e-05
5.16585e-05
4.79878e-05
3.85485e-05
2.71531e-05
1.81898e-05
1.50523e-05
1.50777e-05
1.80365e-05
2.3028e-05
2.45881e-05
2.20983e-05
1.92568e-05
1.92755e-05
1.82442e-05
1.85255e-05
1.86298e-05
1.62762e-05
1.20794e-05
8.92566e-06
1.32085e-05
1.84333e-05
1.80861e-05
1.52842e-05
1.77282e-05
2.08263e-05
1.83125e-05
1.12329e-05
1.01373e-05
1.29374e-05
1.87945e-05
2.73092e-05
2.76705e-05
1.98482e-05
1.18611e-05
1.16366e-05
1.27509e-05
9.3112e-06
2.51454e-05
3.942e-05
4.38655e-05
4.07889e-05
3.40358e-05
2.76359e-05
2.45079e-05
2.41315e-05
2.343e-05
2.17009e-05
2.05836e-05
2.12314e-05
2.2369e-05
2.17647e-05
2.00814e-05
2.0012e-05
2.38664e-05
2.27918e-05
2.22594e-05
2.24124e-05
1.98445e-05
1.46466e-05
9.00406e-06
6.43932e-06
9.21721e-06
1.32819e-05
1.41888e-05
1.23467e-05
1.50317e-05
1.97929e-05
1.88688e-05
1.28527e-05
1.54157e-05
2.67762e-05
3.39013e-05
3.14655e-05
2.18828e-05
1.5171e-05
1.35185e-05
1.2428e-05
2.02861e-05
2.92599e-05
3.02882e-05
2.50667e-05
1.93691e-05
1.67339e-05
1.78206e-05
2.3134e-05
2.84608e-05
2.92833e-05
2.69554e-05
2.37683e-05
2.06086e-05
1.70527e-05
1.49093e-05
1.26053e-05
1.14102e-05
8.42335e-06
1.12331e-05
1.57771e-05
1.58569e-05
1.6322e-05
1.96877e-05
1.98487e-05
1.58818e-05
1.04735e-05
1.07335e-05
1.49612e-05
1.41012e-05
1.17126e-05
1.63023e-05
1.95253e-05
1.72625e-05
2.0716e-05
3.11911e-05
3.63265e-05
3.12289e-05
1.96668e-05
1.32544e-05
1.36076e-05
1.49324e-05
1.74501e-05
2.01604e-05
2.27068e-05
2.25304e-05
1.84446e-05
1.28021e-05
1.35806e-05
2.10743e-05
2.41353e-05
2.11044e-05
1.60077e-05
1.2332e-05
1.08743e-05
1.15263e-05
1.07895e-05
9.79798e-06
1.18159e-05
1.52942e-05
1.64153e-05
1.62533e-05
1.90924e-05
2.29531e-05
2.23091e-05
1.68001e-05
1.25206e-05
1.24082e-05
1.12386e-05
9.06379e-06
8.47778e-06
1.10105e-05
1.45134e-05
1.70772e-05
1.8219e-05
1.69693e-05
1.34567e-05
1.07098e-05
1.06077e-05
1.11401e-05
1.24348e-05
1.47141e-05
1.68047e-05
1.88627e-05
2.05101e-05
1.92908e-05
1.44518e-05
8.77844e-06
6.16817e-06
7.44185e-06
1.00758e-05
1.16533e-05
1.23883e-05
1.24428e-05
1.23635e-05
1.20302e-05
1.22901e-05
1.02633e-05
1.09626e-05
1.2407e-05
1.23183e-05
9.88625e-06
6.99934e-06
8.56778e-06
1.04243e-05
9.90407e-06
1.12026e-05
1.54581e-05
1.97709e-05
2.27649e-05
2.31776e-05
2.03652e-05
1.76606e-05
1.944e-05
2.26854e-05
2.532e-05
2.56214e-05
2.08428e-05
1.12324e-05
4.42353e-06
8.28799e-06
1.21906e-05
1.68872e-05
2.21896e-05
2.49737e-05
2.38358e-05
1.89625e-05
1.30036e-05
1.08541e-05
1.10385e-05
7.92321e-06
7.39714e-06
1.22731e-05
1.45738e-05
1.5318e-05
1.49593e-05
8.42354e-05
8.95447e-05
9.34455e-05
9.46312e-05
9.31319e-05
9.00604e-05
8.63018e-05
8.17906e-05
7.65418e-05
7.15578e-05
6.81452e-05
6.63405e-05
6.50124e-05
6.36079e-05
6.29182e-05
6.38484e-05
6.63172e-05
6.9564e-05
7.29184e-05
7.6535e-05
8.09712e-05
8.62236e-05
9.11693e-05
9.38164e-05
9.25555e-05
8.74863e-05
8.0368e-05
7.33731e-05
6.78382e-05
6.33438e-05
5.90605e-05
5.56762e-05
5.42301e-05
5.46196e-05
5.63865e-05
5.96579e-05
6.44625e-05
6.97595e-05
7.45389e-05
7.90885e-05
8.48257e-05
9.1099e-05
9.59233e-05
9.79638e-05
9.70081e-05
9.39895e-05
9.01067e-05
8.59414e-05
8.17104e-05
7.74265e-05
7.34458e-05
7.02787e-05
6.76395e-05
6.5261e-05
6.38708e-05
6.41969e-05
6.60451e-05
6.8794e-05
7.19939e-05
7.59197e-05
8.11119e-05
8.73667e-05
9.32562e-05
9.67602e-05
9.65127e-05
9.24915e-05
8.59209e-05
7.89822e-05
7.35305e-05
6.91183e-05
6.40787e-05
5.86003e-05
5.47421e-05
5.35823e-05
5.48663e-05
5.8142e-05
6.27068e-05
6.76085e-05
7.2755e-05
7.84358e-05
8.1731e-05
8.8347e-05
9.40887e-05
9.76207e-05
9.8092e-05
9.60367e-05
9.29464e-05
9.01032e-05
8.77266e-05
8.45784e-05
7.99297e-05
7.51852e-05
7.1333e-05
6.78278e-05
6.47684e-05
6.31348e-05
6.33174e-05
6.48926e-05
6.73863e-05
7.08201e-05
7.57659e-05
8.23328e-05
8.93466e-05
9.48869e-05
9.75154e-05
9.66451e-05
9.23256e-05
8.60618e-05
8.07185e-05
7.70358e-05
7.23636e-05
6.47355e-05
5.66292e-05
5.19108e-05
5.13561e-05
5.38353e-05
5.81082e-05
6.31915e-05
6.88796e-05
7.50485e-05
7.48949e-05
8.07466e-05
8.64781e-05
9.14468e-05
9.41016e-05
9.40072e-05
9.24461e-05
9.13021e-05
9.13814e-05
9.08041e-05
8.69496e-05
8.10271e-05
7.59762e-05
7.15334e-05
6.66003e-05
6.20612e-05
5.93305e-05
5.85092e-05
5.91101e-05
6.0765e-05
6.40344e-05
6.96773e-05
7.72142e-05
8.4951e-05
9.1424e-05
9.56116e-05
9.59696e-05
9.20531e-05
8.71493e-05
8.45646e-05
8.21314e-05
7.49316e-05
6.28888e-05
5.23507e-05
4.77054e-05
4.8119e-05
5.16567e-05
5.67768e-05
6.27192e-05
6.88151e-05
6.41007e-05
6.79803e-05
7.16904e-05
7.66703e-05
8.16012e-05
8.44492e-05
8.51795e-05
8.5615e-05
8.77824e-05
9.09979e-05
9.0892e-05
8.58621e-05
8.00324e-05
7.52351e-05
6.94424e-05
6.23217e-05
5.59684e-05
5.15376e-05
4.8671e-05
4.67298e-05
4.62798e-05
4.89268e-05
5.49784e-05
6.33628e-05
7.31867e-05
8.34391e-05
9.12341e-05
9.28585e-05
8.95682e-05
8.77023e-05
8.85181e-05
8.58925e-05
7.47109e-05
5.89017e-05
4.74088e-05
4.32735e-05
4.44663e-05
4.85696e-05
5.38324e-05
5.92761e-05
5.02861e-05
5.28542e-05
5.27216e-05
5.34987e-05
5.82513e-05
6.40579e-05
6.7805e-05
6.94888e-05
7.22254e-05
7.86244e-05
8.50327e-05
8.53703e-05
8.08715e-05
7.6313e-05
7.11861e-05
6.35903e-05
5.4851e-05
4.70069e-05
4.03581e-05
3.47025e-05
3.14504e-05
3.21715e-05
3.4696e-05
3.73528e-05
4.30963e-05
5.56126e-05
7.18259e-05
8.29899e-05
8.44034e-05
8.28086e-05
8.58455e-05
9.00584e-05
8.65406e-05
7.23928e-05
5.50158e-05
4.34794e-05
3.96576e-05
4.04006e-05
4.2946e-05
4.64575e-05
3.59664e-05
3.94851e-05
3.93587e-05
3.37086e-05
3.0626e-05
3.49219e-05
4.08847e-05
4.31897e-05
4.28387e-05
4.74054e-05
6.01522e-05
7.15884e-05
7.43538e-05
7.20638e-05
6.83135e-05
6.23774e-05
5.43955e-05
4.58808e-05
3.75912e-05
2.99289e-05
2.4674e-05
2.48781e-05
2.82975e-05
2.82951e-05
2.53579e-05
2.6504e-05
3.93824e-05
5.80876e-05
6.76468e-05
6.71664e-05
6.99448e-05
7.97088e-05
8.74093e-05
8.40982e-05
7.01215e-05
5.3255e-05
4.14891e-05
3.65336e-05
3.44265e-05
3.37334e-05
2.69852e-05
2.92443e-05
3.23943e-05
2.98145e-05
1.94421e-05
1.39166e-05
1.6974e-05
2.0773e-05
1.95469e-05
1.70015e-05
2.21363e-05
3.76379e-05
5.40638e-05
6.10037e-05
6.05849e-05
5.63333e-05
5.05122e-05
4.44549e-05
3.86844e-05
3.40275e-05
3.07454e-05
2.66237e-05
2.45047e-05
2.55222e-05
2.24425e-05
1.84545e-05
2.02005e-05
2.99807e-05
4.11439e-05
3.8734e-05
3.41794e-05
4.52158e-05
6.65358e-05
8.02531e-05
8.02552e-05
6.9052e-05
5.2241e-05
3.93411e-05
3.26875e-05
2.81951e-05
2.5683e-05
2.53987e-05
2.56037e-05
2.86344e-05
2.51928e-05
1.29548e-05
1.38113e-05
1.54491e-05
1.58995e-05
1.00735e-05
9.03033e-06
1.45683e-05
2.22148e-05
4.10761e-05
5.09533e-05
5.03589e-05
4.48165e-05
3.96024e-05
3.69289e-05
3.78942e-05
4.22668e-05
4.39394e-05
3.68446e-05
2.91398e-05
2.50678e-05
1.83134e-05
1.5819e-05
1.75967e-05
2.02771e-05
1.68499e-05
1.6501e-05
2.24258e-05
2.18761e-05
5.08463e-05
7.17042e-05
7.6691e-05
6.59813e-05
4.75797e-05
3.50824e-05
2.87551e-05
2.48783e-05
2.67598e-05
2.58207e-05
2.26279e-05
2.58451e-05
2.04336e-05
1.21778e-05
2.16722e-05
2.17258e-05
1.71368e-05
9.24456e-06
1.32353e-05
1.83749e-05
1.59491e-05
3.4446e-05
4.4852e-05
4.21497e-05
3.47422e-05
3.06371e-05
3.2726e-05
4.05151e-05
4.90261e-05
4.87916e-05
3.76239e-05
2.86347e-05
2.13584e-05
1.33714e-05
1.3783e-05
1.42971e-05
1.86718e-05
1.8859e-05
3.10312e-05
3.49839e-05
1.73199e-05
4.18611e-05
6.72807e-05
7.30205e-05
5.79985e-05
3.9204e-05
2.86688e-05
2.1273e-05
2.39004e-05
2.87452e-05
2.51473e-05
1.98737e-05
2.21348e-05
1.59059e-05
1.81018e-05
2.81227e-05
2.37991e-05
1.47695e-05
1.13056e-05
2.10034e-05
2.36695e-05
1.38376e-05
2.81762e-05
3.57386e-05
3.04283e-05
2.26779e-05
2.10178e-05
2.76997e-05
3.98628e-05
4.86467e-05
4.34591e-05
3.11424e-05
2.35603e-05
1.42008e-05
8.40815e-06
1.3887e-05
2.27727e-05
2.7519e-05
2.14337e-05
2.58175e-05
3.31212e-05
1.84561e-05
4.06099e-05
6.81868e-05
6.66906e-05
4.60962e-05
2.85828e-05
2.06121e-05
1.92227e-05
2.46881e-05
2.7241e-05
2.10892e-05
1.80898e-05
2.04127e-05
1.51935e-05
1.84755e-05
2.45075e-05
2.16379e-05
1.67015e-05
1.63555e-05
2.5982e-05
2.42896e-05
1.11697e-05
1.73525e-05
2.15476e-05
1.90968e-05
1.61137e-05
1.90777e-05
2.58077e-05
3.66593e-05
4.07427e-05
3.02609e-05
2.1884e-05
1.65894e-05
1.03644e-05
1.02151e-05
1.99095e-05
2.85076e-05
3.48041e-05
2.93702e-05
2.24289e-05
3.12835e-05
1.68151e-05
4.70744e-05
6.85857e-05
5.53613e-05
3.35184e-05
2.7275e-05
2.13804e-05
2.19972e-05
2.33657e-05
2.12027e-05
1.59002e-05
1.85009e-05
1.9077e-05
1.36523e-05
1.73846e-05
2.3255e-05
2.21019e-05
1.5988e-05
1.68147e-05
2.5509e-05
2.64943e-05
1.94635e-05
1.19543e-05
1.97918e-05
2.29113e-05
1.77606e-05
2.12535e-05
2.07669e-05
2.65684e-05
2.58068e-05
1.84e-05
1.79419e-05
1.61668e-05
1.26997e-05
1.5086e-05
2.12987e-05
2.63751e-05
3.24948e-05
2.75581e-05
2.27194e-05
2.81372e-05
1.70693e-05
5.66415e-05
6.30622e-05
4.40052e-05
4.01838e-05
3.06984e-05
2.73688e-05
2.26531e-05
1.75934e-05
1.36043e-05
1.60403e-05
2.04825e-05
1.81708e-05
1.69725e-05
2.2923e-05
2.51624e-05
1.87013e-05
9.83216e-06
1.79095e-05
2.84541e-05
2.69087e-05
2.0042e-05
2.49315e-05
2.6366e-05
1.81355e-05
1.06798e-05
1.57679e-05
1.1438e-05
1.81062e-05
1.59531e-05
1.71569e-05
2.00942e-05
1.66132e-05
1.25239e-05
1.35851e-05
1.92686e-05
2.01553e-05
2.36337e-05
2.0421e-05
2.37575e-05
1.46825e-05
3.19674e-05
5.9609e-05
5.5542e-05
5.64006e-05
4.59487e-05
3.84356e-05
3.10778e-05
2.25738e-05
1.56519e-05
1.55532e-05
2.09236e-05
2.28379e-05
2.19483e-05
2.34414e-05
2.4425e-05
1.99163e-05
1.38598e-05
1.39385e-05
1.90059e-05
2.17377e-05
2.52357e-05
2.6984e-05
2.13597e-05
1.62094e-05
1.15848e-05
7.36813e-06
9.10221e-06
1.63723e-05
1.7394e-05
1.58055e-05
2.08005e-05
1.89452e-05
1.18397e-05
7.23674e-06
8.91213e-06
1.60414e-05
1.96649e-05
2.07587e-05
1.65916e-05
1.76258e-05
9.1978e-06
4.17396e-05
5.94411e-05
6.19458e-05
6.27209e-05
5.28656e-05
4.06483e-05
2.82865e-05
1.88945e-05
1.43258e-05
1.85017e-05
2.45823e-05
2.68763e-05
2.46987e-05
2.15835e-05
1.80504e-05
1.37085e-05
1.2625e-05
1.82446e-05
2.5769e-05
2.83155e-05
2.2974e-05
1.28549e-05
8.66399e-06
1.26757e-05
1.02089e-05
1.18821e-05
1.80731e-05
2.21004e-05
1.87201e-05
1.75161e-05
1.70396e-05
1.40991e-05
1.22188e-05
1.43289e-05
1.52014e-05
1.69906e-05
2.29016e-05
2.33883e-05
1.87865e-05
1.50502e-05
1.65635e-05
4.32574e-05
3.76794e-05
5.57443e-05
5.82528e-05
4.66835e-05
2.82396e-05
1.3643e-05
7.78528e-06
9.70562e-06
1.77956e-05
2.59448e-05
2.80667e-05
2.40612e-05
2.05282e-05
1.61345e-05
9.11081e-06
1.17118e-05
1.83156e-05
1.96992e-05
1.56606e-05
1.0279e-05
1.33446e-05
1.81754e-05
1.63142e-05
1.30582e-05
1.53741e-05
1.97695e-05
2.02568e-05
1.81565e-05
1.571e-05
1.4519e-05
1.52521e-05
1.71545e-05
1.8208e-05
1.90929e-05
2.36062e-05
2.74723e-05
2.33462e-05
1.85413e-05
2.02881e-05
2.2081e-05
2.27764e-05
2.51523e-05
4.0288e-05
4.65269e-05
3.73485e-05
1.93807e-05
5.98412e-06
1.30012e-05
1.55986e-05
1.34015e-05
1.91075e-05
2.61458e-05
2.75661e-05
2.39654e-05
1.93241e-05
1.87212e-05
1.63376e-05
1.04351e-05
1.01502e-05
1.29891e-05
1.90347e-05
2.75078e-05
2.96046e-05
2.18194e-05
1.31956e-05
1.68246e-05
2.18894e-05
2.35894e-05
2.24495e-05
1.81976e-05
1.46377e-05
1.73055e-05
2.07807e-05
2.36912e-05
2.80536e-05
2.98096e-05
2.54465e-05
1.86857e-05
1.687e-05
2.33473e-05
2.10906e-05
2.09578e-05
1.83553e-05
3.07113e-05
4.01939e-05
3.56239e-05
2.27078e-05
1.00608e-05
7.81027e-06
1.21366e-05
1.43294e-05
1.73017e-05
2.35684e-05
3.25333e-05
3.80322e-05
3.54663e-05
2.48127e-05
1.48369e-05
1.50057e-05
1.6002e-05
1.54427e-05
2.01418e-05
2.91036e-05
3.06697e-05
2.20795e-05
2.00236e-05
2.68986e-05
3.06642e-05
3.01791e-05
2.59364e-05
1.85583e-05
1.27825e-05
1.94388e-05
2.72352e-05
2.91909e-05
2.68221e-05
2.1809e-05
1.55616e-05
1.14074e-05
1.46437e-05
1.36405e-05
1.88713e-05
1.98203e-05
1.38133e-05
1.55238e-05
2.06194e-05
1.86226e-05
1.74146e-05
1.799e-05
1.41714e-05
9.58459e-06
1.61249e-05
2.52731e-05
3.39664e-05
4.0558e-05
3.663e-05
2.11118e-05
1.12539e-05
1.75314e-05
1.84655e-05
1.70493e-05
1.52303e-05
1.18694e-05
1.73742e-05
2.31187e-05
2.4739e-05
2.64655e-05
2.62157e-05
2.49572e-05
2.49494e-05
2.36933e-05
1.80665e-05
1.24956e-05
1.56636e-05
1.84898e-05
1.97206e-05
2.20398e-05
2.13805e-05
1.69032e-05
1.256e-05
1.36078e-05
1.19067e-05
9.6957e-06
1.37905e-05
1.59183e-05
1.20451e-05
5.05502e-06
8.93812e-06
1.47583e-05
1.6184e-05
1.79426e-05
2.22673e-05
2.56533e-05
2.57392e-05
2.56041e-05
2.68475e-05
2.3157e-05
1.48139e-05
1.78767e-05
2.45019e-05
2.62053e-05
2.50146e-05
2.10738e-05
1.7277e-05
1.94535e-05
2.30501e-05
2.29795e-05
1.78922e-05
1.75736e-05
2.49208e-05
2.99839e-05
2.96579e-05
2.42617e-05
1.68355e-05
1.1111e-05
1.2689e-05
1.81667e-05
2.0009e-05
1.70717e-05
1.34605e-05
1.38921e-05
1.35881e-05
1.94362e-05
2.5721e-05
2.81577e-05
2.58337e-05
1.96312e-05
1.10667e-05
5.54286e-06
1.19347e-05
1.61052e-05
1.67984e-05
1.82125e-05
1.99179e-05
1.75858e-05
1.16454e-05
7.86849e-06
5.48194e-06
6.52872e-06
1.78484e-05
2.65078e-05
2.776e-05
2.36414e-05
1.94687e-05
1.84961e-05
1.94513e-05
1.8944e-05
1.63714e-05
1.62024e-05
2.00024e-05
2.46698e-05
2.76521e-05
2.84834e-05
2.74159e-05
2.33735e-05
1.79148e-05
1.40431e-05
1.23931e-05
1.32427e-05
1.4975e-05
1.23617e-05
1.28179e-05
1.21777e-05
1.45312e-05
2.03886e-05
2.43522e-05
2.26167e-05
1.86808e-05
1.94475e-05
2.24286e-05
2.38513e-05
2.391e-05
2.24379e-05
1.93276e-05
1.59132e-05
1.28019e-05
9.32262e-06
6.24434e-06
5.17771e-06
7.90851e-06
1.4737e-05
2.12107e-05
2.18694e-05
1.80893e-05
1.76051e-05
1.82833e-05
1.50728e-05
1.29574e-05
1.3483e-05
1.10512e-05
7.08878e-06
7.9215e-06
1.10524e-05
1.54307e-05
1.75551e-05
1.49329e-05
1.16306e-05
1.02863e-05
9.40857e-06
1.04293e-05
1.4606e-05
1.37309e-05
1.04708e-05
1.17398e-05
1.55852e-05
1.61599e-05
1.43518e-05
1.34217e-05
1.2491e-05
1.00799e-05
8.63574e-06
9.63656e-06
1.23662e-05
1.5473e-05
1.553e-05
1.30244e-05
1.17354e-05
1.20958e-05
1.54776e-05
2.0933e-05
2.32009e-05
2.11001e-05
1.74899e-05
1.3768e-05
1.05363e-05
1.15203e-05
1.64352e-05
2.06003e-05
2.0718e-05
1.5661e-05
8.76762e-06
7.8291e-06
9.09249e-06
8.92702e-06
9.00615e-06
9.46029e-06
1.01714e-05
9.65708e-06
8.8742e-06
1.16349e-05
2.2384e-05
2.49712e-05
2.47215e-05
2.3557e-05
2.255e-05
1.88545e-05
1.22095e-05
9.49433e-06
1.34094e-05
1.40545e-05
1.07571e-05
1.03184e-05
1.50494e-05
1.86612e-05
1.88632e-05
1.68199e-05
1.50352e-05
1.36081e-05
1.5385e-05
2.21364e-05
2.57373e-05
2.24728e-05
1.7428e-05
1.55578e-05
1.5104e-05
1.7807e-05
2.47116e-05
2.8744e-05
2.52946e-05
1.97737e-05
1.75094e-05
1.32632e-05
8.76701e-06
7.79394e-06
6.11142e-06
1.01486e-05
1.67456e-05
1.94888e-05
1.88996e-05
1.91175e-05
6.16153e-05
6.56655e-05
6.89986e-05
7.05647e-05
7.01799e-05
6.84301e-05
6.60648e-05
6.34877e-05
6.11531e-05
5.99284e-05
6.01851e-05
6.13256e-05
6.2747e-05
6.44608e-05
6.68198e-05
6.99301e-05
7.34534e-05
7.66863e-05
7.90095e-05
8.03278e-05
8.12202e-05
8.27015e-05
8.50102e-05
8.72312e-05
8.77123e-05
8.5844e-05
8.21723e-05
7.71543e-05
7.05571e-05
6.22472e-05
5.39861e-05
4.84818e-05
4.58187e-05
4.46579e-05
4.42149e-05
4.48711e-05
4.69465e-05
5.0251e-05
5.4056e-05
5.77819e-05
6.17138e-05
6.7552e-05
7.22956e-05
7.48969e-05
7.525e-05
7.37022e-05
7.0865e-05
6.76481e-05
6.50977e-05
6.38067e-05
6.35268e-05
6.36518e-05
6.40176e-05
6.49959e-05
6.69701e-05
6.98342e-05
7.31397e-05
7.63388e-05
7.89629e-05
8.08609e-05
8.25324e-05
8.48476e-05
8.77549e-05
9.02953e-05
9.11921e-05
8.98708e-05
8.68929e-05
8.31898e-05
7.84718e-05
7.13703e-05
6.2061e-05
5.32894e-05
4.73076e-05
4.42097e-05
4.31633e-05
4.352e-05
4.50941e-05
4.78638e-05
5.15159e-05
5.61118e-05
5.98883e-05
6.68978e-05
7.32569e-05
7.7675e-05
7.96888e-05
7.92784e-05
7.68713e-05
7.3596e-05
7.08411e-05
6.90575e-05
6.77987e-05
6.66463e-05
6.5588e-05
6.49359e-05
6.51832e-05
6.66259e-05
6.90768e-05
7.2015e-05
7.48358e-05
7.72266e-05
7.94845e-05
8.24217e-05
8.60817e-05
8.96455e-05
9.20939e-05
9.24662e-05
9.10218e-05
8.9264e-05
8.7452e-05
8.32182e-05
7.39771e-05
6.10536e-05
4.97674e-05
4.34863e-05
4.10491e-05
4.0609e-05
4.16431e-05
4.41858e-05
4.80579e-05
5.33366e-05
5.55797e-05
6.29248e-05
7.04761e-05
7.68793e-05
8.12598e-05
8.31116e-05
8.23625e-05
7.99287e-05
7.75207e-05
7.5751e-05
7.39256e-05
7.16695e-05
6.90941e-05
6.62196e-05
6.34503e-05
6.18172e-05
6.19299e-05
6.34801e-05
6.56363e-05
6.78893e-05
7.03241e-05
7.37271e-05
7.83563e-05
8.3438e-05
8.82042e-05
9.12185e-05
9.17002e-05
9.15654e-05
9.27172e-05
9.30086e-05
8.73275e-05
7.3004e-05
5.56923e-05
4.41487e-05
3.90529e-05
3.73954e-05
3.78496e-05
4.00782e-05
4.38315e-05
4.9021e-05
4.87954e-05
5.49054e-05
6.20351e-05
6.94499e-05
7.62137e-05
8.12844e-05
8.36724e-05
8.34056e-05
8.23056e-05
8.1697e-05
8.0681e-05
7.83958e-05
7.50913e-05
7.05487e-05
6.45125e-05
5.8346e-05
5.40346e-05
5.20336e-05
5.15249e-05
5.18326e-05
5.30557e-05
5.62403e-05
6.18124e-05
6.86324e-05
7.6061e-05
8.27801e-05
8.59918e-05
8.65536e-05
8.94803e-05
9.50159e-05
9.69265e-05
8.74749e-05
6.71923e-05
4.8644e-05
3.89283e-05
3.49735e-05
3.42887e-05
3.58886e-05
3.91364e-05
4.34557e-05
4.14909e-05
4.50938e-05
4.90664e-05
5.42268e-05
6.11373e-05
6.91146e-05
7.58557e-05
7.92684e-05
8.05401e-05
8.2276e-05
8.40278e-05
8.38188e-05
8.15712e-05
7.72398e-05
6.96822e-05
5.9407e-05
4.96214e-05
4.23815e-05
3.73003e-05
3.38972e-05
3.27696e-05
3.49837e-05
4.01303e-05
4.60859e-05
5.3426e-05
6.37001e-05
7.16574e-05
7.24927e-05
7.41985e-05
8.35596e-05
9.55831e-05
9.81918e-05
8.28122e-05
5.89186e-05
4.25018e-05
3.46589e-05
3.16554e-05
3.20306e-05
3.46383e-05
3.79672e-05
3.60862e-05
3.79458e-05
3.83413e-05
3.82748e-05
4.02451e-05
4.5871e-05
5.43231e-05
6.17682e-05
6.63237e-05
7.07853e-05
7.66651e-05
8.12474e-05
8.28177e-05
8.12985e-05
7.53388e-05
6.39324e-05
5.03834e-05
3.8771e-05
2.96577e-05
2.31348e-05
2.17406e-05
2.54136e-05
3.07118e-05
3.45035e-05
3.39119e-05
3.57108e-05
4.77592e-05
5.15828e-05
4.62499e-05
5.35762e-05
7.55527e-05
9.56184e-05
9.55507e-05
7.42352e-05
5.11927e-05
3.79397e-05
3.14217e-05
2.92014e-05
3.0875e-05
3.37207e-05
3.28581e-05
3.44393e-05
3.44528e-05
3.16479e-05
2.88187e-05
2.99257e-05
3.24331e-05
3.5893e-05
3.98117e-05
4.38973e-05
5.13602e-05
6.12617e-05
6.96911e-05
7.42994e-05
7.3406e-05
6.50276e-05
5.13624e-05
3.863e-05
3.0037e-05
2.42831e-05
1.965e-05
1.92157e-05
2.44021e-05
2.96704e-05
3.10956e-05
2.65403e-05
2.30827e-05
3.32797e-05
2.3926e-05
1.56496e-05
3.09621e-05
6.92912e-05
9.44114e-05
8.86694e-05
6.54243e-05
4.5957e-05
3.5217e-05
2.91105e-05
2.81714e-05
3.06791e-05
3.07534e-05
3.31026e-05
3.47431e-05
3.35233e-05
2.87813e-05
2.50964e-05
2.59095e-05
2.53296e-05
2.29002e-05
2.1158e-05
2.3204e-05
2.94579e-05
3.64489e-05
4.63295e-05
5.51309e-05
5.5938e-05
4.70707e-05
3.53709e-05
2.98844e-05
3.14396e-05
3.28001e-05
2.84092e-05
2.41617e-05
2.69824e-05
2.89318e-05
2.53856e-05
2.25508e-05
1.96593e-05
2.63771e-05
6.80512e-06
2.73704e-05
2.27999e-05
6.80323e-05
9.13119e-05
8.17949e-05
5.99274e-05
4.34522e-05
3.39171e-05
2.81411e-05
2.83112e-05
2.86141e-05
3.19303e-05
3.61623e-05
3.78459e-05
3.44815e-05
2.74556e-05
2.23437e-05
2.22412e-05
2.11828e-05
1.99797e-05
2.20162e-05
2.88503e-05
3.15119e-05
2.26943e-05
2.06719e-05
3.39033e-05
3.77119e-05
3.12477e-05
2.63789e-05
3.1691e-05
4.15346e-05
4.52972e-05
3.68146e-05
2.78427e-05
2.91757e-05
2.72542e-05
2.0001e-05
1.97801e-05
2.08886e-05
2.6796e-05
1.3703e-05
3.83672e-05
2.37334e-05
6.91972e-05
8.92413e-05
7.82379e-05
5.65066e-05
4.20169e-05
3.27428e-05
2.80581e-05
2.60159e-05
2.79177e-05
3.46439e-05
4.04261e-05
4.04928e-05
3.38199e-05
2.27625e-05
1.64483e-05
1.83291e-05
1.90523e-05
1.90046e-05
2.23611e-05
3.06088e-05
3.31965e-05
2.17665e-05
1.18349e-05
2.4149e-05
2.84899e-05
2.65244e-05
2.83946e-05
3.55125e-05
4.3673e-05
4.46941e-05
3.21364e-05
2.32079e-05
2.55714e-05
1.88067e-05
1.75947e-05
1.73037e-05
2.18791e-05
2.63125e-05
2.04934e-05
3.99795e-05
2.54786e-05
7.00864e-05
8.85421e-05
7.36659e-05
5.16421e-05
3.87955e-05
3.02292e-05
2.33753e-05
2.17881e-05
2.85129e-05
3.63443e-05
4.00483e-05
3.83296e-05
3.09518e-05
2.07275e-05
1.73999e-05