/*--------------------------------*- C++ -*----------------------------------*\
| =========                 |                                                 |
| \\      /  F ield         | OpenFOAM: The Open Source CFD Toolbox           |
|  \\    /   O peration     | Version:  2306                                  |
|   \\  /    A nd           | Website:  www.openfoam.com                      |
|    \\/     M anipulation  |                                                 |
\*---------------------------------------------------------------------------*/
FoamFile
{
    version     2.0;
    format      ascii;
    arch        "LSB;label=32;scalar=64";
    class       surfaceScalarField;
    location    "1.5";
    object      phi;
}
// * * * * * * * * * * * * * * * * * * * * * * * * * * * * * * * * * * * * * //

dimensions      [0 3 -1 0 0 0 0];

oriented        oriented;

internalField   nonuniform List<scalar> 
175300
(
6.63458e-06
5.6184e-08
2.09716e-06
6.57706e-06
-4.10972e-07
2.27339e-06
6.50362e-06
-5.68095e-07
2.22727e-06
6.41022e-06
-4.60754e-07
2.07791e-06
6.28147e-06
-2.87564e-07
1.85744e-06
6.07824e-06
-1.66827e-07
1.58523e-06
5.72907e-06
-7.75364e-08
1.34241e-06
5.17499e-06
-2.40173e-08
1.24373e-06
4.50092e-06
-9.56795e-08
1.31845e-06
3.94791e-06
-3.84797e-07
1.46669e-06
3.69038e-06
-7.44875e-07
1.57095e-06
3.68958e-06
-9.21327e-07
1.58569e-06
3.79279e-06
-8.76548e-07
1.45323e-06
3.87752e-06
-6.69991e-07
1.13849e-06
3.92442e-06
-3.66085e-07
7.10031e-07
4.00753e-06
-7.34207e-08
2.84961e-07
4.17186e-06
1.26922e-07
-6.13877e-08
4.38458e-06
2.36524e-07
-3.34136e-07
4.61055e-06
2.56396e-07
-5.61155e-07
4.84768e-06
1.56114e-07
-7.72212e-07
5.12885e-06
-4.36011e-08
-1.01037e-06
5.4832e-06
-2.29978e-07
-1.31324e-06
5.83529e-06
-2.54877e-07
-1.65426e-06
6.04346e-06
-1.67166e-07
-1.89748e-06
6.00146e-06
-8.04632e-08
-1.95828e-06
5.67547e-06
1.94088e-08
-1.93806e-06
5.12904e-06
1.10409e-07
-1.91247e-06
4.58147e-06
-3.99102e-08
-1.82784e-06
4.21881e-06
-3.74009e-07
-1.75855e-06
4.03805e-06
-5.11542e-07
-1.8487e-06
4.00158e-06
-3.7411e-07
-1.99541e-06
4.12122e-06
-1.30096e-07
-1.93826e-06
4.39361e-06
1.88939e-07
-1.57896e-06
4.76516e-06
5.81097e-07
-1.0485e-06
5.16527e-06
9.66272e-07
-5.73942e-07
5.5885e-06
1.12235e-06
-2.42153e-07
6.02773e-06
1.10066e-06
6.37034e-08
6.39747e-06
1.11587e-06
4.00882e-07
6.60209e-06
1.05313e-06
9.33192e-07
6.75207e-07
1.58974e-06
2.26485e-05
-5.25626e-07
6.15039e-06
2.2405e-05
-1.81824e-06
6.37995e-06
2.20412e-05
-2.14333e-06
6.19943e-06
2.16786e-05
-1.73871e-06
5.94313e-06
2.12534e-05
-1.18614e-06
5.55733e-06
2.05553e-05
-7.38943e-07
4.91456e-06
1.93692e-05
-3.47145e-07
4.1956e-06
1.76195e-05
-1.33288e-07
3.81393e-06
1.55841e-05
-4.30212e-07
3.978e-06
1.38584e-05
-1.44399e-06
4.452e-06
1.28812e-05
-2.63662e-06
4.79714e-06
1.259e-05
-3.19689e-06
4.73836e-06
1.26187e-05
-2.97751e-06
4.17049e-06
1.27014e-05
-2.21243e-06
3.17141e-06
1.2824e-05
-1.17803e-06
2.00014e-06
1.31234e-05
-2.42202e-07
8.94537e-07
1.36703e-05
3.40818e-07
-2.3034e-08
1.43992e-05
5.81413e-07
-8.06166e-07
1.52442e-05
5.12371e-07
-1.49727e-06
1.62027e-05
2.54533e-08
-2.16807e-06
1.7326e-05
-7.22001e-07
-2.93268e-06
1.85897e-05
-1.31223e-06
-3.87335e-06
1.97485e-05
-1.3291e-06
-4.86373e-06
2.04333e-05
-9.82752e-07
-5.52164e-06
2.03284e-05
-6.06788e-07
-5.61891e-06
1.93435e-05
-2.40652e-07
-5.37215e-06
1.77405e-05
-6.23882e-08
-5.06608e-06
1.60608e-05
-5.66678e-07
-4.84262e-06
1.46864e-05
-1.42423e-06
-4.93451e-06
1.3735e-05
-1.697e-06
-5.45507e-06
1.33474e-05
-1.30215e-06
-5.92381e-06
1.36281e-05
-5.97579e-07
-5.63871e-06
1.44801e-05
4.55231e-07
-4.45511e-06
1.56725e-05
1.8123e-06
-2.85554e-06
1.70079e-05
3.08937e-06
-1.44946e-06
1.8428e-05
3.59508e-06
-3.45625e-07
1.98831e-05
3.602e-06
5.74793e-07
2.11732e-05
3.42024e-06
1.77953e-06
2.20979e-05
2.83442e-06
3.39907e-06
1.38163e-06
5.08473e-06
4.28884e-05
-2.00348e-06
1.01972e-05
4.23617e-05
-4.14883e-06
1.03711e-05
4.15281e-05
-4.5616e-06
9.88843e-06
4.07877e-05
-3.72762e-06
9.52112e-06
4.00532e-05
-2.6542e-06
9.21368e-06
3.88985e-05
-1.72047e-06
8.49754e-06
3.69631e-05
-8.37676e-07
7.37397e-06
3.41391e-05
-3.34282e-07
6.49999e-06
3.07097e-05
-8.17856e-07
6.48497e-06
2.74082e-05
-2.64643e-06
7.24765e-06
2.50642e-05
-4.98765e-06
8.05251e-06
2.39233e-05
-6.30479e-06
8.12603e-06
2.35296e-05
-6.03407e-06
7.21761e-06
2.34164e-05
-4.56393e-06
5.62074e-06
2.35179e-05
-2.54864e-06
3.81816e-06
2.40047e-05
-7.49548e-07
2.11443e-06
2.49682e-05
3.13366e-07
6.56223e-07
2.63136e-05
6.43609e-07
-6.12893e-07
2.79435e-05
2.99913e-07
-1.76124e-06
2.98584e-05
-9.33521e-07
-2.83776e-06
3.21157e-05
-2.7068e-06
-4.059e-06
3.46031e-05
-4.02881e-06
-5.64722e-06
3.68899e-05
-4.02818e-06
-7.4595e-06
3.83883e-05
-3.1513e-06
-8.83019e-06
3.85572e-05
-2.10007e-06
-9.20572e-06
3.71836e-05
-1.13405e-06
-8.7293e-06
3.46294e-05
-7.39775e-07
-7.91787e-06
3.16738e-05
-1.62247e-06
-7.31624e-06
2.88799e-05
-2.99511e-06
-7.47294e-06
2.65387e-05
-3.34912e-06
-8.52516e-06
2.51196e-05
-2.70918e-06
-9.67538e-06
2.5067e-05
-1.64847e-06
-9.64644e-06
2.63255e-05
1.15622e-07
-7.95721e-06
2.84256e-05
2.66815e-06
-5.34298e-06
3.09332e-05
5.18179e-06
-2.87761e-06
3.36679e-05
6.26662e-06
-8.39548e-07
3.65074e-05
6.37324e-06
9.34799e-07
3.91603e-05
5.88304e-06
3.07933e-06
4.12867e-05
4.42029e-06
5.83213e-06
1.46114e-06
8.57201e-06
6.75059e-05
-4.52668e-06
1.40328e-05
6.6613e-05
-7.14869e-06
1.43153e-05
6.50741e-05
-7.4563e-06
1.32594e-05
6.38133e-05
-6.16661e-06
1.24411e-05
6.28184e-05
-4.50028e-06
1.22874e-05
6.1418e-05
-2.98207e-06
1.19789e-05
5.9078e-05
-1.51004e-06
1.08317e-05
5.56241e-05
-6.15481e-07
9.32945e-06
5.10981e-05
-1.06954e-06
8.63099e-06
4.59454e-05
-3.35212e-06
9.3605e-06
4.13201e-05
-6.78778e-06
1.09018e-05
3.83147e-05
-9.37595e-06
1.17029e-05
3.68279e-05
-9.65508e-06
1.08416e-05
3.61467e-05
-7.72748e-06
8.80906e-06
3.59917e-05
-4.70853e-06
6.51089e-06
3.65071e-05
-1.94832e-06
4.37078e-06
3.77942e-05
-3.10647e-07
2.47408e-06
3.97212e-05
2.70004e-08
9.04259e-07
4.21558e-05
-8.69243e-07
-5.09172e-07
4.513e-05
-3.2749e-06
-1.77914e-06
4.87582e-05
-6.85016e-06
-3.15255e-06
5.28604e-05
-9.57536e-06
-5.2385e-06
5.67846e-05
-9.69435e-06
-8.13296e-06
5.97101e-05
-7.87721e-06
-1.08981e-05
6.08543e-05
-5.42222e-06
-1.23454e-05
5.97545e-05
-3.09918e-06
-1.21388e-05
5.66673e-05
-2.00791e-06
-1.07997e-05
5.25224e-05
-3.13362e-06
-9.3581e-06
4.8098e-05
-4.93701e-06
-9.03421e-06
4.37988e-05
-5.1976e-06
-1.03689e-05
4.03389e-05
-4.24312e-06
-1.25224e-05
3.87823e-05
-3.15128e-06
-1.36593e-05
3.9653e-05
-1.34798e-06
-1.24682e-05
4.24374e-05
1.87862e-06
-9.37844e-06
4.62917e-05
5.3774e-06
-5.91936e-06
5.07356e-05
7.25393e-06
-2.84823e-06
5.547e-05
7.45619e-06
1.99119e-07
6.00755e-05
7.03647e-06
3.27975e-06
6.40347e-05
4.81481e-06
7.27684e-06
3.27673e-07
1.14154e-05
9.58747e-05
-8.68196e-06
1.691e-05
9.46329e-05
-1.06815e-05
1.81479e-05
9.20568e-05
-1.0234e-05
1.66064e-05
9.00669e-05
-8.5846e-06
1.4707e-05
8.89396e-05
-6.47374e-06
1.42533e-05
8.76813e-05
-4.33424e-06
1.47003e-05
8.54751e-05
-2.24743e-06
1.43386e-05
8.21053e-05
-9.64272e-07
1.25512e-05
7.73008e-05
-1.18877e-06
1.06318e-05
7.07181e-05
-3.21787e-06
1.04801e-05
6.32112e-05
-7.01964e-06
1.26024e-05
5.69399e-05
-1.10663e-05
1.49673e-05
5.30961e-05
-1.29072e-05
1.50114e-05
5.11083e-05
-1.13813e-05
1.28093e-05
5.0252e-05
-7.66095e-06
1.00612e-05
5.04356e-05
-3.9778e-06
7.68763e-06
5.1694e-05
-1.72826e-06
5.69488e-06
5.38256e-05
-1.33091e-06
4.07508e-06
5.66431e-05
-2.95732e-06
2.84614e-06
6.02737e-05
-7.25995e-06
2.05383e-06
6.51188e-05
-1.38473e-05
1.27209e-06
7.11598e-05
-1.94363e-05
-6.03112e-07
7.75014e-05
-2.03641e-05
-4.58483e-06
8.29157e-05
-1.72215e-05
-9.70823e-06
8.6252e-05
-1.21884e-05
-1.37692e-05
8.6624e-05
-7.03509e-06
-1.52343e-05
8.38984e-05
-4.07677e-06
-1.40553e-05
7.9044e-05
-5.03579e-06
-1.1548e-05
7.31977e-05
-7.23091e-06
-9.9331e-06
6.69264e-05
-7.14022e-06
-1.07663e-05
6.08524e-05
-5.46142e-06
-1.36341e-05
5.63322e-05
-4.28276e-06
-1.65081e-05
5.49528e-05
-3.20185e-06
-1.72371e-05
5.70689e-05
-6.96519e-07
-1.51951e-05
6.17656e-05
2.47151e-06
-1.16627e-05
6.80864e-05
4.10519e-06
-7.9015e-06
7.52677e-05
4.1645e-06
-3.77762e-06
8.25106e-05
4.18255e-06
9.63314e-07
8.90928e-05
2.29639e-06
6.24902e-06
-3.16767e-06
1.23669e-05
0.000125871
-1.64061e-05
1.67023e-05
0.00012485
-1.55032e-05
2.08315e-05
0.000120798
-1.23609e-05
2.02509e-05
0.000117659
-1.02412e-05
1.71247e-05
0.000116628
-8.42034e-06
1.5257e-05
0.000116161
-5.83663e-06
1.59488e-05
0.000114739
-2.95154e-06
1.71883e-05
0.000112194
-1.31411e-06
1.63325e-05
0.000108316
-1.409e-06
1.32494e-05
0.000101837
-2.61393e-06
1.09832e-05
9.22371e-05
-5.41263e-06
1.25155e-05
8.17819e-05
-1.00128e-05
1.67782e-05
7.36743e-05
-1.40579e-05
1.91263e-05
6.889e-05
-1.44096e-05
1.75183e-05
6.65316e-05
-1.09029e-05
1.42442e-05
6.58531e-05
-6.50785e-06
1.15444e-05
6.65181e-05
-3.61392e-06
9.7063e-06
6.80967e-05
-3.01134e-06
8.49508e-06
7.02063e-05
-5.31596e-06
7.98747e-06
7.30063e-05
-1.2027e-05
8.54751e-06
7.74966e-05
-2.31751e-05
9.70774e-06
8.45461e-05
-3.36819e-05
9.44275e-06
9.37082e-05
-3.76033e-05
5.65145e-06
0.00010346
-3.40318e-05
-1.97915e-06
0.000111481
-2.53759e-05
-1.05979e-05
0.000115584
-1.49658e-05
-1.62745e-05
0.000114854
-7.73965e-06
-1.72026e-05
0.000110248
-7.42964e-06
-1.4424e-05
0.000103603
-1.00079e-05
-1.10859e-05
9.60696e-05
-9.46636e-06
-1.03175e-05
8.80915e-05
-6.45912e-06
-1.28357e-05
8.04593e-05
-4.43904e-06
-1.693e-05
7.50736e-05
-3.73264e-06
-2.01741e-05
7.37784e-05
-2.69412e-06
-2.10471e-05
7.68993e-05
-2.03407e-06
-1.96702e-05
8.3672e-05
-3.29581e-06
-1.68224e-05
9.28093e-05
-5.19714e-06
-1.25193e-05
0.000102797
-5.46147e-06
-6.58032e-06
0.000112724
-6.52153e-06
6.72182e-07
-1.14944e-05
8.89955e-06
0.000152
-3.13691e-05
1.01054e-05
0.000153979
-2.47278e-05
1.94061e-05
0.0001484
-1.41629e-05
2.30378e-05
0.00014294
-9.85002e-06
2.0726e-05
0.000142167
-1.01433e-05
1.6754e-05
0.000143793
-8.40293e-06
1.58854e-05
0.000144135
-4.09817e-06
1.82767e-05
0.000142775
-1.51361e-06
2.00571e-05
0.000140769
-2.06318e-06
1.74683e-05
0.000136724
-2.90774e-06
1.23904e-05
0.000127997
-3.50377e-06
1.11258e-05
0.000114823
-6.39516e-06
1.60467e-05
0.000101153
-1.1432e-05
2.17546e-05
9.11015e-05
-1.46455e-05
2.24395e-05
8.5577e-05
-1.31429e-05
1.90792e-05
8.33363e-05
-8.90767e-06
1.56289e-05
8.30646e-05
-5.4395e-06
1.358e-05
8.37261e-05
-4.33384e-06
1.26454e-05
8.45189e-05
-6.88649e-06
1.27617e-05
8.52552e-05
-1.57711e-05
1.47138e-05
8.72376e-05
-3.19701e-05
1.83665e-05
9.24987e-05
-4.90479e-05
2.10831e-05
0.000101698
-5.75312e-05
1.92892e-05
0.000114498
-5.53696e-05
1.16996e-05
0.000129178
-4.571e-05
-2.10989e-07
0.000141049
-2.9735e-05
-1.19785e-05
0.00014559
-1.51139e-05
-1.78971e-05
0.000142915
-1.09391e-05
-1.71726e-05
0.000136367
-1.32959e-05
-1.31478e-05
0.0001287
-1.23682e-05
-1.02291e-05
0.000120626
-7.64555e-06
-1.09318e-05
0.000111979
-3.97565e-06
-1.47697e-05
0.000103524
-2.31172e-06
-1.95776e-05
9.72981e-05
-1.24171e-06
-2.37385e-05
9.55176e-05
-3.42848e-06
-2.66536e-05
9.93266e-05
-1.05362e-05
-2.75807e-05
0.000107738
-1.7837e-05
-2.51726e-05
0.000118032
-1.98617e-05
-1.94204e-05
0.000129135
-2.05398e-05
-1.13363e-05
-2.68231e-05
-1.23118e-06
0.000169244
-5.1395e-05
-2.05508e-06
0.000177937
-4.18533e-05
1.25256e-05
0.000173729
-1.90872e-05
2.23358e-05
0.000164134
-6.17919e-06
2.42248e-05
0.000161173
-8.90542e-06
1.98974e-05
0.000166102
-1.27017e-05
1.5845e-05
0.000170645
-7.86395e-06
1.69464e-05
0.000170053
-1.34585e-06
2.14725e-05
0.000168214
-2.04571e-06
2.27466e-05
0.000168142
-6.23129e-06
1.70189e-05
0.000165442
-6.32821e-06
1.11132e-05
0.000155104
-4.59061e-06
1.35304e-05
0.000138281
-6.35863e-06
2.16111e-05
0.000121178
-1.02238e-05
2.61573e-05
0.00010942
-1.18279e-05
2.43374e-05
0.000103931
-9.86393e-06
2.03572e-05
0.000102555
-6.9809e-06
1.74982e-05
0.000103021
-5.59229e-06
1.60606e-05
0.000103855
-8.03235e-06
1.57743e-05
0.000104013
-1.78999e-05
1.76061e-05
0.000103581
-3.70987e-05
2.24481e-05
0.000104845
-5.95915e-05
2.85893e-05
0.000110456
-7.36963e-05
3.10241e-05
0.000121645
-7.45332e-05
2.56663e-05
0.000138667
-6.56928e-05
1.33213e-05
0.000157884
-4.82928e-05
-1.96828e-06
0.000170449
-2.7431e-05
-1.35139e-05
0.000170895
-1.58564e-05
-1.70386e-05
0.000163163
-1.4572e-05
-1.48134e-05
0.00015518
-1.40333e-05
-1.09491e-05
0.000150225
-1.03489e-05
-8.83944e-06
0.000145754
-5.41008e-06
-1.0493e-05
0.000139031
-4.37254e-07
-1.51953e-05
0.000130607
3.9242e-06
-2.13449e-05
0.000123302
1.73688e-06
-2.85463e-05
0.000120838
-1.10748e-05
-3.55242e-05
0.000125211
-2.70828e-05
-3.83285e-05
0.000133637
-3.40739e-05
-3.46843e-05
0.000142825
-3.49158e-05
-2.63947e-05
-4.2768e-05
-1.51897e-05
0.00018395
-6.86054e-05
-1.40334e-05
0.000197395
-6.39494e-05
3.4941e-06
0.000199319
-3.22e-05
1.85429e-05
0.000188763
-4.43437e-06
2.5361e-05
0.000179249
-2.3451e-06
2.27611e-05
0.000182081
-1.39037e-05
1.59687e-05
0.000192294
-1.52042e-05
1.32626e-05
0.000196199
-4.01239e-06
1.76952e-05
0.000190876
1.82621e-06
2.35637e-05
0.000187378
-6.77693e-06
2.23654e-05
0.00019174
-1.69924e-05
1.47942e-05
0.000193867
-1.54232e-05
1.256e-05
0.000183191
-7.86908e-06
1.98906e-05
0.000162496
-4.33103e-06
2.75886e-05
0.000142335
-5.10117e-06
2.86591e-05
0.000130071
-6.26907e-06
2.54785e-05
0.000125898
-6.67855e-06
2.2248e-05
0.000126532
-7.20512e-06
2.00536e-05
0.000129018
-1.03746e-05
1.84797e-05
0.000130953
-2.00926e-05
1.84651e-05
0.000130617
-3.89197e-05
2.20492e-05
0.000128765
-6.28428e-05
2.98454e-05
0.000128877
-8.1189e-05
3.75191e-05
0.000134893
-8.65468e-05
3.75598e-05
0.000149369
-8.09129e-05
2.69838e-05
0.000170694
-6.6034e-05
1.02539e-05
0.000188677
-4.22078e-05
-6.0106e-06
0.000190731
-2.06266e-05
-1.41068e-05
0.000177475
-8.96907e-06
-1.44084e-05
0.000162838
-6.60567e-06
-1.04294e-05
0.000158376
-9.47703e-06
-5.65263e-06
0.000163632
-1.10348e-05
-3.74376e-06
0.000169208
-4.81018e-06
-6.5799e-06
0.000167823
7.53002e-06
-1.3512e-05
0.000160446
1.1385e-05
-2.3686e-05
0.000152581
-2.5642e-06
-3.63296e-05
0.000150216
-2.67529e-05
-4.6821e-05
0.000154585
-4.21657e-05
-4.90181e-05
0.000161895
-4.56793e-05
-4.22696e-05
-5.43434e-05
-2.96283e-05
0.000202692
-7.82067e-05
-2.65898e-05
0.000216367
-8.28592e-05
-7.05318e-06
0.000224861
-5.34525e-05
1.19176e-05
0.000219855
-1.26094e-05
2.32776e-05
0.000206627
3.22022e-06
2.40762e-05
0.00019991
-8.19788e-06
1.66898e-05
0.000207602
-2.01182e-05
9.46039e-06
0.000219493
-1.27474e-05
1.0032e-05
0.000220176
2.38539e-06
1.68107e-05
0.000210567
4.67583e-07
2.08051e-05
0.000207771
-2.08302e-05
1.70671e-05
0.000218269
-3.57975e-05
1.31165e-05
0.000224378
-2.72381e-05
1.83448e-05
0.000211609
-8.53021e-06
2.74401e-05
0.000187356
2.34282e-06
3.09433e-05
0.000166314
3.52957e-06
2.92109e-05
0.000155511
-4.91526e-07
2.69448e-05
0.000153909
-6.45874e-06
2.53771e-05
0.000157967
-1.44094e-05
2.30516e-05
0.000163275
-2.55735e-05
2.00424e-05
0.000165225
-4.13998e-05
1.96286e-05
0.000162338
-6.14573e-05
2.60215e-05
0.000157852
-8.01096e-05
3.742e-05
0.00015734
-8.92151e-05
4.3969e-05
0.000165957
-8.80257e-05
3.79127e-05
0.000184217
-7.80722e-05
2.11054e-05
0.000202653
-5.56388e-05
2.44438e-06
0.000206252
-2.4804e-05
-1.09724e-05
0.00019114
3.58086e-07
-1.40875e-05
0.000170978
8.77915e-06
-9.85569e-06
0.000161305
5.9095e-07
-1.7735e-06
0.000167331
-1.23683e-05
5.16252e-06
0.000183055
-1.25492e-05
6.03622e-06
0.000195809
3.76014e-06
2.28353e-08
0.000197812
1.83172e-05
-1.20956e-05
0.000191639
1.09123e-05
-2.89971e-05
0.000184909
-1.60876e-05
-4.67498e-05
0.000183019
-3.96619e-05
-5.77199e-05
0.000186243
-4.87351e-05
-5.68306e-05
-5.89823e-05
-4.5027e-05
0.000226044
-7.86699e-05
-4.15099e-05
0.000237877
-9.37739e-05
-1.86264e-05
0.000249321
-7.57331e-05
2.28674e-06
0.000251713
-3.22449e-05
1.70226e-05
0.00024225
-1.22892e-06
2.22924e-05
0.000228818
-8.91311e-07
1.74597e-05
0.0002248
-1.57323e-05
7.73077e-06
0.000234866
-1.96146e-05
3.03486e-06
0.000247015
-6.3969e-06
7.39497e-06
0.000246404
1.7513e-06
1.45794e-05
0.000236435
-1.5095e-05
1.5757e-05
0.000237007
-4.46138e-05
1.2529e-05
0.000250848
-5.27027e-05
1.55714e-05
0.000255143
-2.94299e-05
2.5227e-05
0.000238711
-5.13999e-07
3.08846e-05
0.000214097
1.36094e-05
3.02098e-05
0.000195297
1.26574e-05
2.91315e-05
0.000187149
2.09911e-06
2.97959e-05
0.000189508
-1.57288e-05
2.8742e-05
0.000198557
-3.52928e-05
2.30846e-05
0.000205797
-4.96804e-05
1.61295e-05
0.000204495
-6.03958e-05
1.71675e-05
0.000196486
-7.29102e-05
3.00069e-05
0.00018895
-8.30873e-05
4.39585e-05
0.000189267
-8.54112e-05
4.46983e-05
0.000200493
-8.00424e-05
2.99334e-05
0.000215893
-6.18844e-05
9.539e-06
0.000221492
-2.75706e-05
-6.97168e-06
0.000210613
7.84993e-06
-1.36524e-05
0.000192064
2.38588e-05
-1.149e-05
0.000178998
1.43689e-05
-1.96107e-06
0.000179154
-6.731e-06
9.46587e-06
0.000192965
-1.58097e-05
1.62249e-05
0.000212692
-2.90553e-06
1.46552e-05
0.000226909
1.74565e-05
4.35742e-06
0.000230259
2.12661e-05
-1.45385e-05
0.000226416
-6.67783e-07
-3.75144e-05
0.000220992
-2.73796e-05
-5.73598e-05
0.000217462
-4.18664e-05
-6.60765e-05
-5.51853e-05
-6.01315e-05
0.000255169
-7.20033e-05
-5.75055e-05
0.000265131
-9.51567e-05
-3.31279e-05
0.00027557
-9.04921e-05
-1.00804e-05
0.000280593
-5.61443e-05
7.48611e-06
0.00027661
-1.72834e-05
1.66787e-05
0.000264602
-1.51728e-07
1.64703e-05
0.000252624
-5.90216e-06
7.67735e-06
0.000252259
-1.67687e-05
-8.09914e-07
0.000265266
-1.63542e-05
6.92084e-07
0.000277253
-9.55177e-06
9.85418e-06
0.000274639
-1.61437e-05
1.52604e-05
0.000266127
-4.2609e-05
1.22899e-05
0.000270765
-6.47703e-05
1.13748e-05
0.000283596
-5.35572e-05
1.96581e-05
0.000283065
-1.73098e-05
2.77375e-05
0.000265464
1.41048e-05
2.84234e-05
0.000243728
2.55669e-05
2.79739e-05
0.000228171
1.87673e-05
3.03302e-05
0.000224037
-5.89603e-06
3.00087e-05
0.000233365
-4.04033e-05
2.17279e-05
0.00024833
-6.23259e-05
8.35752e-06
0.000253998
-6.40009e-05
2.35685e-06
0.000245605
-6.3275e-05
1.42361e-05
0.0002312
-6.94871e-05
3.55585e-05
0.000221311
-7.35679e-05
4.67739e-05
0.000222354
-7.00997e-05
3.74283e-05
0.000231959
-5.6433e-05
1.68418e-05
0.000239043
-2.56732e-05
-1.60915e-06
0.000234816
1.25875e-05
-1.22642e-05
0.00022252
3.41549e-05
-1.51074e-05
0.00021103
2.6195e-05
-8.58791e-06
0.000206903
2.90102e-06
3.67701e-06
0.000213188
-1.1848e-05
1.57734e-05
0.000228824
-5.17258e-06
2.10413e-05
0.000247954
1.20844e-05
1.75846e-05
0.000262844
1.99548e-05
3.25717e-06
0.000268828
8.59633e-06
-2.18173e-05
0.000265731
-1.17665e-05
-4.85105e-05
0.000257528
-2.68528e-05
-6.72763e-05
-4.40761e-05
-7.10682e-05
0.000292768
-6.23461e-05
-6.98633e-05
0.000300623
-9.00167e-05
-4.78508e-05
0.00030755
-9.43253e-05
-2.32753e-05
0.000308755
-7.21611e-05
-5.19371e-06
0.000305332
-3.68472e-05
7.7468e-06
0.00029817
-7.89802e-06
1.26851e-05
0.000287976
1.40744e-06
7.74933e-06
0.000281849
-6.79407e-06
-1.65228e-06
0.000288368
-1.89718e-05
-2.94282e-06
0.000302739
-2.32631e-05
6.49589e-06
0.000308681
-2.50609e-05
1.5247e-05
0.000301432
-3.96037e-05
1.28445e-05
0.000296071
-6.26701e-05
6.65012e-06
0.000302919
-6.56171e-05
1.03803e-05
0.000309543
-3.65501e-05
2.06902e-05
0.000302023
2.75909e-06
2.67432e-05
0.000284147
2.76355e-05
2.86832e-05
0.000267623
3.16038e-05
2.94092e-05
0.000259089
1.23223e-05
2.34037e-05
0.000263671
-2.91236e-05
8.23057e-06
0.000282915
-6.80159e-05
-7.48622e-06
0.000301352
-7.45902e-05
-1.51221e-05
0.000300473
-5.93733e-05
-5.4519e-06
0.000282258
-5.29945e-05
2.16188e-05
0.000261959
-5.54909e-05
4.36212e-05
0.000251847
-5.17278e-05
4.33918e-05
0.000254046
-3.88707e-05
2.45451e-05
0.000260619
-1.4012e-05
4.38644e-06
0.000262073
1.84974e-05
-9.48906e-06
0.00025699
3.9028e-05
-1.80517e-05
0.000250296
3.24423e-05
-1.87376e-05
0.000246502
1.01843e-05
-9.24568e-06
0.000247637
-4.45327e-06
4.47377e-06
0.000254806
-1.07269e-06
1.52769e-05
0.0002692
8.58043e-06
1.89819e-05
0.000289483
8.59261e-06
1.3608e-05
0.000307112
1.66783e-06
-6.30184e-06
0.000311393
-3.63863e-06
-3.58451e-05
0.000302975
-9.66878e-06
-6.28305e-05
-2.90637e-05
-7.60821e-05
0.000339434
-5.00156e-05
-7.76552e-05
0.000344816
-7.82608e-05
-6.03445e-05
0.00034695
-8.55194e-05
-3.77147e-05
0.000340965
-7.46527e-05
-1.91039e-05
0.000332861
-5.00303e-05
-3.90942e-06
0.000327357
-1.93037e-05
7.96237e-06
0.000322619
3.11979e-06
8.66466e-06
0.000318699
4.40119e-06
5.52675e-08
0.000321799
-1.30503e-05
-4.46055e-06
0.000333548
-3.02096e-05
3.66036e-06
0.000343042
-3.41042e-05
1.51051e-05
0.000339541
-3.64086e-05
1.47046e-05
0.00032763
-4.98437e-05
4.09812e-06
0.000319629
-5.93456e-05
1.26301e-06
0.000316336
-4.38041e-05
1.20767e-05
0.000310311
-1.05551e-05
2.56912e-05
0.000301997
1.69819e-05
3.11931e-05
0.000297395
3.00902e-05
2.47512e-05
0.000296025
2.42919e-05
7.31971e-06
0.000296586
-8.921e-06
-1.24164e-05
0.000309527
-5.97043e-05
-2.49049e-05
0.000335525
-8.76194e-05
-2.55286e-05
0.000349766
-7.21999e-05
-1.31494e-05
0.000336206
-4.7255e-05
1.33393e-05
0.000308005
-3.78924e-05
3.98609e-05
0.000286974
-3.11317e-05
4.84137e-05
0.000282753
-1.73122e-05
3.40085e-05
0.000289926
3.23541e-06
1.13761e-05
0.000297432
2.55011e-05
-6.48435e-06
0.000299312
3.78808e-05
-1.91373e-05
0.000297804
3.00484e-05
-2.67188e-05
0.000296923
1.02894e-05
-2.4675e-05
0.000297214
-1.16854e-06
-1.37466e-05
0.00029888
3.50843e-06
-7.72005e-07
0.000305166
8.19953e-06
8.46755e-06
0.000320751
-2.57715e-06
1.09119e-05
0.000341935
-1.33752e-05
9.0506e-08
0.000354397
-6.73247e-06
-2.56744e-05
0.000350989
1.6264e-06
-5.57833e-05
-1.42242e-05
-7.64325e-05
0.000392678
-3.50208e-05
-7.95101e-05
0.000396255
-5.9996e-05
-6.92757e-05
0.000396119
-6.7644e-05
-5.09328e-05
0.000384938
-6.55755e-05
-3.35286e-05
0.000369687
-5.36497e-05
-1.62917e-05
0.000359956
-2.72941e-05
6.20934e-07
0.000356468
2.77033e-06
8.14133e-06
0.00035643
1.43486e-05
3.4546e-06
0.000360571
-1.95288e-06
-1.73574e-06
0.000370324
-2.77575e-05
3.50515e-06
0.000379773
-3.78309e-05
1.57789e-05
0.000378043
-3.36163e-05
1.93145e-05
0.000361888
-3.39047e-05
7.9124e-06
0.000339996
-3.8958e-05
-3.7461e-06
0.000322986
-3.21618e-05
-1.12925e-06
0.000315361
-1.15437e-05
9.55507e-06
0.000317977
7.70192e-06
1.36129e-05
0.000328194
1.99899e-05
3.89732e-06
0.000337609
2.31827e-05
-1.47875e-05
0.000340949
5.72973e-06
-3.29934e-05
0.000346808
-4.14441e-05
-3.82116e-05
0.000367226
-8.94295e-05
-2.78886e-05
0.000388498
-9.21519e-05
-8.65425e-06
0.000384096
-5.83399e-05
1.68582e-05
0.000355085
-2.8955e-05
4.10464e-05
0.000326583
-1.3155e-05
5.22701e-05
0.000316447
9.36257e-07
4.24515e-05
0.000322221
1.7172e-05
1.9896e-05
0.000331257
3.13908e-05
-1.27454e-06
0.000334931
3.63333e-05
-1.56268e-05
0.000335213
2.57432e-05
-2.52285e-05
0.000338335
5.45687e-06
-2.9773e-05
0.000344437
-5.46446e-06
-2.66692e-05
0.000349673
1.95638e-07
-1.55391e-05
0.000352758
6.34914e-06
-1.37852e-06
0.000358603
-4.14386e-06
6.00564e-06
0.000372119
-1.76282e-05
-8.67233e-07
0.00038849
-1.12281e-05
-2.18989e-05
0.000396624
3.25174e-06
-4.93637e-05
-4.65673e-06
-7.19255e-05
0.000448358
-2.04653e-05
-7.52045e-05
0.000452092
-3.82143e-05
-7.41692e-05
0.000453796
-4.64813e-05
-6.28753e-05
0.000442381
-5.06906e-05
-4.76138e-05
0.000420243
-4.79052e-05
-3.03085e-05
0.000401901
-2.78566e-05
-1.11343e-05
0.00039487
3.08291e-06
4.14663e-06
0.000396343
2.11145e-05
8.70906e-06
0.000401887
9.97078e-06
6.46913e-06
0.000409434
-1.74772e-05
7.04999e-06
0.000416402
-3.38691e-05
1.5123e-05
0.00041601
-3.18173e-05
2.26079e-05
0.000402835
-2.54612e-05
1.74947e-05
0.000380616
-2.1744e-05
1.34945e-06
0.000360862
-1.42221e-05
-1.1543e-05
0.000353033
-2.51834e-06
-1.37032e-05
0.000358404
4.73541e-06
-1.01681e-05
0.00037171
7.58668e-06
-1.01024e-05
0.000385036
1.19194e-05
-2.02471e-05
0.000393966
9.08982e-06
-3.56978e-05
0.000400843
-2.07992e-05
-4.21501e-05
0.000413058
-7.1128e-05
-3.09647e-05
0.000428185
-9.60675e-05
-7.07319e-06
0.000427071
-7.0667e-05
1.85196e-05
0.000402138
-2.70318e-05
3.93754e-05
0.000371781
4.08102e-06
5.21412e-05
0.000355506
2.08773e-05
5.0522e-05
0.000353461
3.02762e-05
3.34366e-05
0.000354936
3.53204e-05
1.22931e-05
0.000354354
3.40527e-05
-2.00532e-06
0.000355173
2.00397e-05
-8.5434e-06
0.000362717
-3.26256e-06
-1.51558e-05
0.000376087
-1.78286e-05
-2.19468e-05
0.000387564
-1.19714e-05
-1.84193e-05
0.00039145
1.70056e-06
-1.89405e-06
0.000391166
3.00843e-06
1.05738e-05
0.000395779
-5.719e-06
2.915e-06
0.000411473
-5.84165e-06
-2.02786e-05
0.000432128
1.6904e-06
-4.5079e-05
-1.91202e-06
-6.43313e-05
0.000501255
-1.11851e-05
-6.54216e-05
0.000511281
-2.11238e-05
-6.97675e-05
0.000517131
-2.6752e-05
-6.78341e-05
0.000507533
-3.29074e-05
-5.92612e-05
0.000480743
-3.39027e-05
-4.56182e-05
0.000452983
-1.85059e-05
-2.70975e-05
0.000438932
8.54189e-06
-7.36463e-06
0.00043866
2.49655e-05
7.0121e-06
0.000444793
1.60035e-05
1.26654e-05
0.000450752
-7.96759e-06
1.45531e-05
0.000453478
-2.42334e-05
1.86568e-05
0.000450369
-2.47751e-05
2.35819e-05
0.000439324
-1.89779e-05
2.10201e-05
0.000424096
-1.28335e-05
6.92177e-06
0.000413274
-4.68176e-06
-1.11985e-05
0.000411831
1.85438e-06
-2.12292e-05
0.000417401
-2.02023e-07
-1.73762e-05
0.000425532
-5.96781e-06
-7.86698e-06
0.000433725
-2.92681e-06
-8.01127e-06
0.000441039
5.72887e-06
-1.98748e-05
0.000448156
-3.96393e-06
-2.92099e-05
0.000457445
-4.50356e-05
-2.54977e-05
0.000469175
-8.34135e-05
-8.39591e-06
0.000472219
-7.40958e-05
1.49266e-05
0.000455753
-2.63623e-05
3.66007e-05
0.000428616
1.93152e-05
4.93655e-05
0.000406251
4.28783e-05
4.99218e-05
0.000392476
4.57967e-05
4.05073e-05
0.000384072
3.81778e-05
2.81329e-05
0.000381121
2.88451e-05
1.668e-05
0.000386019
1.62967e-05
6.89975e-06
0.000398515
-3.96541e-06
-1.8097e-06
0.000413927
-2.23932e-05
-8.70661e-06
0.000425506
-2.22168e-05
-9.47712e-06
0.000429773
-3.0204e-06
-3.25887e-07
0.000428734
1.40839e-05
1.24367e-05
0.000429501
1.63031e-05
1.11593e-05
0.000440923
1.28947e-05
-1.09932e-05
0.000463847
9.69291e-06
-3.78436e-05
1.44643e-06
-5.59135e-05
0.000549658
-1.04576e-05
-5.40793e-05
0.000566692
-1.47466e-05
-6.17945e-05
0.000577657
-1.29805e-05
-6.54829e-05
0.000571956
-1.37601e-05
-6.38544e-05
0.000546547
-1.43665e-05
-5.64298e-05
0.000515799
-4.05436e-06
-4.21163e-05
0.000495334
1.64489e-05
-2.16254e-05
0.000487544
2.88057e-05
-9.32492e-07
0.000487065
1.96927e-05
1.28078e-05
0.000488556
-8.45631e-07
1.9108e-05
0.000488705
-1.50177e-05
2.40443e-05
0.000485716
-1.6727e-05
2.76941e-05
0.000479912
-1.26621e-05
2.17459e-05
0.000475429
-7.17194e-06
3.43305e-06
0.000476745
-6.49448e-07
-1.58353e-05
0.000482177
9.25956e-07
-2.11732e-05
0.000484308
-7.57492e-06
-9.86376e-06
0.000479969
-1.67742e-05
6.55935e-06
0.000474878
-1.16652e-05
1.20805e-05
0.000476962
5.84794e-06
4.04248e-06
0.000487336
9.95816e-06
-4.65597e-06
0.000501048
-1.92261e-05
-4.96639e-06
0.000512162
-6.19594e-05
5.53498e-06
0.000513952
-6.80086e-05
2.06009e-05
0.000499622
-2.37566e-05
3.44824e-05
0.000474239
3.19021e-05
4.42888e-05
0.000449493
6.22146e-05
4.60115e-05
0.000431608
6.21193e-05
3.88635e-05
0.000421208
4.70751e-05
3.05931e-05
0.000419183
3.30623e-05
2.71133e-05
0.000426237
2.26524e-05
2.46108e-05
0.000440165
9.21662e-06
1.63355e-05
0.000455788
-6.13869e-06
4.75503e-06
0.000466951
-1.04763e-05
4.94508e-07
0.000471659
3.49026e-06
8.68229e-06
0.000472996
2.25797e-05
2.15004e-05
0.000476294
3.15295e-05
2.27167e-05
0.000486369
2.92172e-05
6.08497e-06
0.000505681
1.91623e-05
-2.0592e-05
3.21916e-06
-4.14662e-05
0.000599072
-2.15754e-05
-4.44096e-05
0.000620707
-2.75502e-05
-5.00768e-05
0.000632677
-1.57653e-05
-5.37464e-05
0.000629747
-8.33092e-07
-6.02724e-05
0.000614091
5.97026e-06
-6.45686e-05
0.000595019
1.06561e-05
-5.91053e-05
0.000579048
2.18839e-05
-4.04348e-05
0.000565002
3.12006e-05
-1.47502e-05
0.000550347
2.59117e-05
5.77975e-06
0.000536928
8.49538e-06
1.73184e-05
0.000528635
-8.09561e-06
2.51375e-05
0.000528185
-1.83898e-05
3.2927e-05
0.000536176
-2.51504e-05
3.4238e-05
0.000551327
-2.8697e-05
2.29563e-05
0.000567793
-2.57999e-05
6.44072e-06
0.000575799
-1.86199e-05
-9.24364e-07
0.000567569
-1.52498e-05
9.03136e-06
0.00054783
-1.33268e-05
3.06656e-05
0.000531142
-2.27925e-06
4.66211e-05
0.000529082
1.80885e-05
3.89997e-05
0.000540031
2.93005e-05
1.07522e-05
0.000554151
1.1471e-05
-1.18446e-05
0.000563656
-2.77033e-05
-8.59936e-06
0.000563373
-4.96955e-05
1.56425e-05
0.00054853
-2.4648e-05
3.77408e-05
0.000523045
2.90132e-05
4.56165e-05
0.000498804
7.02517e-05
4.28561e-05
0.000483894
8.13147e-05
3.46953e-05
0.00047838
7.00334e-05
2.66294e-05
0.000479329
5.16126e-05
2.16981e-05
0.000484611
3.5065e-05
1.83909e-05
0.00049373
2.10364e-05
1.40799e-05
0.000505888
1.00018e-05
8.65111e-06
0.000518506
7.10919e-06
5.31811e-06
0.000528173
1.50487e-05
1.09667e-05
0.000532978
2.67871e-05
2.62283e-05
0.000535088
3.29741e-05
3.85631e-05
0.00053994
3.08861e-05
3.25117e-05
0.000552852
1.96066e-05
5.75699e-06
-5.50912e-07
-2.60202e-05
0.000652964
-3.11579e-05
-3.64795e-05
0.000673967
-3.40446e-05
-5.18301e-05
0.000685949
-1.61312e-05
-5.36995e-05
0.000683572
9.11447e-06
-5.2526e-05
0.000668161
2.47296e-05
-5.50748e-05
0.000650304
2.82211e-05
-5.71498e-05
0.000640257
2.84721e-05
-5.05014e-05
0.000637652
2.855e-05
-3.4918e-05
0.000633721
2.37448e-05
-1.72576e-05
0.000622152
1.237e-05
-2.77753e-06
0.000605282
-1.84283e-06
1.00883e-05
0.000592004
-1.64849e-05
2.41072e-05
0.000591245
-3.39274e-05
3.66395e-05
0.000606872
-5.21164e-05
3.98554e-05
0.000632538
-6.17928e-05
3.17754e-05
0.000651122
-5.54192e-05
2.12979e-05
0.000647375
-3.72866e-05
2.10325e-05
0.000624083
-1.49016e-05
3.50493e-05
0.000598615
9.56239e-06
5.04387e-05
0.000585598
3.03712e-05
4.50864e-05
0.00058623
3.6522e-05
1.33081e-05
0.000594406
1.94495e-05
-2.32843e-05
0.000605463
-1.33108e-05
-3.5918e-05
0.000612305
-3.76721e-05
-1.33779e-05
0.000607839
-2.84826e-05
2.10766e-05
0.000593807
1.27777e-05
4.23586e-05
0.000581544
5.76299e-05
4.31593e-05
0.000577536
8.21814e-05
2.90152e-05
0.000578175
8.24455e-05
8.90628e-06
0.000577671
6.69513e-05
-7.46134e-06
0.000574982
4.5e-05
-1.11969e-05
0.000573229
2.45812e-05
-2.93785e-06
0.000574712
1.34832e-05
8.95673e-06
0.000577743
1.44948e-05
1.92983e-05
0.00057996
2.22427e-05
2.82206e-05
0.000580906