/*--------------------------------*- C++ -*----------------------------------*\
| =========                 |                                                 |
| \\      /  F ield         | OpenFOAM: The Open Source CFD Toolbox           |
|  \\    /   O peration     | Version:  2306                                  |
|   \\  /    A nd           | Website:  www.openfoam.com                      |
|    \\/     M anipulation  |                                                 |
\*---------------------------------------------------------------------------*/
FoamFile
{
    version     2.0;
    format      ascii;
    arch        "LSB;label=32;scalar=64";
    class       surfaceScalarField;
    location    "1.5";
    object      phi_0;
}
// * * * * * * * * * * * * * * * * * * * * * * * * * * * * * * * * * * * * * //

dimensions      [0 3 -1 0 0 0 0];

oriented        oriented;

internalField   nonuniform List<scalar> 
175300
(
6.64877e-06
-2.04279e-08
2.12681e-06
6.59579e-06
-4.62086e-07
2.2722e-06
6.52335e-06
-5.82848e-07
2.21453e-06
6.42784e-06
-4.56816e-07
2.06743e-06
6.2941e-06
-2.86005e-07
1.85025e-06
6.0778e-06
-1.67259e-07
1.57997e-06
5.70365e-06
-7.31323e-08
1.34292e-06
5.1229e-06
-2.10298e-08
1.25443e-06
4.44316e-06
-1.13287e-07
1.3364e-06
3.91321e-06
-4.27826e-07
1.48467e-06
3.68706e-06
-7.86075e-07
1.58534e-06
3.70398e-06
-9.34905e-07
1.59034e-06
3.80774e-06
-8.63073e-07
1.4384e-06
3.88515e-06
-6.39236e-07
1.10479e-06
3.93267e-06
-3.34092e-07
6.70485e-07
4.02353e-06
-4.91926e-08
2.50578e-07
4.1934e-06
1.43574e-07
-8.76407e-08
4.40706e-06
2.43345e-07
-3.55622e-07
4.63473e-06
2.50913e-07
-5.81572e-07
4.87611e-06
1.37666e-07
-7.97513e-07
5.16723e-06
-6.32617e-08
-1.04636e-06
5.52914e-06
-2.31341e-07
-1.36153e-06
5.87486e-06
-2.34644e-07
-1.70064e-06
6.06369e-06
-1.47286e-07
-1.92229e-06
5.99294e-06
-6.52232e-08
-1.96346e-06
5.63619e-06
3.33758e-08
-1.93554e-06
5.0763e-06
9.76891e-08
-1.89941e-06
4.54275e-06
-8.77743e-08
-1.81118e-06
4.20068e-06
-4.14969e-07
-1.7585e-06
4.03328e-06
-5.14139e-07
-1.86876e-06
4.01016e-06
-3.55382e-07
-2.00822e-06
4.1474e-06
-1.04384e-07
-1.92214e-06
4.43534e-06
2.2866e-07
-1.53637e-06
4.81592e-06
6.39251e-07
-1.00003e-06
5.21997e-06
1.00495e-06
-5.38298e-07
5.64351e-06
1.14365e-06
-2.12473e-07
6.08036e-06
1.11674e-06
9.32073e-08
6.43155e-06
1.12879e-06
4.52281e-07
6.62084e-06
1.02178e-06
1.0062e-06
6.0179e-07
1.65954e-06
2.26992e-05
-7.61352e-07
6.19681e-06
2.24557e-05
-1.96764e-06
6.3571e-06
2.20993e-05
-2.18856e-06
6.17103e-06
2.17397e-05
-1.7344e-06
5.93542e-06
2.12986e-05
-1.18624e-06
5.55518e-06
2.05536e-05
-7.34877e-07
4.90267e-06
1.9292e-05
-3.27116e-07
4.18872e-06
1.74707e-05
-1.27648e-07
3.83877e-06
1.54185e-05
-4.97333e-07
4.03527e-06
1.37476e-05
-1.58992e-06
4.51409e-06
1.2849e-05
-2.76785e-06
4.83425e-06
1.26044e-05
-3.22937e-06
4.73055e-06
1.26407e-05
-2.91934e-06
4.10999e-06
1.27194e-05
-2.10751e-06
3.07492e-06
1.28547e-05
-1.07614e-06
1.89876e-06
1.31776e-05
-1.69066e-07
8.07303e-07
1.37423e-05
3.88139e-07
-9.64415e-08
1.44824e-05
5.88434e-07
-8.71415e-07
1.53413e-05
4.79174e-07
-1.56353e-06
1.63189e-05
-4.25314e-08
-2.25029e-06
1.74664e-05
-7.80929e-07
-3.04583e-06
1.87406e-05
-1.3035e-06
-4.01678e-06
1.98754e-05
-1.2524e-06
-4.99737e-06
2.05009e-05
-9.05235e-07
-5.59405e-06
2.03096e-05
-5.47759e-07
-5.62691e-06
1.92399e-05
-2.05663e-07
-5.34313e-06
1.75979e-05
-1.16603e-07
-5.0215e-06
1.59345e-05
-7.0939e-07
-4.82068e-06
1.45941e-05
-1.53152e-06
-4.97162e-06
1.36856e-05
-1.70605e-06
-5.52688e-06
1.33605e-05
-1.26105e-06
-5.9531e-06
1.3711e-05
-5.27205e-07
-5.57715e-06
1.46155e-05
5.85166e-07
-4.3254e-06
1.58369e-05
1.98783e-06
-2.71663e-06
1.71874e-05
3.22263e-06
-1.33781e-06
1.86111e-05
3.65396e-06
-2.24224e-07
2.00569e-05
3.65047e-06
6.91358e-07
2.13084e-05
3.43431e-06
1.94312e-06
2.21945e-05
2.70363e-06
3.59716e-06
1.13956e-06
5.23821e-06
4.29792e-05
-2.42291e-06
1.0249e-05
4.2434e-05
-4.41084e-06
1.02972e-05
4.16217e-05
-4.64836e-06
9.8143e-06
4.09034e-05
-3.73018e-06
9.5079e-06
4.01506e-05
-2.65931e-06
9.22709e-06
3.89216e-05
-1.70587e-06
8.48574e-06
3.68706e-05
-7.92148e-07
7.34523e-06
3.39297e-05
-3.19419e-07
6.51077e-06
3.04398e-05
-9.33011e-07
6.56764e-06
2.71788e-05
-2.91507e-06
7.36968e-06
2.49463e-05
-5.25199e-06
8.13676e-06
2.38979e-05
-6.38495e-06
8.11609e-06
2.3538e-05
-5.92485e-06
7.11551e-06
2.34352e-05
-4.3601e-06
5.46949e-06
2.35667e-05
-2.35457e-06
3.6649e-06
2.40973e-05
-6.14847e-07
1.98111e-06
2.50972e-05
3.8259e-07
5.52067e-07
2.64714e-05
6.40847e-07
-7.18019e-07
2.81345e-05
2.11368e-07
-1.86499e-06
3.009e-05
-1.09447e-06
-2.96436e-06
3.23892e-05
-2.83828e-06
-4.23998e-06
3.48907e-05
-4.00834e-06
-5.89065e-06
3.71379e-05
-3.85675e-06
-7.70517e-06
3.85419e-05
-2.96396e-06
-8.98377e-06
3.85719e-05
-1.95122e-06
-9.23432e-06
3.7056e-05
-1.05567e-06
-8.66315e-06
3.44189e-05
-8.44179e-07
-7.81442e-06
3.14508e-05
-1.8755e-06
-7.26662e-06
2.86724e-05
-3.17132e-06
-7.53971e-06
2.63811e-05
-3.36359e-06
-8.66722e-06
2.50756e-05
-2.65763e-06
-9.76422e-06
2.51712e-05
-1.55517e-06
-9.58169e-06
2.65491e-05
3.32418e-07
-7.75924e-06
2.87192e-05
2.97844e-06
-5.11081e-06
3.12658e-05
5.44053e-06
-2.67358e-06
3.40178e-05
6.37834e-06
-6.19162e-07
3.68512e-05
6.47014e-06
1.15152e-06
3.94556e-05
5.88957e-06
3.36535e-06
4.15181e-05
4.14495e-06
6.15923e-06
1.00578e-06
8.80934e-06
6.76372e-05
-5.0852e-06
1.41268e-05
6.66772e-05
-7.48603e-06
1.41708e-05
6.51794e-05
-7.5837e-06
1.30745e-05
6.39842e-05
-6.18495e-06
1.23719e-05
6.29908e-05
-4.51149e-06
1.23149e-05
6.15069e-05
-2.95152e-06
1.19907e-05
5.90333e-05
-1.43301e-06
1.07784e-05
5.5429e-05
-5.82351e-07
9.28057e-06
5.07649e-05
-1.19833e-06
8.68785e-06
4.55581e-05
-3.70649e-06
9.54203e-06
4.10223e-05
-7.20778e-06
1.10916e-05
3.81702e-05
-9.57381e-06
1.17476e-05
3.67817e-05
-9.54246e-06
1.07231e-05
3.61451e-05
-7.43131e-06
8.61427e-06
3.60435e-05
-4.414e-06
6.31846e-06
3.66264e-05
-1.74667e-06
4.20665e-06
3.79722e-05
-2.18366e-07
2.34119e-06
3.9949e-05
-1.16099e-08
7.93812e-07
4.24414e-05
-1.05872e-06
-6.29676e-07
4.5489e-05
-3.59882e-06
-1.91064e-06
4.9193e-05
-7.12694e-06
-3.36621e-06
5.33275e-05
-9.57225e-06
-5.57869e-06
5.72067e-05
-9.39115e-06
-8.53715e-06
6.00156e-05
-7.50144e-06
-1.1215e-05
6.09802e-05
-5.0944e-06
-1.24734e-05
5.96765e-05
-2.90709e-06
-1.20722e-05
5.64385e-05
-2.13685e-06
-1.06136e-05
5.22219e-05
-3.4942e-06
-9.21935e-06
4.77598e-05
-5.16803e-06
-9.07791e-06
4.34657e-05
-5.19114e-06
-1.05764e-05
4.01226e-05
-4.17832e-06
-1.27325e-05
3.87979e-05
-3.08761e-06
-1.36945e-05
3.99061e-05
-1.12518e-06
-1.22829e-05
4.28519e-05
2.26617e-06
-9.08415e-06
4.6803e-05
5.71644e-06
-5.62671e-06
5.13007e-05
7.4268e-06
-2.54019e-06
5.6048e-05
7.65772e-06
4.97057e-07
6.06062e-05
7.07086e-06
3.6974e-06
6.44756e-05
4.39647e-06
7.76475e-06
-3.29085e-07
1.17891e-05
9.60549e-05
-9.24752e-06
1.71662e-05
9.46264e-05
-1.09563e-05
1.79938e-05
9.21025e-05
-1.03558e-05
1.62586e-05
9.02618e-05
-8.63613e-06
1.44846e-05
8.91976e-05
-6.50038e-06
1.42517e-05
8.78717e-05
-4.28207e-06
1.47688e-05
8.55386e-05
-2.13517e-06
1.43015e-05
8.20193e-05
-9.12734e-07
1.24115e-05
7.70071e-05
-1.28756e-06
1.0567e-05
7.02024e-05
-3.56291e-06
1.06511e-05
6.26406e-05
-7.54737e-06
1.29414e-05
5.65385e-05
-1.14562e-05
1.51778e-05
5.29055e-05
-1.29111e-05
1.49401e-05
5.10442e-05
-1.10555e-05
1.25821e-05
5.028e-05
-7.2761e-06
9.83617e-06
5.05542e-05
-3.70845e-06
7.5153e-06
5.18863e-05
-1.61515e-06
5.57104e-06
5.40777e-05
-1.41641e-06
3.98632e-06
5.69681e-05
-3.29883e-06
2.78676e-06
6.07144e-05
-7.85099e-06
1.99614e-06
6.57105e-05
-1.44112e-05
1.10615e-06
7.1857e-05
-1.95594e-05
-9.97791e-07
7.81849e-05
-1.99242e-05
-5.19717e-06
8.34781e-05
-1.65563e-05
-1.03228e-05
8.66035e-05
-1.15299e-05
-1.41604e-05
8.67005e-05
-6.5744e-06
-1.52945e-05
8.37246e-05
-4.14204e-06
-1.38238e-05
7.87125e-05
-5.48865e-06
-1.12648e-05
7.27634e-05
-7.5068e-06
-9.86324e-06
6.64201e-05
-7.06533e-06
-1.09747e-05
6.03775e-05
-5.32648e-06
-1.39676e-05
5.6084e-05
-4.25456e-06
-1.67429e-05
5.50622e-05
-3.07677e-06
-1.72237e-05
5.75027e-05
-3.94969e-07
-1.49673e-05
6.24291e-05
2.7449e-06
-1.13525e-05
6.88995e-05
4.22907e-06
-7.52774e-06
7.61433e-05
4.41319e-06
-3.25897e-06
8.33566e-05
4.39237e-06
1.48925e-06
8.98376e-05
1.81616e-06
6.94076e-06
-3.95262e-06
1.29767e-05
0.000126187
-1.67549e-05
1.73307e-05
0.000124696
-1.54069e-05
2.08929e-05
0.000120629
-1.22954e-05
1.98243e-05
0.00011778
-1.03471e-05
1.66585e-05
0.000116955
-8.51753e-06
1.51079e-05
0.000116466
-5.75979e-06
1.6062e-05
0.000114925
-2.78254e-06
1.72589e-05
0.000112274
-1.25351e-06
1.61503e-05
0.000108201
-1.47035e-06
1.2966e-05
0.000101352
-2.84384e-06
1.09759e-05
9.14174e-05
-5.89331e-06
1.29348e-05
8.09671e-05
-1.05623e-05
1.72643e-05
7.31556e-05
-1.43175e-05
1.92382e-05
6.86631e-05
-1.42096e-05
1.7294e-05
6.64936e-05
-1.04835e-05
1.397e-05
6.59391e-05
-6.17327e-06
1.1362e-05
6.66768e-05
-3.47317e-06
9.61771e-06
6.82903e-05
-3.14097e-06
8.47607e-06
7.04391e-05
-5.8403e-06
8.04987e-06
7.33617e-05
-1.2996e-05
8.67059e-06
7.81037e-05
-2.42291e-05
9.73561e-06
8.54431e-05
-3.41426e-05
9.13273e-06
9.47789e-05
-3.72042e-05
4.90098e-06
0.000104501
-3.30406e-05
-3.02585e-06
0.000112273
-2.41879e-05
-1.14925e-05
0.000115973
-1.39564e-05
-1.6699e-05
0.000114827
-7.54227e-06
-1.70798e-05
0.000109932
-7.91885e-06
-1.4025e-05
0.00010313
-1.03424e-05
-1.08231e-05
9.54851e-05
-9.29276e-06
-1.0414e-05
8.74298e-05
-6.16587e-06
-1.31992e-05
7.98788e-05
-4.34954e-06
-1.73452e-05
7.48132e-05
-3.67858e-06
-2.04526e-05
7.39721e-05
-2.61014e-06
-2.11081e-05
7.75267e-05
-2.1012e-06
-1.95461e-05
8.46369e-05
-3.49784e-06
-1.65098e-05
9.39603e-05
-5.07295e-06
-1.19674e-05
0.00010399
-5.1913e-06
-5.79543e-06
0.000113886
-6.73978e-06
1.45716e-06
-1.22814e-05
9.85843e-06
0.000152819
-3.13369e-05
1.12997e-05
0.000153769
-2.3733e-05
2.0048e-05
0.000147792
-1.33982e-05
2.28807e-05
0.000142755
-9.93815e-06
2.01071e-05
0.000142511
-1.04957e-05
1.63147e-05
0.00014423
-8.35257e-06
1.59131e-05
0.000144385
-3.78597e-06
1.85204e-05
0.000142941
-1.42254e-06
2.00208e-05
0.000140893
-2.17853e-06
1.69943e-05
0.000136516
-3.02324e-06
1.19966e-05
0.000127196
-3.75166e-06
1.13873e-05
0.000113613
-6.8656e-06
1.6774e-05
0.000100071
-1.19138e-05
2.22181e-05
9.0478e-05
-1.47649e-05
2.23434e-05
8.53677e-05
-1.28579e-05
1.87543e-05
8.33644e-05
-8.55468e-06
1.53899e-05
8.31834e-05
-5.25931e-06
1.34922e-05
8.38383e-05
-4.47747e-06
1.26741e-05
8.45772e-05
-7.56386e-06
1.29344e-05
8.53305e-05
-1.71325e-05
1.5054e-05
8.75541e-05
-3.36358e-05
1.8706e-05
9.32555e-05
-5.00736e-05
2.10612e-05
0.00010292
-5.73742e-05
1.86268e-05
0.000116079
-5.43009e-05
1.04668e-05
0.000130757
-4.40642e-05
-1.74789e-06
0.00014209
-2.79383e-05
-1.30293e-05
0.000145862
-1.43017e-05
-1.81389e-05
0.000142624
-1.12802e-05
-1.68337e-05
0.000135868
-1.36941e-05
-1.27222e-05
0.000128152
-1.21181e-05
-1.01121e-05
0.000119995
-7.14836e-06
-1.11762e-05
0.000111275
-3.71176e-06
-1.52219e-05
0.000102901
-2.13139e-06
-2.00816e-05
9.70056e-05
-1.25238e-06
-2.42089e-05
9.57637e-05
-3.9863e-06
-2.7e-05
0.000100149
-1.1424e-05
-2.7608e-05
0.000108927
-1.81379e-05
-2.47397e-05
0.000119349
-1.95584e-05
-1.86222e-05
0.000130622
-2.07625e-05
-1.02511e-05
-2.77377e-05
-2.30968e-08
0.000170828
-5.17358e-05
-1.39654e-07
0.000178189
-3.97372e-05
1.39235e-05
0.000172787
-1.68291e-05
2.28357e-05
0.000163363
-5.74958e-06
2.38001e-05
0.000161414
-9.75038e-06
1.9172e-05
0.000166842
-1.30037e-05
1.55592e-05
0.000171
-7.26058e-06
1.72516e-05
0.000169979
-9.47358e-07
2.18127e-05
0.000168273
-2.3828e-06
2.24382e-05
0.000168343
-6.63649e-06
1.62376e-05
0.000165143
-6.37234e-06
1.08869e-05
0.000153937
-4.60656e-06
1.42269e-05
0.000136648
-6.65687e-06
2.24389e-05
0.000119839
-1.05888e-05
2.63701e-05
0.000108759
-1.18969e-05
2.40635e-05
0.000103808
-9.68692e-06
2.00464e-05
0.000102677
-6.83573e-06
1.73423e-05
0.000103179
-5.75372e-06
1.60407e-05
0.000103902
-8.79596e-06
1.59214e-05
0.000103874
-1.94885e-05
1.80205e-05
0.00010341
-3.92235e-05
2.30884e-05
0.000105029
-6.127e-05
2.90725e-05
0.000111298
-7.40324e-05
3.07748e-05
0.000123232
-7.36578e-05
2.44936e-05
0.00014082
-6.40148e-05
1.15837e-05
0.000159812
-4.60496e-05
-3.66543e-06
0.000171219
-2.57772e-05
-1.42922e-05
0.000170407
-1.54985e-05
-1.69865e-05
0.000162235
-1.48074e-05
-1.44033e-05
0.000154553
-1.39598e-05
-1.06075e-05
0.000149896
-9.8945e-06
-8.80497e-06
0.000145383
-4.93337e-06
-1.08049e-05
0.000138446
1.40446e-07
-1.57551e-05
0.000129951
4.1696e-06
-2.21112e-05
0.000122922
9.14066e-07
-2.94745e-05
0.000121127
-1.2803e-05
-3.62423e-05
0.000126163
-2.82023e-05
-3.83394e-05
0.000134868
-3.39947e-05
-3.3974e-05
0.000144255
-3.51527e-05
-2.52218e-05
-4.40531e-05
-1.36993e-05
0.000185892
-6.95626e-05
-1.20873e-05
0.000198441
-6.15478e-05
5.51903e-06
0.000198698
-2.8216e-05
1.97571e-05
0.000187453
-2.55914e-06
2.53668e-05
0.000178867
-3.2868e-06
2.1929e-05
0.000182993
-1.51009e-05
1.52237e-05
0.000193218
-1.46738e-05
1.33108e-05
0.000196035
-2.81338e-06
1.83101e-05
0.000190216
1.70034e-06
2.38241e-05
0.00018747
-8.19471e-06
2.17625e-05
0.000192397
-1.78721e-05
1.41432e-05
0.000193693
-1.49668e-05
1.29069e-05
0.000181666
-7.1769e-06
2.08436e-05
0.00016046
-4.23548e-06
2.81269e-05
0.000140846
-5.35769e-06
2.85729e-05
0.000129483
-6.48776e-06
2.51956e-05
0.000125943
-6.83837e-06
2.20463e-05
0.000126851
-7.56097e-06
1.99323e-05
0.000129313
-1.12381e-05
1.84529e-05
0.000130952
-2.1695e-05
1.8706e-05
0.000130231
-4.11096e-05
2.27354e-05
0.000128322
-6.49305e-05
3.08137e-05
0.000128977
-8.21866e-05
3.80064e-05
0.000135992
-8.62022e-05
3.68457e-05
0.000151522
-7.96109e-05
2.5165e-05
0.000173144
-6.38505e-05
8.22232e-06
0.000189873
-3.97211e-05
-7.38654e-06
0.000189841
-1.88629e-05
-1.44386e-05
0.000175606
-8.43503e-06
-1.40932e-05
0.00016166
-6.90411e-06
-9.87538e-06
0.000158474
-9.79675e-06
-5.2332e-06
0.000164403
-1.09072e-05
-3.73071e-06
0.000169631
-3.66333e-06
-7.06263e-06
0.000167509
8.62829e-06
-1.44374e-05
0.000159724
1.08874e-05
-2.50589e-05
0.000152132
-4.78795e-06
-3.7858e-05
0.000150559
-2.88699e-05
-4.77011e-05
0.000155584
-4.2723e-05
-4.87413e-05
0.000163203
-4.60502e-05
-4.1057e-05
-5.60208e-05
-2.78693e-05
0.000204562
-8.0138e-05
-2.42053e-05
0.000217995
-8.11859e-05
-4.72579e-06
0.000225092
-4.83309e-05
1.37244e-05
0.000218643
-8.77202e-06
2.38278e-05
0.000205338
3.318e-06
2.34225e-05
0.000199992
-1.00324e-05
1.55835e-05
0.000208892
-2.05491e-05
8.95549e-06
0.000220253
-1.11486e-05
1.04679e-05
0.000219484
3.35854e-06
1.74601e-05
0.000209668
-1.25231e-06
2.08011e-05
0.000208335
-2.36842e-05
1.65622e-05
0.000219537
-3.64727e-05
1.32165e-05
0.000224193
-2.54925e-05
1.92605e-05
0.000209668
-6.81517e-06
2.81684e-05
0.000185089
2.82646e-06
3.10212e-05
0.000164886
3.18735e-06
2.90431e-05
0.000155119
-1.1741e-06
2.68498e-05
0.00015426
-7.42607e-06
2.52699e-05
0.000158622
-1.5681e-05
2.28168e-05
0.000163687
-2.71266e-05
1.98877e-05
0.000164973
-4.31882e-05
2.00375e-05
0.000161556
-6.34218e-05
2.72195e-05
0.000157216
-8.158e-05
3.86603e-05
0.000157652
-8.95625e-05
4.40248e-05
0.000167609
-8.74268e-05
3.63685e-05
0.000186585
-7.63235e-05
1.87868e-05
0.000204052
-5.228e-05
1.84458e-07
0.000205358
-2.14597e-05
-1.17379e-05
0.000188827
2.14825e-06
-1.38949e-05
0.000169186
8.42226e-06
-9.03539e-06
0.000161076
-9.3764e-07
-8.13041e-07
0.000168669
-1.32624e-05
5.69044e-06
0.000184852
-1.14996e-05
5.78348e-06
0.000196777
5.72829e-06
-9.16224e-07
0.00019761
1.89697e-05
-1.3805e-05
0.000190923
8.9288e-06
-3.11892e-05
0.000184544
-1.88837e-05
-4.86641e-05
0.000183399
-4.10912e-05
-5.83781e-05
0.000187259
-4.94976e-05
-5.59616e-05
-6.10332e-05
-4.3055e-05
0.000227715
-8.15609e-05
-3.8738e-05
0.000239675
-9.3577e-05
-1.5905e-05
0.000250308
-7.11877e-05
4.56407e-06
0.000251214
-2.69308e-05
1.81046e-05
0.000240715
7.92141e-07
2.20969e-05
0.000227645
-2.08229e-06
1.63272e-05
0.000225192
-1.71359e-05
6.69737e-06
0.000236316
-1.89104e-05
2.97283e-06
0.000247715
-4.85228e-06
8.10869e-06
0.00024558
1.03479e-06
1.50838e-05
0.000235718
-1.86745e-05
1.55856e-05
0.000238061
-4.75411e-05
1.24896e-05
0.000252178
-5.17151e-05
1.64048e-05
0.000254499
-2.61002e-05
2.6133e-05
0.000236484
1.82226e-06
3.10779e-05
0.000211939
1.40786e-05
3.00984e-05
0.000194096
1.18597e-05
2.92188e-05
0.000187083
2.69878e-07
2.99036e-05
0.000190367
-1.80667e-05
2.84156e-05
0.000199606
-3.72321e-05
2.24049e-05
0.000206021
-5.07429e-05
1.59151e-05
0.0002036
-6.14552e-05
1.82911e-05
0.000195176
-7.43716e-05
3.19787e-05
0.000188282
-8.40308e-05
4.50251e-05
0.000189988
-8.5515e-05
4.37121e-05
0.00020232
-7.89498e-05
2.75599e-05
0.000217303
-5.86704e-05
7.42973e-06
0.000221047
-2.3174e-05
-8.15603e-06
0.000208707
1.08576e-05
-1.37837e-05
0.000190235
2.38093e-05
-1.06974e-05
0.000178281
1.20586e-05
-6.62125e-07
0.00018003
-8.5667e-06
1.06371e-05
0.000195066
-1.54783e-05
1.65352e-05
0.000214859
-7.55255e-07
1.39296e-05
0.000228008
1.91927e-05
2.53805e-06
0.000230217
2.0393e-05
-1.717e-05
0.000225934
-3.44322e-06
-4.03229e-05
0.000220717
-2.95117e-05
-5.91972e-05
0.000217775
-4.31951e-05
-6.61467e-05
-5.76306e-05
-5.8386e-05
0.000256541
-7.55915e-05
-5.48086e-05
0.000266766
-9.64371e-05
-2.99526e-05
0.000276728
-8.74494e-05
-7.62634e-06
0.000280653
-5.07171e-05
9.0243e-06
0.000275482
-1.34029e-05
1.70341e-05
0.000262941
4.50071e-07
1.56838e-05
0.000251764
-7.22331e-06
6.42466e-06
0.000253094
-1.74897e-05
-1.29993e-06
0.00026692
-1.57404e-05
1.32914e-06
0.000277786
-9.58071e-06
1.07432e-05
0.000273698
-1.87332e-05
1.53216e-05
0.000265798
-4.63976e-05
1.19452e-05
0.000272064
-6.56931e-05
1.18642e-05
0.000284457
-5.0314e-05
2.06919e-05
0.000281948
-1.32123e-05
2.81398e-05
0.000263251
1.63264e-05
2.8314e-05
0.000241789
2.56277e-05
2.81311e-05
0.000227223
1.67986e-05
3.05113e-05
0.000224536
-9.54188e-06
2.94924e-05
0.000235036
-4.37473e-05
2.05242e-05
0.000249633
-6.32153e-05
7.46377e-06
0.000253561
-6.36085e-05
3.20423e-06
0.000243829
-6.38889e-05
1.67595e-05
0.000229453
-7.06966e-05
3.78841e-05
0.000220774
-7.41457e-05
4.68021e-05
0.000223241
-6.9524e-05
3.52558e-05
0.000233181
-5.37928e-05
1.44404e-05
0.000239194
-2.11215e-05
-3.20606e-06
0.000233724
1.63129e-05
-1.29013e-05
0.000221133
3.45826e-05
-1.48083e-05
0.000210158
2.38755e-05
-7.27834e-06
0.000207071
6.21138e-07
5.30376e-06
0.000214588
-1.22175e-05
1.68824e-05
0.000231089
-3.60864e-06
2.11006e-05
0.000250199
1.38555e-05
1.63991e-05
0.000264217
2.02737e-05
2.31644e-07
0.000269054
6.74287e-06
-2.52075e-05
0.000265278
-1.38572e-05
-5.14207e-05
0.000257117
-2.87136e-05
-6.85644e-05
-4.70216e-05
-7.01879e-05
0.000293792
-6.64191e-05
-6.77185e-05
0.000301897
-9.21147e-05
-4.46061e-05
0.00030822
-9.28902e-05
-2.04297e-05
0.000308643
-6.77544e-05
-3.37167e-06
0.000304587
-3.21397e-05
8.62338e-06
0.000296943
-5.35553e-06
1.24761e-05
0.00028683
1.24305e-06
6.66911e-06
0.000281858
-8.3194e-06
-2.4361e-06
0.00028979
-2.00411e-05
-2.44464e-06
0.000304057
-2.36319e-05
7.60905e-06
0.00030841
-2.63677e-05
1.55266e-05
0.000300383
-4.26267e-05
1.21152e-05
0.000296199
-6.48225e-05
6.448e-06
0.000303936
-6.38419e-05
1.13289e-05
0.000309419
-3.20997e-05
2.16411e-05
0.000300242
6.52706e-06
2.70953e-05
0.000281965
2.91261e-05
2.88227e-05
0.000266165
3.05427e-05
2.90282e-05
0.00025891
8.50192e-06
2.2003e-05
0.000265336
-3.41996e-05
6.39329e-06
0.000285623
-7.04656e-05
-8.57743e-06
0.000302506
-7.32675e-05
-1.46417e-05
0.000298998
-5.78381e-05
-2.66206e-06
0.000279613
-5.35407e-05
2.48913e-05
0.000260098
-5.61879e-05
4.49384e-05
0.000251618
-5.12575e-05
4.17955e-05
0.000254847
-3.6683e-05
2.18964e-05
0.000261189
-1.01305e-05
2.44962e-06
0.000261816
2.1951e-05
-1.06023e-05
0.00025629
3.96097e-05
-1.85129e-05
0.00024969
3.03552e-05
-1.80905e-05
0.000246365
7.9244e-06
-7.58231e-06
0.0002482
-5.03599e-06
6.15445e-06
0.000256249
-2.1477e-07
1.62209e-05
0.000271573
9.23505e-06
1.88312e-05
0.000292076
8.48006e-06
1.1968e-05
0.00030859
1.19955e-06
-9.67371e-06
0.000311257
-4.4223e-06
-3.95157e-05
0.000302209
-1.14899e-05
-6.5245e-05
-3.26357e-05
-7.62491e-05
0.000340231
-5.42883e-05
-7.62531e-05
0.000345683
-8.04585e-05
-5.74458e-05
0.000346786
-8.50875e-05
-3.48997e-05
0.000340015
-7.18282e-05
-1.69592e-05
0.000331934
-4.5805e-05
-2.34786e-06
0.000326628
-1.55424e-05
8.54787e-06
0.000321986
4.52151e-06
7.99614e-06
0.000318622
3.03224e-06
-9.08433e-07
0.000322826
-1.5506e-05
-4.3046e-06
0.000334979
-3.15849e-05
4.8536e-06
0.000343311
-3.45685e-05
1.56858e-05
0.000338276
-3.78249e-05
1.37456e-05
0.000326198
-5.18428e-05
3.02136e-06
0.000318951
-5.90553e-05
1.7912e-06
0.000315658
-4.04761e-05
1.36455e-05
0.00030911
-6.72893e-06
2.67774e-05
0.000300961
1.93373e-05
3.09519e-05
0.000296992
3.04048e-05
2.3038e-05
0.000295905
2.17232e-05
4.80014e-06
0.00029738
-1.4386e-05
-1.44191e-05
0.00031238
-6.48346e-05
-2.54708e-05
0.000338592
-8.77722e-05
-2.45924e-05
0.0003498
-6.90311e-05
-1.07561e-05
0.000333339
-4.55461e-05
1.66901e-05
0.000304917
-3.77314e-05
4.19792e-05
0.000285673
-3.04609e-05
4.767e-05
0.000283241
-1.53692e-05
3.13239e-05
0.000291003
6.0727e-06
8.91129e-06
0.000298058
2.77507e-05
-8.10389e-06
0.000299364
3.79396e-05
-2.02399e-05
0.000297681
2.81211e-05
-2.69653e-05
0.000296914
8.37497e-06
-2.36869e-05
0.000297407
-1.54725e-06
-1.20751e-05
0.000299496
4.11621e-06
7.19181e-07
0.000306766
7.61032e-06
9.3077e-06
0.000323358
-3.85398e-06
1.03948e-05
0.000344274
-1.32827e-05
-2.55044e-06
0.000354965
-5.79105e-06
-2.93621e-05
0.000350308
6.98489e-07
-5.89618e-05
-1.80272e-05
-7.76068e-05
0.000393327
-3.89149e-05
-7.90085e-05
0.000396976
-6.19958e-05
-6.70411e-05
0.00039545
-6.77391e-05
-4.84194e-05
0.000383022
-6.41996e-05
-3.12805e-05
0.000367922
-5.05111e-05
-1.42264e-05
0.000359028
-2.31904e-05
2.08474e-06
0.000356186
5.48375e-06
8.18537e-06
0.00035669
1.36926e-05
2.68795e-06
0.000361538
-5.09194e-06
-1.86183e-06
0.000371651
-3.02363e-05
4.55514e-06
0.000380218
-3.81787e-05
1.67076e-05
0.000376636
-3.35408e-05
1.85486e-05
0.000359166
-3.46252e-05
6.05658e-06
0.000337381
-3.89534e-05
-4.51949e-06
0.000321343
-3.02236e-05
-3.55438e-07
0.000314894
-8.83491e-06
1.03191e-05
0.000318618
9.65184e-06
1.29083e-05
0.000329266
2.09074e-05
1.84542e-06
0.000338172
2.22668e-05
-1.73634e-05
0.000341199
1.53267e-06
-3.4546e-05
0.000348476
-4.80162e-05
-3.76793e-05
0.00037036
-9.27547e-05
-2.5737e-05
0.000389801
-8.95753e-05
-5.86085e-06
0.000381792
-5.41887e-05
1.9862e-05
0.000351354
-2.67997e-05
4.31729e-05
0.00032439
-1.19352e-05
5.21337e-05
0.000316479
2.58814e-06
4.00942e-05
0.000323292
1.9105e-05
1.71079e-05
0.00033201
3.25743e-05
-3.2969e-06
0.000335072
3.57465e-05
-1.68867e-05
0.000335388
2.36171e-05
-2.59883e-05
0.000338954
3.46782e-06
-2.97451e-05
0.000345207
-5.76819e-06
-2.55863e-05
0.000350232
8.84866e-07
-1.36879e-05
0.000353496
5.79154e-06
1.31286e-07
0.000360053
-5.77305e-06
6.11476e-06
0.000374275
-1.79323e-05
-2.78955e-06
0.000390068
-9.84154e-06
-2.50902e-05
0.000396941
3.22332e-06
-5.25379e-05
-7.79138e-06
-7.37227e-05
0.000449094
-2.3262e-05
-7.55625e-05
0.0004529
-3.99399e-05
-7.29755e-05
0.000453252
-4.70227e-05
-6.0849e-05
0.000439853
-5.02683e-05
-4.54011e-05
0.000417274
-4.57604e-05
-2.79903e-05
0.000400111
-2.40196e-05
-9.00856e-06
0.000394462
6.40898e-06
5.32978e-06
0.000396809
2.12576e-05
8.76979e-06
0.00040279
6.93878e-06
6.26097e-06
0.000410454
-2.06291e-05
7.47488e-06
0.000416846
-3.48074e-05
1.60706e-05
0.000414986
-3.13182e-05
2.2626e-05
0.000400315
-2.49785e-05
1.58141e-05
0.000377719
-2.10884e-05
-7.06505e-07
0.000359026
-1.28795e-05
-1.2644e-05
0.000352849
-1.16064e-06
-1.37506e-05
0.000359499
5.45934e-06
-1.02041e-05
0.000373207
8.15571e-06
-1.10431e-05
0.000386201
1.21975e-05
-2.22235e-05
0.000394787
7.05304e-06
-3.73277e-05
0.000402006
-2.64054e-05
-4.18395e-05
0.000415093
-7.66021e-05
-2.84229e-05
0.000429371
-9.58948e-05
-3.7156e-06
0.000425303
-6.58581e-05
2.13812e-05
0.000398481
-2.26491e-05
4.13445e-05
0.00036902
6.53827e-06
5.2718e-05
0.000354632
2.22427e-05
4.91666e-05
0.00035352
3.11352e-05
3.10018e-05
0.000354889
3.54805e-05
1.0284e-05
0.000354243
3.28546e-05
-3.05096e-06
0.000355677
1.74684e-05
-9.20387e-06
0.000364106
-5.75365e-06
-1.59565e-05
0.000377724
-1.83686e-05
-2.20559e-05
0.000388488
-1.07556e-05
-1.68294e-05
0.000391783
2.63543e-06
2.04048e-07
0.000391547
2.34859e-06
1.09573e-05
0.000397249
-6.28547e-06
7.09426e-07
0.000413883
-5.36657e-06
-2.33398e-05
0.000434201
1.54672e-06
-4.78023e-05
-3.92584e-06
-6.61227e-05
0.000502833
-1.3041e-05
-6.59956e-05
0.000512494
-2.22549e-05
-6.96026e-05
0.000516881
-2.73871e-05
-6.67972e-05
0.00050472
-3.29211e-05
-5.75744e-05
0.000476684
-3.22945e-05
-4.35052e-05
0.000450002
-1.51811e-05
-2.46705e-05
0.000437922
1.15593e-05
-5.22419e-06
0.000439044
2.52157e-05
8.23053e-06
0.00044563
1.33884e-05
1.30907e-05
0.000451374
-1.0918e-05
1.48234e-05
0.000453482
-2.54008e-05
1.917e-05
0.000449397
-2.44774e-05
2.36808e-05
0.000437499
-1.82823e-05
1.97891e-05
0.000422273
-1.18269e-05
4.59876e-06
0.000412432
-3.61409e-06
-1.31584e-05
0.000412074
2.22474e-06
-2.16676e-05
0.000418188
-6.28151e-07
-1.6582e-05
0.00042644
-5.98006e-06
-7.47485e-06
0.000434645
-1.90056e-06
-9.17087e-06
0.000442076
5.82246e-06
-2.1605e-05
0.000449457
-7.50688e-06
-2.98216e-05
0.000459146
-5.08583e-05
-2.42179e-05
0.00047046
-8.54928e-05
-5.7252e-06
0.00047138
-6.9946e-05
1.77994e-05
0.000452831
-2.03345e-05
3.86099e-05
0.000425554
2.34033e-05
5.00697e-05
0.000404179
4.42181e-05
4.92351e-05
0.000391215
4.52824e-05
3.91698e-05
0.000383438
3.69791e-05
2.68562e-05
0.000381355
2.73106e-05
1.55773e-05
0.000387244
1.40938e-05
5.86368e-06
0.000400406
-6.53407e-06
-2.8182e-06
0.000415749
-2.35953e-05
-9.18989e-06
0.000426503
-2.09465e-05
-8.75448e-06
0.000430078
-5.34653e-07
1.36078e-06
0.000428854
1.51058e-05
1.33211e-05
0.000430474
1.59955e-05
9.52262e-06
0.000443281
1.22132e-05
-1.42917e-05
0.000466868
8.5088e-06
-4.06111e-05
-3.07458e-07
-5.7414e-05
0.00055209
-1.18623e-05
-5.51242e-05
0.000568517
-1.49335e-05
-6.2214e-05
0.000577862
-1.2843e-05
-6.52397e-05
0.000569464
-1.35479e-05
-6.29448e-05
0.000542385
-1.32168e-05
-5.49023e-05
0.000512208
-1.48006e-06
-3.99066e-05
0.000493414
1.88637e-05
-1.90409e-05
0.000486949
2.88917e-05
1.22345e-06
0.000487128
1.73812e-05
1.40823e-05
0.000488719
-3.44355e-06
1.98422e-05
0.000488595
-1.62548e-05
2.46538e-05
0.000485166
-1.66616e-05
2.75443e-05
0.000479224
-1.21038e-05
2.0028e-05
0.000475192
-6.31313e-06
7.92494e-07
0.000477192
-3.85455e-08
-1.74839e-05
0.000482563
5.43087e-07
-2.07094e-05
0.000483921
-8.65954e-06
-8.01471e-06
0.000479118
-1.68114e-05
7.81474e-06
0.000474671
-9.87499e-06
1.1597e-05
0.000478009
7.51012e-06
2.58993e-06
0.000489219
8.1127e-06
-5.43649e-06
0.000502889
-2.45795e-05
-4.38221e-06
0.000513135
-6.5605e-05
7.27368e-06
0.000513087
-6.5119e-05
2.24271e-05
0.000496871
-1.6735e-05
3.58088e-05
0.00047093
3.73959e-05
4.4871e-05
0.000446851
6.3817e-05
4.55234e-05
0.000429978
6.09026e-05
3.78733e-05
0.000420671
4.51319e-05
3.00349e-05
0.000419767
3.14399e-05
2.69207e-05
0.000427758
2.10443e-05
2.39e-05
0.000442173
7.26195e-06
1.4888e-05
0.000457616
-7.48214e-06
3.65154e-06
0.000468062
-9.79997e-06
8.07854e-07
0.000472215
5.68292e-06
1.03559e-05
0.000473588
2.41908e-05
2.25467e-05
0.000477511
3.16419e-05
2.15698e-05
0.000488574
2.80475e-05
2.98331e-06
0.000508652
1.68666e-05
-2.36871e-05
8.23374e-07
-4.3484e-05
0.000602343
-2.36261e-05
-4.5802e-05
0.000622987
-2.69905e-05
-5.04684e-05
0.000633082
-1.36912e-05
-5.42593e-05
0.0006281
1.00297e-06
-6.08029e-05
0.000611492
6.91298e-06
-6.42591e-05
0.000592602
1.20399e-05
-5.73758e-05
0.000577011
2.3552e-05
-3.74804e-05
0.000562947
3.15127e-05
-1.17141e-05
0.000548268
2.41966e-05
7.83478e-06
0.000535403
5.9301e-06
1.86119e-05
0.000528101
-1.02356e-05
2.63318e-05
0.00052882
-1.9828e-05
3.3725e-05
0.000537894
-2.60549e-05
3.36079e-05
0.000553648
-2.87711e-05
2.09793e-05
0.000569473
-2.49472e-05
4.74549e-06
0.000575521
-1.762e-05
-6.80351e-07
0.00056525
-1.46544e-05
1.12648e-05
0.000545036
-1.21816e-05
3.31528e-05
0.000529905
-5.99318e-08
4.68977e-05
0.000529895
2.04792e-05
3.60487e-05
0.000541957
2.86983e-05
6.78231e-06
0.000555881
7.06913e-06
-1.31914e-05
0.000564307
-3.23508e-05
-6.23118e-06
0.000562317
-4.93754e-05
1.91064e-05
0.000545781
-1.88771e-05
3.96099e-05
0.000519925
3.53131e-05
4.57646e-05
0.000496718
7.32706e-05
4.19662e-05
0.000483238
8.09517e-05
3.3495e-05
0.000478762
6.79381e-05
2.5745e-05
0.000480261
4.91983e-05
2.11474e-05
0.000485878
3.28912e-05
1.77963e-05
0.000495324
1.92414e-05
1.32879e-05
0.000507654
9.0197e-06
7.95827e-06
0.000520072
7.42262e-06
5.49668e-06
0.000529245
1.62647e-05
1.25536e-05
0.000533656
2.76798e-05
2.82853e-05
0.000535879
3.28606e-05
3.90122e-05
0.000541419
2.96026e-05
3.01399e-05
0.000555388
1.70832e-05
1.24317e-06
-3.93056e-06
-2.93776e-05
0.000656317
-3.26673e-05
-3.95639e-05
0.00067636
-3.27806e-05
-5.27304e-05
0.000686335
-1.26057e-05
-5.34373e-05
0.000681731
1.24293e-05
-5.23733e-05
0.000665214
2.61797e-05
-5.52794e-05
0.000648019
2.84376e-05
-5.66838e-05
0.000639287
2.8459e-05
-4.8818e-05
0.000637151
2.82213e-05
-3.26257e-05
0.000632503
2.26195e-05
-1.51418e-05
0.00061997
1.0539e-05
-9.40693e-07
0.000602987
-4.03966e-06
1.19949e-05
0.000590875
-1.90365e-05
2.61788e-05
0.000592216
-3.67904e-05
3.79582e-05
0.000609851
-5.43659e-05
3.95343e-05
0.000635761
-6.20565e-05
3.03344e-05
0.000652092
-5.34014e-05
2.04262e-05
0.000645235
-3.41069e-05
2.20104e-05
0.000620547
-1.14895e-05
3.71651e-05
0.000595937
1.2722e-05
5.08993e-05
0.000584823
3.22844e-05
4.20477e-05
0.0005869
3.55931e-05
8.0933e-06
0.00059595
1.57188e-05
-2.70781e-05
0.00060693
-1.74996e-05
-3.50049e-05
0.000612589
-3.86152e-05
-8.99227e-06
0.000606571
-2.46432e-05
2.496e-05
0.000592304
1.86281e-05
4.362e-05
0.000581177
6.17613e-05
4.20189e-05
0.000578253
8.32086e-05
2.64161e-05
0.000578954
8.09895e-05
6.23125e-06
0.000577952
6.41872e-05
-8.889e-06
0.000575021
4.19045e-05
-1.08516e-05
0.000573505
2.22703e-05
-1.54416e-06
0.00057526
1.2737e-05
1.05173e-05
0.00057827
1.50793e-05
2.05667e-05
0.000580298
2.29601e-05
2.96183e-05
0.000581266
2.66762e-05
4.10944e-05