/*--------------------------------*- C++ -*----------------------------------*\
| =========                 |                                                 |
| \\      /  F ield         | OpenFOAM: The Open Source CFD Toolbox           |
|  \\    /   O peration     | Version:  2306                                  |
|   \\  /    A nd           | Website:  www.openfoam.com                      |
|    \\/     M anipulation  |                                                 |
\*---------------------------------------------------------------------------*/
FoamFile
{
    version     2.0;
    format      ascii;
    arch        "LSB;label=32;scalar=64";
    class       volScalarField;
    location    "1.5";
    object      pMean;
}
// * * * * * * * * * * * * * * * * * * * * * * * * * * * * * * * * * * * * * //

dimensions      [0 2 -2 0 0 0 0];

internalField   nonuniform List<scalar> 
60000
(
6.92213e-05
0.000130141
0.000170665
0.000194051
0.000212482
0.00021766
0.000194541
0.000153925
0.000135173
0.000167226
0.000230946
0.000282339
0.000290969
0.000258937
0.000211124
0.00016607
0.00012418
8.26838e-05
5.00779e-05
3.99334e-05
6.60881e-05
0.000119548
0.000168069
0.000191447
0.000189849
0.000175698
0.000180772
0.000226861
0.000281852
0.000304819
0.000299015
0.000288324
0.000281005
0.000265603
0.00023589
0.000196998
0.000143469
7.05528e-05
1.4686e-05
1.63423e-05
6.59809e-05
0.000127362
0.000168751
0.000192626
0.000211015
0.000215979
0.000192525
0.000151535
0.00013255
0.000164764
0.000229289
0.000281552
0.000290734
0.00025905
0.000211512
0.000166769
0.000124932
8.32517e-05
5.03251e-05
3.99324e-05
6.59635e-05
0.00011944
0.000167719
0.000190449
0.000188177
0.000173446
0.00017815
0.00022452
0.000280546
0.000304555
0.000299571
0.000289711
0.000283071
0.000268134
0.00023847
0.000199687
0.000146011
7.19079e-05
1.39993e-05
1.37946e-05
6.11754e-05
0.000123859
0.000166624
0.000191159
0.000209782
0.000215059
0.000191622
0.000149635
0.000128982
0.000160633
0.000226582
0.000280814
0.000291165
0.000259853
0.000212311
0.000167514
0.000125499
8.33463e-05
4.98868e-05
3.9269e-05
6.54645e-05
0.000119155
0.000167189
0.000189363
0.000186549
0.0001708
0.000174101
0.000220418
0.000277921
0.000303326
0.000299368
0.000290772
0.000285273
0.0002706
0.000240353
0.000201067
0.000146798
7.1056e-05
1.06107e-05
8.74518e-06
5.48856e-05
0.000119723
0.000164388
0.000189724
0.000208808
0.000214878
0.000191773
0.000148532
0.000125105
0.000155036
0.00022252
0.000279975
0.000292479
0.000261628
0.000213658
0.000168354
0.000125896
8.28796e-05
4.85897e-05
3.80776e-05
6.49495e-05
0.000119196
0.00016689
0.000188353
0.000184948
0.000167859
0.000169076
0.000215119
0.000274369
0.000301099
0.000298011
0.000291172
0.000287544
0.000273069
0.00024149
0.000200967
0.00014541
6.75558e-05
4.31419e-06
1.15774e-06
4.72645e-05
0.000114365
0.000161236
0.00018773
0.000207454
0.000214639
0.000192705
0.000149171
0.000122973
0.000149509
0.000217073
0.000278084
0.000294102
0.000264366
0.000215752
0.000169543
0.000126164
8.20734e-05
4.6691e-05
3.62546e-05
6.43347e-05
0.000119293
0.000166346
0.000187135
0.000183332
0.000164927
0.000163884
0.000209739
0.000271108
0.00029887
0.00029576
0.0002906
0.000289916
0.000276431
0.000243486
0.000201337
0.000143782
6.25808e-05
-3.90601e-06
-8.03471e-06
3.82075e-05
0.000107323
0.000155844
0.000183779
0.000204816
0.000213239
0.000192884
0.000151383
0.000124292
0.00014708
0.00021211
0.000274924
0.000295049
0.000267681
0.000218721
0.000171403
0.000126757
8.08522e-05
4.36185e-05
3.28935e-05
6.24145e-05
0.000118211
0.000162841
0.000181394
0.000178488
0.000160903
0.000158416
0.000204722
0.000269267
0.000298752
0.000294796
0.000289859
0.000292368
0.000281425
0.000247951
0.000205433
0.000146299
5.82773e-05
-1.44173e-05
-1.94535e-05
2.44375e-05
9.79162e-05
0.000148428
0.000176565
0.000199142
0.000209918
0.00019103
0.000151733
0.000127769
0.000149617
0.000211032
0.000272529
0.000295165
0.00027092
0.000222391
0.000174019
0.000127792
7.92498e-05
3.87489e-05
2.61429e-05
5.71074e-05
0.000115767
0.000159121
0.000171682
0.00016573
0.000149976
0.000149147
0.000197885
0.000267343
0.000301415
0.000298714
0.000292619
0.000295656
0.000286254
0.000254481
0.000214947
0.000158194
6.38654e-05
-2.27751e-05
-3.58594e-05
3.84485e-06
8.41247e-05
0.000139958
0.000168114
0.000189957
0.000203359
0.000187266
0.000149808
0.000127786
0.000151392
0.000214586
0.000274117
0.000296405
0.000274134
0.000226591
0.000177268
0.000129087
7.72406e-05
3.23647e-05
1.65094e-05
4.91651e-05
0.000114816
0.000161589
0.000167462
0.000152231
0.000131892
0.000132398
0.000186418
0.00026231
0.000300402
0.000301028
0.00029998
0.000303127
0.000290144
0.000257106
0.000223975
0.000178179
8.19335e-05
-2.25372e-05
-5.30235e-05
-2.20513e-05
6.52987e-05
0.000129712
0.00015919
0.000178932
0.00019376
0.000181985
0.000147598
0.000126596
0.000147187
0.000210317
0.000275901
0.000300046
0.000278061
0.000231475
0.000181545
0.000130692
7.47633e-05
2.61908e-05
9.12711e-06
4.56904e-05
0.000121766
0.000176933
0.00017694
0.000145659
0.000111667
0.000109304
0.000170454
0.00025544
0.000297274
0.000297727
0.000297845
0.000305617
0.000291401
0.000253741
0.000225851
0.000198265
0.000110097
-1.20374e-05
-6.74791e-05
-4.95063e-05
4.14413e-05
0.000116654
0.000149797
0.000167448
0.000182574
0.000175417
0.000144894
0.000124244
0.000140592
0.000197133
0.000264181
0.000296815
0.000280531
0.000235995
0.000186863
0.000133612
7.22177e-05
2.05529e-05
6.61058e-06
5.20874e-05
0.00014206
0.00020926
0.000204596
0.000152704
9.76678e-05
8.505e-05
0.000150703
0.000244083
0.000290306
0.00029166
0.000293757
0.000303409
0.000288961
0.000247559
0.000221152
0.000212824
0.000144063
1.06561e-05
-7.43669e-05
-6.99038e-05
1.37622e-05
0.000100061
0.000140504
0.000158309
0.000172889
0.000169693
0.000143494
0.000122378
0.000133115
0.000181539
0.000243368
0.000277572
0.000269168
0.000233856
0.000191402
0.000138806
7.2472e-05
1.66892e-05
7.40228e-06
6.51963e-05
0.000171798
0.000256564
0.000252331
0.000178863
9.9036e-05
7.10957e-05
0.000130339
0.000224817
0.00027364
0.000278324
0.000287939
0.000303457
0.00029025
0.000246355
0.000217603
0.000222995
0.00017952
4.70589e-05
-6.65796e-05
-7.38411e-05
-8.6336e-06
8.06761e-05
0.00013013
0.000151341
0.000165867
0.000165424
0.000143296
0.000122855
0.000129959
0.000169837
0.00022255
0.000250724
0.000241215
0.000214294
0.000184277
0.000142378
8.00129e-05
2.28324e-05
1.56403e-05
8.1572e-05
0.000199455
0.000303749
0.000312832
0.000227203
0.000124289
7.68191e-05
0.000116907
0.000199465
0.000249383
0.000261162
0.000282708
0.000308072
0.000299304
0.000255999
0.000222765
0.000232827
0.000211725
9.34294e-05
-3.99295e-05
-5.78158e-05
-1.70677e-05
6.29135e-05
0.000119069
0.000144053
0.000159314
0.000161767
0.000143765
0.000122803
0.000127909
0.000163713
0.000209171
0.000228441
0.000208922
0.000179508
0.000163596
0.000138451
8.92866e-05
4.17438e-05
3.87888e-05
0.000100461
0.000213992
0.000329774
0.000364262
0.000286224
0.000170632
0.000104445
0.000117723
0.000176875
0.000223304
0.00024649
0.000279069
0.000313332
0.000311961
0.000273948
0.000238815
0.000242463
0.000235082
0.000140637
3.01337e-06
-2.13704e-05
-4.84168e-06
5.67265e-05
0.000110637
0.000138745
0.000151385
0.000155858
0.00014283
0.000122978
0.000126266
0.000160601
0.0002042
0.000219921
0.000191246
0.000153793
0.00014282
0.000129409
9.16211e-05
5.96335e-05
6.28122e-05
0.000113568
0.000209505
0.00032302
0.000384272
0.000333801
0.000221421
0.000140738
0.000125644
0.000158271
0.000200118
0.000236134
0.000279522
0.000317482
0.000321498
0.000290749
0.000256906
0.00024819
0.000244655
0.000178051
5.48634e-05
3.24679e-05
2.77816e-05
6.53448e-05
0.000110213
0.000138162
0.000146555
0.000147466
0.00013924
0.000123118
0.000125034
0.00015785
0.000201558
0.000221958
0.000198716
0.000158999
0.000141466
0.00012786
9.25665e-05
6.31457e-05
7.47e-05
0.000118496
0.000192986
0.000294381
0.000372415
0.000357441
0.000260906
0.000170106
0.000130733
0.000141252
0.000179984
0.000224836
0.00027265
0.000311571
0.000322132
0.000299853
0.000269613
0.000249068
0.000240986
0.000201334
0.000108013
9.05287e-05
7.05253e-05
8.35739e-05
0.000116122
0.000141958
0.000144449
0.000136543
0.000128504
0.000121361
0.0001259
0.000155279
0.00019588
0.000220032
0.000209919
0.000178191
0.000153444
0.000132392
9.3026e-05
5.99828e-05
7.97996e-05
0.000130949
0.000184427
0.000261395
0.000342447
0.000357111
0.00028832
0.000199238
0.000139756
0.000129561
0.000161956
0.000207189
0.000251631
0.000294205
0.000316134
0.000305287
0.000275938
0.000245489
0.000233394
0.000212292
0.000152052
0.000135024
0.000109087
0.000106716
0.00012772
0.000148829
0.000144957
0.000127118
0.000112501
0.000110925
0.000122453
0.000151089
0.000191111
0.000217729
0.000214406
0.000189129
0.000163377
0.000139697
0.000100281
6.78193e-05
9.35145e-05
0.000153391
0.000193359
0.000240209
0.000304978
0.000331566
0.000293562
0.00022135
0.000157836
0.000131811
0.00015
0.000192499
0.000239229
0.000276845
0.000298351
0.000302287
0.000279118
0.000241855
0.000224988
0.000215923
0.000180779
0.000162232
0.000142619
0.000132946
0.000142165
0.000155323
0.000144855
0.000117323
9.59302e-05
9.49934e-05
0.000111558
0.000141763
0.000185424
0.000222075
0.000225134
0.000197257
0.000167695
0.000144186
0.000109563
8.18018e-05
0.000108166
0.000164937
0.000201619
0.000231197
0.000277158
0.000303486
0.000283833
0.000225437
0.00016508
0.0001371
0.000151855
0.000191929
0.000237359
0.000275783
0.000297164
0.00029766
0.000268601
0.000226075
0.000203265
0.000200822
0.000186839
0.000164974
0.000155041
0.000154124
0.000162201
0.00016447
0.000145118
0.000111026
8.25951e-05
7.32184e-05
8.62246e-05
0.000116517
0.000162066
0.000210635
0.000231817
0.000213731
0.000186278
0.000164174
0.000137686
0.000110662
0.000121091
0.000163435
0.00019566
0.000222756
0.000266223
0.000293905
0.000274516
0.000218849
0.000164561
0.000141911
0.000154335
0.000185697
0.000227343
0.000270446
0.000294906
0.000290381
0.000257621
0.000211329
0.00017977
0.000174456
0.000175825
0.000152342
0.000150848
0.000151768
0.000159907
0.000163566
0.000147104
0.000117083
8.93861e-05
7.23377e-05
7.05026e-05
8.49478e-05
0.000117668
0.000164571
0.000200611
0.000201487
0.000184594
0.000178086
0.000172066
0.000146418
0.000128654
0.000145841
0.000174612
0.00020756
0.000254327
0.000288319
0.00026498
0.000202967
0.000148732
0.000128845
0.000140277
0.000168667
0.000208311
0.000253633
0.000280007
0.000273629
0.000242452
0.000201562
0.000166847
0.000151171
0.000150618
0.000130573
0.000143056
0.000155529
0.000162836
0.000159498
0.000140746
0.000116411
9.66777e-05
8.12049e-05
7.06705e-05
7.11567e-05
8.705e-05
0.000118148
0.000154456
0.000175283
0.000175402
0.000172979
0.000174509
0.000161882
0.000135242
0.000130368
0.000157446
0.000202731
0.000254378
0.000286598
0.000257655
0.00018099
0.000110738
8.68892e-05
0.000106504
0.00014839
0.000196085
0.000239575
0.000265547
0.000264423
0.000242213
0.000209739
0.000173116
0.000140529
0.000126154
0.000133248
0.000136373
0.000147254
0.000156244
0.000154165
0.000139623
0.000120446
0.000103408
9.03099e-05
8.21581e-05
8.17468e-05
8.84174e-05
0.000101015
0.000120883
0.000143455
0.000161861
0.00017168
0.000175489
0.000167141
0.000147638
0.000141609
0.000160917
0.000198011
0.000246897
0.000284344
0.000262458
0.000184739
0.000100911
6.07161e-05
7.69022e-05
0.000127151
0.000186626
0.000236498
0.00026119
0.00025579
0.000234713
0.000223418
0.000210997
0.000183506
0.00015064
0.00014793
0.000132258
0.000127952
0.000133286
0.000136636
0.00013507
0.000128625
0.000116377
0.00010228
9.60981e-05
0.000100025
0.000108016
0.000116158
0.000125032
0.00013837
0.000156688
0.0001718
0.000177653
0.000173195
0.000162828
0.000158445
0.000169252
0.000195486
0.000231143
0.000259172
0.000248684
0.00019283
0.000124942
8.53005e-05
8.93257e-05
0.000127354
0.000178694
0.000223218
0.000244428
0.000241901
0.00023041
0.000222506
0.000216803
0.000198448
0.00017165
0.000121668
0.000100177
0.000101874
0.000114556
0.000128737
0.000139307
0.000143057
0.0001371
0.000125014
0.000116737
0.000114913
0.000115261
0.000119717
0.000132068
0.000149577
0.000164629
0.000178496
0.000187474
0.000186743
0.000176652
0.000166767
0.000165449
0.000176573
0.000200803
0.000227016
0.000230222
0.000196336
0.000143069
0.000105411
0.000101767
0.000124669
0.000162366
0.000198875
0.000221604
0.000224801
0.000220928
0.000220902
0.000219664
0.000200163
0.000161271
0.000108474
7.62235e-05
7.35231e-05
9.08229e-05
0.000114056
0.000133978
0.000143801
0.000142205
0.000132309
0.000124071
0.00012555
0.000133338
0.000138165
0.00014038
0.000150454
0.00017308
0.000198745
0.000215176
0.000215346
0.000196785
0.000169731
0.000152716
0.000150502
0.000159878
0.000182525
0.000204567
0.000195617
0.000162217
0.000130447
0.000119686
0.000132142
0.000157349
0.000184176
0.000204821
0.000216108
0.000221912
0.000225224
0.000221852
0.000198002
0.000155853
-3.96463e-05
-5.31603e-08
6.12504e-05
0.00012111
0.000167205
0.000186171
0.000169583
0.000133506
0.000117293
0.000145867
0.000198033
0.000231246
0.000226056
0.000196816
0.000169405
0.000151661
0.000131622
0.00010027
6.52284e-05
5.03812e-05
7.74401e-05
0.000145278
0.000222219
0.000273089
0.000291531
0.000292764
0.000290711
0.000297516
0.000316411
0.000334645
0.000347238
0.000357655
0.000359034
0.000339806
0.000312592
0.000294136
0.000256483
0.0001673
5.14649e-05
-2.76227e-05
-4.04028e-05
-2.09836e-06
5.82328e-05
0.000118215
0.000164936
0.000184443
0.000168098
0.000131913
0.000115444
0.000144282
0.000197072
0.00023076
0.000225754
0.000196549
0.000169219
0.000151677
0.000131864
0.000100604
6.5319e-05
4.97507e-05
7.56627e-05
0.000142334
0.000218491
0.000269063
0.000287696
0.000289687
0.000288662
0.00029611
0.000315
0.000333002
0.00034583
0.00035711
0.000359564
0.000341142
0.000314302
0.00029631
0.000259563
0.000170857
5.42103e-05
-2.64937e-05
-4.39779e-05
-5.88118e-06
5.45088e-05
0.000115203
0.000163071
0.000183522
0.000167224
0.000130148
0.0001126
0.00014149
0.000195385
0.000229987
0.00022518
0.000195866
0.000168652
0.00015156
0.000132174
0.000101023
6.52846e-05
4.8828e-05
7.37383e-05
0.000139688
0.000215542
0.000265927
0.000284443
0.000286976
0.00028702
0.000294964
0.000313273
0.000330306
0.000343091
0.000355936
0.000360542
0.000343045
0.000316179
0.000298876
0.000263462
0.000174467
5.53299e-05
-2.82991e-05
-5.1134e-05
-1.15472e-05
5.0078e-05
0.000111922
0.000161233
0.000182952
0.00016683
0.000128452
0.000109021
0.000137404
0.000192645
0.000228682
0.000224164
0.000194548
0.000167477
0.000151162
0.000132375
0.000101413
6.50811e-05
4.79266e-05
7.26041e-05
0.000138816
0.000215025
0.000265232
0.000282944
0.000285197
0.000285897
0.000294203
0.000311689
0.000327076
0.000338995
0.000353325
0.000361087
0.000345154
0.000318025
0.000301743
0.000267995
0.000177365
5.34522e-05
-3.44313e-05
-6.20804e-05
-1.94919e-05
4.43456e-05
0.000107538
0.000158461
0.000181957
0.000166924
0.000128116
0.000106718
0.000133193
0.000188744
0.000226312
0.00022251
0.000192521
0.000165484
0.000150234
0.00013234
0.000101349
6.44941e-05
4.69082e-05
7.2098e-05
0.000139445
0.000216438
0.000266447
0.000283083
0.000284529
0.000285293
0.000293768
0.00031079
0.000324572
0.000334552
0.000348808
0.00035938
0.000345989
0.000319302
0.000304913
0.000273408
0.000180183
4.89476e-05
-4.49316e-05
-7.65686e-05
-2.98064e-05
3.64369e-05
0.000100302
0.000152771
0.000178809
0.000166275
0.000129248
0.000107735
0.000132079
0.000185402
0.000222812
0.000220102
0.000190246
0.00016308
0.000148901
0.000132177
0.000101114
6.32242e-05
4.48448e-05
7.04793e-05
0.000138925
0.000216354
0.000265295
0.000280801
0.000282806
0.000284648
0.000293449
0.000310812
0.000324189
0.00033211
0.000343853
0.0003546
0.000343058
0.000318843
0.000308517
0.0002809
0.00018459
4.38719e-05
-5.86776e-05
-9.3542e-05
-4.19794e-05
2.74092e-05
9.03276e-05
0.000142586
0.000171359
0.000162311
0.000128763
0.000109905
0.000134879
0.000185716
0.000220031
0.000217115
0.00018812
0.000161172
0.000147885
0.000132261
0.000100892
6.09217e-05
3.95753e-05
6.35415e-05
0.000132728
0.000210871
0.000257861
0.000270134
0.000272462
0.000278628
0.000290935
0.000310731
0.00032606
0.000333461
0.000341311
0.000348327
0.000335178
0.000312956
0.000311757
0.000293115
0.000194996
4.32038e-05
-7.13001e-05
-0.000107581
-5.54306e-05
1.79612e-05
8.06344e-05
0.000130904
0.000161224
0.000156144
0.000126163
0.000108756
0.00013295
0.00018447
0.000218595
0.000214766
0.000186306
0.000159941
0.000147546
0.000132759
0.00010057
5.72981e-05
2.98229e-05
4.81784e-05
0.000117245
0.000198719
0.000245115
0.000252402
0.000252424
0.000261823
0.00028017
0.000306091
0.000326013
0.000336311
0.000342498
0.000343948
0.000324911
0.00030088
0.000310362
0.000309949
0.000216138
5.3651e-05
-7.53089e-05
-0.000113693
-6.80608e-05
7.9968e-06
7.14813e-05
0.000119976
0.000151219
0.000150142
0.000123873
0.000106812
0.000126585
0.000175063
0.000211479
0.000211256
0.000184801
0.00015922
0.000147566
0.000133143
9.95239e-05
5.28091e-05
1.84313e-05
2.82739e-05
9.46091e-05
0.000181247
0.000230995
0.000233575
0.000228093
0.000236893
0.00026018
0.000295657
0.000323051
0.000334224
0.000339176
0.000340243
0.000317239
0.000287243
0.000303345
0.000326651
0.000247746
7.73965e-05
-6.77375e-05
-0.000112827
-7.89566e-05
-3.05378e-06
6.23189e-05
0.000110187
0.000142295
0.000144949
0.000121696
0.000104964
0.000120523
0.000163482
0.000198333
0.000201967
0.000180938
0.000158107
0.000147602
0.000133088
9.72887e-05
4.85552e-05
1.20858e-05
1.61573e-05
7.72056e-05
0.000165927
0.000219538
0.000218734
0.000204764
0.000208492
0.000232996
0.000279874
0.000318051
0.000331958
0.000334284
0.000335124
0.000313234
0.000279834
0.000295393
0.000339584
0.000284985
0.00011334
-5.03004e-05
-0.000107377
-8.86909e-05
-1.70387e-05
5.22145e-05
0.00010261
0.000136389
0.000141626
0.000120088
0.000103323
0.000115303
0.000152719
0.000183758
0.000186683
0.000169337
0.00015177
0.000145625
0.000132346
9.3994e-05
4.44232e-05
1.24773e-05
1.94318e-05
7.72979e-05
0.000164038
0.000218111
0.000212328
0.000188105
0.00018169
0.000203194
0.000258226
0.000309003
0.000329807
0.000332582
0.000335014
0.000319372
0.000284905
0.00029595
0.000350617
0.00032241
0.000159259
-2.18744e-05
-9.01983e-05
-9.28252e-05
-3.27232e-05
3.82925e-05
9.48964e-05
0.000133364
0.000141126
0.000119226
9.99773e-05
0.000109201
0.000144035
0.000172032
0.000171083
0.000152217
0.000137148
0.000136672
0.000128532
9.15883e-05
4.18669e-05
1.73994e-05
3.51543e-05
9.43302e-05
0.000177066
0.000230005
0.000219563
0.000185165
0.000166557
0.000177926
0.000230675
0.000290815
0.000322122
0.000329631
0.000336245
0.000328715
0.00030094
0.000306667
0.000362822
0.000356091
0.000210412
1.99992e-05
-5.72142e-05
-8.4217e-05
-4.15488e-05
2.49082e-05
8.6001e-05
0.000129242
0.00014018
0.000118296
9.61928e-05
0.000103697
0.000139971
0.000168149
0.000162744
0.000137717
0.000120747
0.000123729
0.000123029
9.09902e-05
4.3605e-05
2.5438e-05
5.26656e-05
0.000112128
0.000189667
0.000245985
0.000237938
0.0001974
0.000168474
0.0001666
0.000203417
0.000261642
0.00030264
0.000322867
0.000335989
0.000336663
0.000315598
0.00031749
0.0003686
0.000378509
0.00025728
7.12519e-05
-1.02672e-05
-5.6912e-05
-3.50387e-05
1.99222e-05
7.81217e-05
0.000123531
0.000137967
0.000118658
9.53489e-05
0.000102526
0.000142008
0.000172893
0.000165932
0.000136074
0.000114906
0.000118048
0.000120177
9.30837e-05
5.26315e-05
4.16985e-05
6.85747e-05
0.000119007
0.000187918
0.000250677
0.00025704
0.000219826
0.000182691
0.000168824
0.000184988
0.000229958
0.000272222
0.000302082
0.00032667
0.000337682
0.000323552
0.000318441
0.00035768
0.000378191
0.000288311
0.000122524
4.64783e-05
-1.18692e-05
-1.09276e-05
2.69575e-05
7.62675e-05
0.000117297
0.000132828
0.000119407
9.88214e-05
0.000106557
0.000146939
0.000180861
0.000179381
0.00015503
0.000133985
0.000126677
0.000115245
8.57573e-05
5.57121e-05
5.56174e-05
8.32753e-05
0.000121708
0.000179268
0.000247328
0.000272785
0.000243934
0.000200005
0.000174216
0.000174579
0.000203232
0.00024355
0.000278556
0.000308069
0.000327517
0.000322505
0.000312899
0.000332281
0.000353092
0.000298633
0.000168513
0.000108835
4.98062e-05
3.17259e-05
4.67721e-05
7.89449e-05
0.00010912
0.000121538
0.000112942
0.000102391
0.000113474
0.000152267
0.0001877
0.000192677
0.000173837
0.000152538
0.000136186
0.000111303
7.06403e-05
4.59905e-05
6.22153e-05
0.00010159
0.000133496
0.000177451
0.000242659
0.000283654
0.000267278
0.000216771
0.00017476
0.000165986
0.00018723
0.000223506
0.000259764
0.000293368
0.000321286
0.000325519
0.000309173
0.000307999
0.000318361
0.000291135
0.000204353
0.000158162
0.000111915
9.19515e-05
9.03168e-05
9.62762e-05
9.99891e-05
0.000101968
9.86079e-05
9.69233e-05
0.000114399
0.000154298
0.000193076
0.000203923
0.000189067
0.000167587
0.000146292
0.00011871
7.80026e-05
5.01242e-05
7.10555e-05
0.000122617
0.000156244
0.000185092
0.000236436
0.000280554
0.0002741
0.000225487
0.000179561
0.00016242
0.000175828
0.000211157
0.0002509
0.000284886
0.000313888
0.000325532
0.000306416
0.000286964
0.000289787
0.000281261
0.000227648
0.000194971
0.000160828
0.000143876
0.000135706
0.000124027
0.000105796
9.04596e-05
8.04336e-05
8.04938e-05
0.000104559
0.000150685
0.000195217
0.000214411
0.000204708
0.000179886
0.000152645
0.000126857
9.5972e-05
6.75116e-05
8.04678e-05
0.000132672
0.000175434
0.000201228
0.000238959
0.000273249
0.000271138
0.000227378
0.000180654
0.000160803
0.000171116
0.000202627
0.000243297
0.000281939
0.000309942
0.000316025
0.000291583
0.000259909
0.000255562
0.000258459
0.000236427
0.000203143
0.000182734
0.000180562
0.000180861
0.000159087
0.000119836
8.5097e-05
6.73675e-05
6.21408e-05
7.83535e-05
0.000116829
0.000169119
0.000211858
0.000224309
0.000200297
0.000164562
0.000139706
0.000119567
9.51418e-05
9.27321e-05
0.000128161
0.000175981
0.000210403
0.000247359
0.000272201
0.000261627
0.000219803
0.000179136
0.000161769
0.000168584
0.000193241
0.000230073
0.000268796
0.000297441
0.00030067
0.000274456
0.000233222
0.00021208
0.000219036
0.00022235
0.0001948
0.000187264
0.000182228
0.000178751
0.00016717
0.00013926
0.000101959
7.24805e-05
5.63991e-05
5.67844e-05
7.82353e-05
0.000118312
0.000162849
0.000194683
0.000199047
0.000179419
0.000159711
0.000148392
0.000126606
0.000103694
0.000111408
0.000146612
0.000195912
0.000243778
0.000269963
0.000251785
0.000205893
0.000170465
0.000159801
0.00016805
0.000189582
0.000218607
0.000250453
0.00027456
0.000275922
0.000254294
0.000218631
0.000188773
0.000184392
0.000194292
0.000174938
0.000179609
0.000184
0.000186419
0.000173551
0.000141193
0.000106052
8.10809e-05
6.23056e-05
4.87007e-05
5.09521e-05
7.31745e-05
0.00010712
0.000141961
0.000166261
0.000172691
0.000168905
0.000161398
0.000143669
0.000119997
0.000115716
0.000143982
0.000190631
0.000237479
0.000258962
0.000237426
0.000187608
0.000146594
0.000136136
0.000152669
0.000185076
0.000218485
0.000244053
0.000257828
0.000258466
0.000248527
0.000224868
0.000189978
0.000166133
0.000166285
0.000169103
0.000174358
0.000181433
0.000183885
0.000171178
0.000142804
0.000113917
9.52248e-05
8.35426e-05
7.29301e-05
6.49876e-05
6.54201e-05
7.48054e-05
9.25002e-05
0.000117719
0.000141827
0.000157303
0.000161149
0.000153397
0.000140832
0.000139448
0.000157758
0.000191225
0.000229423
0.000250833
0.000234772
0.000186035
0.000136104
0.000113077
0.000126037
0.000167263
0.000212156
0.000243399
0.000253544
0.000245448
0.000234921
0.000231138
0.000219415
0.000193997
0.000173164
0.000166632
0.000161818
0.000161651
0.000159582
0.000151463
0.000137373
0.000124027
0.000112541
0.000103629
0.000102208
0.000107141
0.000110382
0.000109761
0.000107939
0.000112916
0.000128113
0.000146337
0.000154567
0.000150357
0.000142839
0.000145202
0.000161918
0.000187664
0.000215797
0.000234079
0.000225518
0.000186834
0.000138601
0.000108606
0.000113765
0.000150017
0.000194605
0.000229255
0.000242173
0.00023629
0.000227651
0.000226746
0.000223243
0.000204695
0.0001811
0.000144092
0.000128586
0.000125642
0.000127554
0.000130754
0.00013385
0.000136932
0.000134595
0.000124842
0.000115227
0.000112634
0.000116844
0.000124464
0.000133073
0.000142394
0.000151933
0.000161266
0.000166829
0.000164942
0.000158304
0.000153845
0.000157802
0.000172182
0.000193029
0.000211151
0.000212738
0.000188261
0.000147101
0.000116691
0.000116781
0.000141645
0.000174764
0.000205279
0.000222734
0.000223315
0.000219648
0.000222587
0.000223583
0.000205878
0.000173466
0.000117762
8.67921e-05
7.82435e-05
8.97851e-05
0.000109328
0.000128728
0.000141667
0.000143911
0.000135643
0.000125723
0.000124815
0.00013264
0.000139109
0.000143669
0.000153954
0.000172974
0.00019292
0.000202844
0.000199391
0.00018185
0.000159205
0.000146462
0.000149337
0.000163423
0.000183103
0.000197911
0.000190295
0.000163646
0.000141003
0.000138588
0.000151362
0.000169219
0.000187468
0.000203195
0.000213335
0.000221097
0.000227469
0.000225737
0.000202733
0.000161833
2.93927e-05
1.63906e-05
3.2036e-05
6.45363e-05
0.000108352
0.000146985
0.000156521
0.000135319
0.000113234
0.000120507
0.00014947
0.000168557
0.000163395
0.000148315
0.00014082
0.000137897
0.000125958
0.000103642
8.44253e-05
8.22925e-05
0.000108381
0.000166405
0.000236349
0.00028501
0.000301996
0.00029965
0.000292695
0.000299487
0.000325371
0.000357281
0.000390785
0.000418083
0.000418617
0.000386379
0.000347081
0.000318154
0.000281939
0.000223214
0.000150868
7.99944e-05
3.0253e-05
1.67635e-05
3.20168e-05
6.42471e-05
0.000107836
0.000146562
0.000156473
0.000135589
0.000113547
0.000120756
0.000149767
0.000168899
0.000163589
0.000148196
0.000140564
0.000137718
0.00012576
0.000103175
8.355e-05
8.10673e-05
0.000106813
0.000164495
0.000234252
0.000282664
0.000299355
0.000296789
0.000289374
0.000295339
0.000320595
0.000352389
0.000386488
0.000415535
0.000418108
0.000386976
0.000348057
0.000320079
0.000284659
0.000226005
0.000153343
8.16912e-05
2.94864e-05
1.55273e-05
3.07392e-05
6.29385e-05
0.000106525
0.000145749
0.000156401
0.00013577
0.000113272
0.000120053
0.0001492
0.000168516
0.000163008
0.000147379
0.00013995
0.000137613
0.000125846
0.000102886
8.26935e-05
7.9782e-05
0.000105091
0.000162478
0.000232387
0.000280948
0.000297486
0.000294911
0.000286986
0.000291477
0.000314976
0.000345478
0.000380072
0.000412563
0.000418925
0.000389321
0.000350659
0.000323248
0.000288129
0.000228919
0.00015514
8.20853e-05
2.63091e-05
1.1892e-05
2.73499e-05
5.96665e-05
0.000103533
0.000143792
0.00015558
0.000135102
0.000111618
0.000117536
0.000146906
0.000166668
0.000161025
0.000145309
0.000138641
0.000137573
0.000126387
0.000102932
8.20061e-05
7.87816e-05
0.000104008
0.000161565
0.000232112
0.000281051
0.000297202
0.000294575
0.00028625
0.000289192
0.000310336
0.000338077
0.00037195
0.000408783
0.000420996
0.000393798
0.000355398
0.000328275
0.000292757
0.000231788
0.000155648
8.04935e-05
2.10618e-05
5.95646e-06
2.17788e-05
5.40802e-05
9.82313e-05
0.000139912
0.000153266
0.00013305
0.000108241
0.00011269
0.000141963
0.000162301
0.000156723
0.000141189
0.000135867
0.000137015
0.000127052
0.000103175
8.10666e-05
7.75911e-05
0.000103345
0.000161937
0.000234007
0.000283489
0.000298841
0.000295522
0.000286832
0.000289043
0.000308768
0.000332902
0.000363315
0.000403277
0.000422987
0.000400063
0.000362593
0.000335789
0.000299166
0.000235
0.000155077
7.71646e-05
1.42616e-05
-2.01504e-06
1.41418e-05
4.60616e-05
9.02598e-05
0.000133581
0.000148958
0.000129545
0.000103643
0.000106002
0.000134022
0.000154321
0.00014896
0.000134041
0.000130753
0.000135253
0.000127458
0.000103307
7.96429e-05
7.52328e-05
0.000100825
0.000160264
0.000235007
0.000286771
0.000302229
0.000297548
0.00028752
0.000289868
0.00031104
0.000333166
0.000357341
0.000396492
0.000423195
0.000406674
0.000372314
0.000346747
0.000308484
0.00023938
0.000154034
7.25775e-05
6.70728e-06
-1.14345e-05
4.9169e-06
3.55234e-05
7.86795e-05
0.000123593
0.000141868
0.000124657
9.91128e-05
9.96578e-05
0.000124884
0.000143068
0.000137168
0.000123188
0.00012289
0.000132007
0.000127663
0.000103719
7.81074e-05
7.132e-05
9.41038e-05
0.000151681
0.000228281
0.00028384
0.000302647
0.000299128
0.000286761
0.000287942
0.000313548
0.00033921
0.000357255
0.000390585
0.000420539
0.000410983
0.000383677
0.000362534
0.000322981
0.000246759
0.000153742
6.73213e-05
-9.29173e-07
-2.07076e-05
-4.7207e-06
2.43142e-05
6.42294e-05
0.000108566
0.000130352
0.000116613
9.37525e-05
9.52029e-05
0.000117519
0.000131401
0.000123468
0.000110139
0.000113182
0.000127966
0.000128187
0.000104885
7.69469e-05
6.59049e-05
8.21148e-05
0.000134287
0.000211823
0.00027152
0.000294185
0.00029484
0.000282793
0.000280857
0.000307894
0.000340315
0.000360448
0.000387201
0.000415652
0.000410772
0.000393387
0.00038316
0.000345648
0.000260438
0.000156534
6.31312e-05
-6.65989e-06
-2.74047e-05
-1.24175e-05
1.48623e-05
5.06838e-05
9.25557e-05
0.0001153
0.000104041
8.41978e-05
8.61344e-05
0.000105903
0.000116698
0.000109092
9.75249e-05
0.000104234
0.000124319
0.000129303
0.000106567
7.59761e-05
5.92258e-05
6.50515e-05
0.00010771
0.000185852
0.00025233
0.000278775
0.000282589
0.000273531
0.000270209
0.000295459
0.000327492
0.000349914
0.000379308
0.000408219
0.000405676
0.000396327
0.000404775
0.000378046
0.000284518
0.000166003
6.22639e-05
-8.54182e-06
-3.17208e-05
-1.57094e-05
9.90835e-06
4.20489e-05
7.96376e-05
0.000101191
9.0185e-05
7.0278e-05
7.1689e-05
8.84594e-05
9.45643e-05
8.62412e-05
8.01844e-05
9.36724e-05
0.000120909
0.000130257
0.000107773
7.50476e-05
5.36938e-05
4.7891e-05
7.63885e-05
0.000151934
0.000227818
0.000260794
0.000265834
0.000258151
0.000255079
0.000279201
0.000310367
0.000326257
0.000354858
0.000392458
0.000396052
0.000392004
0.00041968
0.00041526
0.000320791
0.000187018
6.8795e-05
-2.32504e-06
-3.36817e-05
-1.83627e-05
1.03631e-05
4.23896e-05
7.68927e-05
9.37817e-05
7.88083e-05
5.63688e-05
5.59542e-05
6.9799e-05
7.30939e-05
6.44397e-05
5.99227e-05
7.7887e-05
0.000113508
0.000129695
0.000108101
7.39355e-05
5.25656e-05
4.06637e-05
5.42874e-05
0.000119742
0.000202491
0.000245646
0.000252802
0.000242172
0.000236869
0.000261021
0.000294147
0.000305369
0.000321228
0.000360565
0.000379732
0.000383038
0.000423114
0.000446584
0.000367166
0.000222423
8.86054e-05