/*--------------------------------*- C++ -*----------------------------------*\
| =========                 |                                                 |
| \\      /  F ield         | OpenFOAM: The Open Source CFD Toolbox           |
|  \\    /   O peration     | Version:  2306                                  |
|   \\  /    A nd           | Website:  www.openfoam.com                      |
|    \\/     M anipulation  |                                                 |
\*---------------------------------------------------------------------------*/
FoamFile
{
    version     2.0;
    format      ascii;
    arch        "LSB;label=32;scalar=64";
    class       volScalarField;
    location    "1.5";
    object      pPrime2Mean;
}
// * * * * * * * * * * * * * * * * * * * * * * * * * * * * * * * * * * * * * //

dimensions      [0 4 -4 0 0 0 0];

internalField   nonuniform List<scalar> 
60000
(
8.88401e-11
1.84868e-10
3.66235e-10
4.50007e-10
5.29403e-10
1.02652e-09
2.03134e-09
2.12843e-09
8.7434e-10
2.28516e-10
2.56872e-10
5.19141e-10
1.84445e-09
3.10586e-09
2.93357e-09
2.49509e-09
2.56659e-09
2.49841e-09
1.725e-09
7.00375e-10
2.17225e-10
2.89767e-10
5.48743e-10
1.15034e-09
1.78375e-09
1.62927e-09
4.23736e-10
4.14206e-10
5.27971e-10
1.16715e-09
1.61021e-09
1.31438e-09
1.0127e-09
1.26034e-09
1.88578e-09
2.80088e-09
4.70613e-09
5.43607e-09
2.4695e-09
2.52955e-10
9.03198e-11
1.79517e-10
3.59283e-10
4.52239e-10
5.34828e-10
1.04212e-09
2.06305e-09
2.15455e-09
8.84524e-10
2.2367e-10
2.51494e-10
5.05036e-10
1.82823e-09
3.10286e-09
2.93908e-09
2.49567e-09
2.56752e-09
2.50411e-09
1.73182e-09
6.96514e-10
2.14081e-10
2.89058e-10
5.52753e-10
1.16748e-09
1.80111e-09
1.65527e-09
4.29641e-10
4.12001e-10
5.21852e-10
1.15234e-09
1.5988e-09
1.30702e-09
1.0077e-09
1.25019e-09
1.87299e-09
2.74801e-09
4.70934e-09
5.53297e-09
2.55917e-09
2.72201e-10
1.01481e-10
1.80998e-10
3.54004e-10
4.57207e-10
5.38208e-10
1.03872e-09
2.07928e-09
2.22656e-09
9.39021e-10
2.32267e-10
2.58026e-10
4.83428e-10
1.80519e-09
3.11786e-09
2.96923e-09
2.50779e-09
2.57865e-09
2.51768e-09
1.7332e-09
6.84139e-10
2.07366e-10
2.89251e-10
5.62415e-10
1.18321e-09
1.81807e-09
1.70412e-09
4.48678e-10
4.18389e-10
5.23451e-10
1.14408e-09
1.58198e-09
1.28003e-09
9.8719e-10
1.24564e-09
1.85415e-09
2.72417e-09
4.75083e-09
5.68223e-09
2.65189e-09
2.8152e-10
1.11359e-10
1.79919e-10
3.42319e-10
4.58082e-10
5.3105e-10
1.01705e-09
2.07705e-09
2.31669e-09
1.02868e-09
2.42294e-10
2.64892e-10
4.43363e-10
1.7639e-09
3.15373e-09
3.03308e-09
2.54531e-09
2.61028e-09
2.54546e-09
1.7238e-09
6.59663e-10
1.94781e-10
2.87626e-10
5.79231e-10
1.20902e-09
1.83482e-09
1.76423e-09
4.67789e-10
4.21806e-10
5.24528e-10
1.15307e-09
1.57499e-09
1.24297e-09
9.67349e-10
1.2685e-09
1.84888e-09
2.74059e-09
4.85677e-09
5.89942e-09
2.73093e-09
2.67433e-10
1.23603e-10
1.8413e-10
3.268e-10
4.54173e-10
5.20812e-10
9.86285e-10
2.03713e-09
2.35624e-09
1.132e-09
2.59994e-10
2.74255e-10
3.93697e-10
1.68073e-09
3.18886e-09
3.12505e-09
2.61198e-09
2.66575e-09
2.58633e-09
1.73046e-09
6.22846e-10
1.78752e-10
2.86329e-10
5.97154e-10
1.23729e-09
1.84947e-09
1.81548e-09
4.75245e-10
4.33619e-10
5.30458e-10
1.19e-09
1.59896e-09
1.20019e-09
9.26074e-10
1.29119e-09
1.88875e-09
2.7481e-09
5.09573e-09
6.23342e-09
2.79681e-09
2.45877e-10
1.36595e-10
1.85898e-10
3.19625e-10
4.43244e-10
5.06191e-10
9.69281e-10
1.98003e-09
2.29095e-09
1.17597e-09
2.81854e-10
2.72765e-10
3.57401e-10
1.55298e-09
3.1831e-09
3.22931e-09
2.70466e-09
2.76126e-09
2.67031e-09
1.75497e-09
5.80048e-10
1.56958e-10
2.8241e-10
6.34854e-10
1.24069e-09
1.75328e-09
1.82007e-09
4.6447e-10
4.6552e-10
5.30816e-10
1.22882e-09
1.67172e-09
1.18585e-09
8.72149e-10
1.30384e-09
1.90563e-09
2.71841e-09
5.45753e-09
6.92519e-09
2.87026e-09
2.11655e-10
1.84184e-10
1.92733e-10
3.16922e-10
4.50319e-10
4.82541e-10
9.61029e-10
1.97939e-09
2.17481e-09
1.10428e-09
2.96072e-10
2.72634e-10
3.52564e-10
1.44504e-09
3.12025e-09
3.32533e-09
2.81699e-09
2.89674e-09
2.82174e-09
1.84139e-09
5.51298e-10
1.29743e-10
2.58983e-10
6.89464e-10
1.37744e-09
1.63924e-09
1.68177e-09
4.04096e-10
5.23843e-10
5.60904e-10
1.20933e-09
1.74104e-09
1.21447e-09
8.73368e-10
1.29297e-09
1.83459e-09
2.49525e-09
5.67898e-09
8.06024e-09
3.60343e-09
2.2047e-10
2.61771e-10
2.41294e-10
2.93486e-10
5.00023e-10
4.77981e-10
9.22884e-10
1.99206e-09
2.11544e-09
1.01849e-09
2.79033e-10
2.8614e-10
3.83304e-10
1.44555e-09
3.04811e-09
3.40104e-09
2.95668e-09
3.07408e-09
3.03664e-09
2.00006e-09
5.53292e-10
1.06186e-10
2.37735e-10
7.41447e-10
1.69625e-09
1.86263e-09
1.63635e-09
3.07763e-10
5.79475e-10
5.31461e-10
1.18404e-09
1.67785e-09
1.17847e-09
9.85728e-10
1.43359e-09
1.72993e-09
1.91536e-09
5.34356e-09
9.4438e-09
4.89957e-09
3.5383e-10
3.4915e-10
3.78833e-10
2.52294e-10
5.61749e-10
5.16738e-10
8.6597e-10
1.92236e-09
2.08605e-09
1.03893e-09
2.87255e-10
3.24156e-10
3.84985e-10
1.52887e-09
3.04274e-09
3.44878e-09
3.11756e-09
3.32007e-09
3.26345e-09
2.122e-09
5.63335e-10
1.03987e-10
2.66057e-10
7.51012e-10
2.25449e-09
2.62545e-09
1.89036e-09
2.35267e-10
7.84148e-10
5.64072e-10
1.19873e-09
1.71895e-09
1.05774e-09
9.42248e-10
1.64653e-09
1.74951e-09
1.27784e-09
4.24004e-09
1.05871e-08
6.92418e-09
6.97728e-10
3.20654e-10
6.71414e-10
2.13299e-10
6.05787e-10
5.7899e-10
8.03985e-10
1.80469e-09
2.05979e-09
1.10358e-09
3.22025e-10
2.94237e-10
3.31942e-10
1.37409e-09
3.00998e-09
3.44762e-09
3.21894e-09
3.6415e-09
3.51994e-09
2.10959e-09
4.97992e-10
1.46742e-10
3.67511e-10
7.98776e-10
3.15132e-09
4.01321e-09
2.60456e-09
2.19002e-10
9.9868e-10
6.07867e-10
1.17432e-09
1.7545e-09
9.35645e-10
8.85712e-10
1.77083e-09
1.99909e-09
8.86102e-10
2.77197e-09
1.07808e-08
9.65534e-09
1.48542e-09
1.54022e-10
9.60906e-10
2.0665e-10
5.7068e-10
6.47616e-10
7.78336e-10
1.66367e-09
2.06044e-09
1.23753e-09
3.74016e-10
2.57092e-10
3.10824e-10
1.18144e-09
2.63171e-09
3.0893e-09
3.11289e-09
3.86972e-09
3.82962e-09
2.0675e-09
3.97566e-10
2.67966e-10
6.13444e-10
7.76382e-10
4.33605e-09
6.16542e-09
3.67568e-09
4.06722e-10
9.85252e-10
5.7313e-10
1.00063e-09
1.39622e-09
7.0324e-10
8.59746e-10
1.92478e-09
2.3217e-09
7.77588e-10
1.59678e-09
9.46054e-09
1.24215e-08
3.01719e-09
1.55329e-10
8.4625e-10
3.17528e-10
4.25367e-10
6.63086e-10
7.92308e-10
1.55253e-09
2.09469e-09
1.30165e-09
4.82261e-10
2.37152e-10
3.59323e-10
1.22364e-09
2.36027e-09
2.47792e-09
2.56542e-09
3.5408e-09
3.96763e-09
2.05091e-09
3.65999e-10
3.68915e-10
9.62708e-10
6.84839e-10
4.80121e-09
8.5279e-09
5.19283e-09
7.69416e-10
6.00189e-10
4.57922e-10
7.35906e-10
9.05016e-10
4.8193e-10
7.4952e-10
2.04425e-09
2.66707e-09
9.62259e-10
9.82648e-10
7.10552e-09
1.37966e-08
5.24056e-09
6.02264e-10
4.04976e-10
3.41314e-10
3.08272e-10
6.34426e-10
8.13617e-10
1.43526e-09
2.12043e-09
1.4079e-09
5.18222e-10
2.70117e-10
4.43472e-10
1.54161e-09
2.60441e-09
1.86702e-09
1.76209e-09
2.8201e-09
3.34206e-09
1.80319e-09
4.86277e-10
3.18629e-10
1.10449e-09
8.24204e-10
3.66746e-09
9.52715e-09
6.83912e-09
1.50111e-09
3.20866e-10
3.00413e-10
4.75685e-10
5.23822e-10
3.08273e-10
6.35296e-10
2.0098e-09
2.76174e-09
1.47877e-09
7.5294e-10
4.66927e-09
1.2642e-08
7.53954e-09
1.46594e-09
1.34651e-10
2.19151e-10
1.88492e-10
6.73778e-10
8.71328e-10
1.27483e-09
1.97417e-09
1.51269e-09
5.19701e-10
2.60738e-10
4.36314e-10
1.8236e-09
3.17353e-09
1.79717e-09
1.24347e-09
2.29796e-09
2.80547e-09
1.58084e-09
5.8512e-10
1.87986e-10
7.35154e-10
1.07189e-09
2.01517e-09
8.15504e-09
7.79405e-09
2.70939e-09
5.57911e-10
3.02675e-10
3.18137e-10
2.99214e-10
3.27589e-10
5.44197e-10
1.77544e-09
2.58458e-09
2.02018e-09
8.47006e-10
2.91966e-09
9.51382e-09
8.55983e-09
2.39404e-09
2.61917e-10
1.50509e-10
1.72967e-10
7.20294e-10
1.12443e-09
1.25828e-09
1.73773e-09
1.55396e-09
5.51713e-10
2.63204e-10
4.26914e-10
1.56032e-09
3.06393e-09
2.19215e-09
1.37409e-09
2.26766e-09
2.99365e-09
1.23229e-09
4.67721e-10
1.64751e-10
2.93839e-10
9.0407e-10
1.06708e-09
5.79851e-09
7.86386e-09
4.16437e-09
1.30328e-09
4.13999e-10
2.70228e-10
2.34222e-10
2.82475e-10
4.71285e-10
1.44592e-09
2.24017e-09
2.36616e-09
1.26226e-09
1.85535e-09
5.96368e-09
7.5822e-09
2.90476e-09
8.11969e-10
2.14068e-10
1.74577e-10
8.06118e-10
1.5664e-09
1.51917e-09
1.37984e-09
1.28313e-09
5.96332e-10
2.31401e-10
3.52161e-10
1.0727e-09
2.38429e-09
2.37058e-09
1.78448e-09
2.58827e-09
3.36049e-09
1.24643e-09
2.52895e-10
2.40077e-10
9.50586e-11
7.04499e-10
8.49891e-10
3.53819e-09
6.61576e-09
5.35974e-09
2.34764e-09
6.04318e-10
2.33253e-10
2.12896e-10
2.72938e-10
3.2834e-10
9.47424e-10
2.02985e-09
2.77488e-09
1.67703e-09
1.41733e-09
3.5596e-09
5.49158e-09
2.88988e-09
1.44054e-09
4.48763e-10
2.19537e-10
8.94202e-10
1.99969e-09
2.05069e-09
1.41259e-09
9.28313e-10
5.50784e-10
2.21287e-10
2.69737e-10
8.35484e-10
1.94901e-09
2.22003e-09
1.89831e-09
2.71511e-09
3.52454e-09
1.37987e-09
4.16253e-10
3.14885e-10
3.98188e-10
2.44345e-10
5.33431e-10
1.98224e-09
4.66029e-09
5.19366e-09
3.19837e-09
1.00365e-09
2.70847e-10
1.88096e-10
2.1781e-10
3.08749e-10
7.17148e-10
1.50954e-09
2.93177e-09
2.19814e-09
1.31228e-09
2.30079e-09
3.87071e-09
2.16427e-09
1.74041e-09
8.75304e-10
3.7462e-10
1.0076e-09
2.39609e-09
2.55496e-09
1.60327e-09
7.88699e-10
4.69445e-10
2.22478e-10
2.31488e-10
5.81619e-10
1.98225e-09
2.45688e-09
1.95096e-09
2.38091e-09
3.27431e-09
1.18434e-09
3.68175e-10
2.69965e-10
6.79963e-10
1.59572e-10
3.52787e-10
1.25705e-09
3.42127e-09
4.67134e-09
3.23113e-09
1.13733e-09
3.93324e-10
3.41975e-10
4.01002e-10
4.08546e-10
7.21819e-10
1.88754e-09
3.31992e-09
2.66976e-09
1.25867e-09
1.37713e-09
2.31022e-09
1.67859e-09
1.26953e-09
8.09767e-10
7.54606e-10
1.50046e-09
2.79671e-09
2.97645e-09
2.05807e-09
1.1097e-09
4.90964e-10
2.05358e-10
1.98061e-10
3.31878e-10
1.44916e-09
2.39326e-09
2.10744e-09
2.09704e-09
2.97711e-09
1.63999e-09
4.75665e-10
3.71573e-10
6.18181e-10
2.1521e-10
2.75766e-10
1.26358e-09
3.4674e-09
4.26439e-09
2.67379e-09
1.10614e-09
5.47741e-10
3.9241e-10
4.01384e-10
4.66943e-10
9.79796e-10
2.20786e-09
3.51345e-09
3.12771e-09
1.58817e-09
9.12257e-10
1.50171e-09
1.13426e-09
1.17426e-09
7.54072e-10
6.445e-10
1.37104e-09
2.48504e-09
2.72133e-09
2.33031e-09
1.75044e-09
1.07497e-09
4.21932e-10
9.46145e-11
1.19003e-10
6.02444e-10
1.74921e-09
1.59929e-09
1.27131e-09
2.33848e-09
2.93325e-09
1.22292e-09
4.12739e-10
3.12641e-10
1.2111e-10
1.62487e-10
1.21526e-09
4.18746e-09
4.74571e-09
2.63556e-09
1.10386e-09
6.38069e-10
4.53841e-10
4.10092e-10
3.94575e-10
9.17313e-10
2.213e-09
3.0908e-09
3.07002e-09
2.1393e-09
1.29216e-09
9.63432e-10
6.37391e-10
5.59696e-10
7.01718e-10
1.03512e-09
1.81116e-09
2.31328e-09
2.11405e-09
2.00141e-09
2.0362e-09
1.638e-09
8.90524e-10
3.4018e-10
1.67212e-10
2.45765e-10
8.41102e-10
1.20884e-09
1.0434e-09
1.46524e-09
2.76575e-09
2.241e-09
6.97402e-10
1.29959e-10
7.22274e-11
1.36318e-10
1.35397e-09
5.31832e-09
6.46259e-09
3.17787e-09
8.81351e-10
3.86529e-10
3.46671e-10
4.27315e-10
6.50863e-10
1.17651e-09
2.00339e-09
2.44855e-09
2.89101e-09
2.86701e-09
1.91811e-09
1.00047e-09
1.14771e-09
6.91521e-10
6.4087e-10
1.00978e-09
1.66152e-09
2.01391e-09
1.94998e-09
1.85616e-09
1.77451e-09
1.44636e-09
1.09831e-09
8.49223e-10
6.02098e-10
4.38171e-10
4.03387e-10
6.5243e-10
9.19268e-10
1.37557e-09
2.25991e-09
2.08484e-09
9.31742e-10
3.01439e-10
8.53923e-11
2.12308e-10
1.16803e-09
5.23987e-09
7.56816e-09
4.61801e-09
1.05703e-09
2.77951e-10
4.90304e-10
6.68837e-10
7.29844e-10
1.29814e-09
2.34914e-09
2.05004e-09
1.80317e-09
2.37963e-09
3.05779e-09
2.37976e-09
2.3649e-09
1.69997e-09
1.02116e-09
9.91404e-10
1.14521e-09
1.29096e-09
1.62362e-09
1.96759e-09
1.72818e-09
1.20055e-09
9.91017e-10
9.94e-10
1.00151e-09
8.37595e-10
5.6155e-10
5.38422e-10
8.07072e-10
1.30439e-09
1.77633e-09
1.72796e-09
1.14617e-09
5.78894e-10
1.9255e-10
1.25212e-10
8.64506e-10
3.51255e-09
5.69936e-09
4.30847e-09
1.77851e-09
6.17524e-10
5.74716e-10
7.32362e-10
9.34805e-10
1.4759e-09
1.89602e-09
1.5882e-09
1.1143e-09
1.64647e-09
2.52421e-09
2.65845e-09
2.73069e-09
1.25126e-09
6.64117e-10
5.15454e-10
6.06089e-10
8.36829e-10
1.32462e-09
1.90857e-09
1.87791e-09
1.44045e-09
1.23958e-09
1.11182e-09
8.8879e-10
6.73018e-10
7.0635e-10
7.32517e-10
7.85542e-10
1.12562e-09
1.73746e-09
1.9354e-09
1.60829e-09
1.06302e-09
4.67216e-10
2.10429e-10
5.78829e-10
2.19484e-09
4.29227e-09
3.91949e-09
1.91834e-09
7.77921e-10
5.08351e-10
5.99097e-10
7.33697e-10
1.19592e-09
1.58569e-09
1.38439e-09
1.05423e-09
1.5472e-09
2.98622e-09
3.8228e-09
3.81173e-09
1.91759e-09
7.54948e-10
4.50995e-10
5.37556e-10
8.75988e-10
1.39185e-09
1.92039e-09
1.8512e-09
1.21736e-09
8.57027e-10
9.85624e-10
1.27049e-09
1.16661e-09
7.43243e-10
5.0995e-10
5.81481e-10
1.05139e-09
2.02046e-09
2.91332e-09
2.6061e-09
1.76143e-09
1.1938e-09
5.01647e-10
2.35151e-10
1.06809e-09
2.77127e-09
3.18823e-09
1.96576e-09
8.72489e-10
6.13692e-10
8.32128e-10
1.06041e-09
1.18842e-09
1.12151e-09
9.85908e-10
9.09126e-10
1.74562e-09
3.19469e-09
4.4163e-09
3.41767e-10
2.08729e-15
5.21062e-11
1.4364e-10
3.45641e-10
9.69749e-10
1.98936e-09
1.92335e-09
7.39947e-10
1.42907e-10
2.06358e-10
8.40547e-10
2.03912e-09
2.445e-09
1.87057e-09
1.71e-09
2.20391e-09
2.62619e-09
2.0715e-09
8.28931e-10
1.41961e-10
2.87564e-10
3.71856e-10
9.87348e-10
1.84123e-09
2.07062e-09
1.70184e-09
1.01923e-09
7.65525e-10
7.49777e-10
7.02643e-10
7.58755e-10
1.10715e-09
1.71341e-09
1.75304e-09
2.44706e-09
5.48591e-09
9.10011e-09
7.73317e-09
2.80082e-09
3.67176e-10
2.70413e-13
4.83505e-11
1.39901e-10
3.40654e-10
9.66114e-10
1.98181e-09
1.93328e-09
7.42795e-10
1.37691e-10
2.00292e-10
8.33067e-10
2.035e-09
2.43952e-09
1.85593e-09
1.69634e-09
2.19699e-09
2.62551e-09
2.08326e-09
8.42084e-10
1.39351e-10
2.7081e-10
3.56027e-10
9.71191e-10
1.82036e-09
2.04086e-09
1.67457e-09
1.01058e-09
7.68056e-10
7.52064e-10
6.87643e-10
7.26776e-10
1.07229e-09
1.68896e-09
1.73951e-09
2.47427e-09
5.47989e-09
9.14681e-09
7.84808e-09
2.8936e-09
3.73996e-10
3.00419e-13
5.20132e-11
1.4233e-10
3.35602e-10
9.58286e-10
2.00617e-09
1.97735e-09
7.6097e-10
1.34697e-10
1.92414e-10
8.25261e-10
2.04114e-09
2.44164e-09
1.83351e-09
1.66995e-09
2.18339e-09
2.63447e-09
2.10268e-09
8.5462e-10
1.41036e-10
2.73223e-10
3.60616e-10
9.83219e-10
1.83972e-09
2.03797e-09
1.66302e-09
1.02009e-09
7.91755e-10
7.77766e-10
6.7461e-10
6.71645e-10
1.01298e-09
1.65729e-09
1.72175e-09
2.4421e-09
5.46185e-09
9.32404e-09
8.12555e-09
3.02056e-09
3.48705e-10
2.47341e-12
5.85142e-11
1.43067e-10
3.2746e-10
9.47454e-10
2.03208e-09
2.05763e-09
7.99884e-10
1.34541e-10
1.8202e-10
8.16938e-10
2.06793e-09
2.46267e-09
1.80451e-09
1.62783e-09
2.16583e-09
2.65374e-09
2.13073e-09
8.5501e-10
1.34333e-10
2.76659e-10
3.56685e-10
9.91393e-10
1.87497e-09
2.05407e-09
1.65976e-09
1.03164e-09
8.227e-10
8.26316e-10
6.83299e-10
6.10042e-10
9.27588e-10
1.6134e-09
1.70767e-09
2.37776e-09
5.50144e-09
9.75438e-09
8.64194e-09
3.16756e-09
2.97283e-10
1.38126e-11
7.22915e-11
1.44278e-10
3.16363e-10
9.284e-10
2.03818e-09
2.10149e-09
8.56526e-10
1.46211e-10
1.77791e-10
8.04413e-10
2.10619e-09
2.51141e-09
1.77823e-09
1.57137e-09
2.15042e-09
2.68617e-09
2.16339e-09
8.48165e-10
1.24687e-10
2.90199e-10
3.5892e-10
9.96366e-10
1.89866e-09
2.0812e-09
1.67612e-09
1.04285e-09
8.47649e-10
8.88951e-10
7.33008e-10
5.80542e-10
8.31604e-10
1.51582e-09
1.62368e-09
2.27251e-09
5.51801e-09
1.04647e-08
9.46046e-09
3.3471e-09
2.30066e-10
4.12276e-11
8.48338e-11
1.45762e-10
3.0515e-10
9.01043e-10
1.98963e-09
2.05853e-09
8.69768e-10
1.68902e-10
1.98054e-10
8.10636e-10
2.12522e-09
2.57174e-09
1.76502e-09
1.50967e-09
2.12855e-09
2.73738e-09
2.22269e-09
8.50046e-10
1.1961e-10
3.0776e-10
3.55262e-10
1.01293e-09
1.88831e-09
2.03098e-09
1.66325e-09
1.04042e-09
8.51812e-10
9.38721e-10
8.16284e-10
6.13392e-10
7.86164e-10
1.37551e-09
1.44548e-09
2.05881e-09
5.55803e-09
1.13625e-08
1.0672e-08
3.63492e-09
1.80801e-10
1.04025e-10
9.8132e-11
1.3193e-10
2.85671e-10
8.65912e-10
1.93558e-09
1.94609e-09
8.02084e-10
1.74913e-10
2.43769e-10
9.02682e-10
2.15369e-09
2.59823e-09
1.74983e-09
1.44897e-09
2.10786e-09
2.8152e-09
2.34593e-09
8.9584e-10
1.14899e-10
3.48011e-10
3.31766e-10
1.01569e-09
1.86455e-09
1.8725e-09
1.53446e-09
9.86826e-10
8.1962e-10
9.35638e-10
8.94023e-10
7.03052e-10
8.39895e-10
1.31718e-09
1.15865e-09
1.64284e-09
5.41936e-09
1.25823e-08
1.21907e-08
4.24956e-09
2.57799e-10
2.00281e-10
1.50769e-10
1.33125e-10
2.85149e-10
8.15403e-10
1.88407e-09
1.91616e-09
8.21468e-10
1.81097e-10
2.47387e-10
1.01094e-09
2.26373e-09
2.62769e-09
1.72218e-09
1.38358e-09
2.09359e-09
2.92375e-09
2.55641e-09
1.03281e-09
1.06017e-10
4.33817e-10
3.0928e-10
1.03202e-09
1.888e-09
1.69909e-09
1.30187e-09
8.23466e-10
7.34395e-10
8.77147e-10
8.76268e-10
7.89551e-10
9.88717e-10
1.42709e-09
9.36419e-10
1.12224e-09
4.71641e-09
1.37298e-08
1.41325e-08
5.20324e-09
5.15652e-10
2.75295e-10
2.3492e-10
1.43671e-10
2.92025e-10
7.59549e-10
1.79688e-09
1.92059e-09
9.49439e-10
2.36473e-10
2.3937e-10
9.5958e-10
2.28062e-09
2.66418e-09
1.70468e-09
1.32223e-09
2.08848e-09
3.03718e-09
2.78e-09
1.25601e-09
9.80886e-11
5.3087e-10
3.34234e-10
9.585e-10
2.03467e-09
1.65011e-09
1.12911e-09
6.00273e-10
5.56246e-10
8.25755e-10
9.30349e-10
7.38722e-10
1.0351e-09
1.6712e-09
9.01318e-10
7.89875e-10
3.44243e-09
1.4178e-08
1.65163e-08
6.52224e-09
9.00811e-10
2.70784e-10
3.34817e-10
1.36641e-10
2.72984e-10
6.87471e-10
1.7068e-09
1.91563e-09
1.0615e-09
3.44003e-10
2.93053e-10
9.30123e-10
2.09695e-09
2.56725e-09
1.68386e-09
1.28133e-09
2.11511e-09
3.13021e-09
2.837e-09
1.43172e-09
1.29962e-10
4.51838e-10
3.5303e-10
8.25609e-10
2.20047e-09
1.71479e-09
1.08701e-09
4.23484e-10
4.35308e-10
7.67399e-10
1.05344e-09
7.80906e-10
1.02103e-09
1.74311e-09
1.04764e-09
6.28306e-10
2.15222e-09
1.33058e-08
1.91669e-08
8.54752e-09
1.63507e-09
1.78098e-10
4.5798e-10
1.61534e-10
2.28529e-10
6.30306e-10
1.65302e-09
1.92946e-09
1.15309e-09
4.58515e-10
3.78995e-10
1.01632e-09
2.00214e-09
2.32873e-09
1.51774e-09
1.19257e-09
2.13555e-09
3.21083e-09
2.63687e-09
1.27386e-09
1.57015e-10
2.93749e-10
2.8709e-10
7.8492e-10
2.40566e-09
1.97636e-09
1.05564e-09
3.35724e-10
4.15833e-10
7.02083e-10
1.15414e-09
8.6551e-10
9.45279e-10
1.9537e-09
1.34197e-09
5.17425e-10
1.35959e-09
1.10885e-08
2.11265e-08
1.14747e-08
3.01871e-09
9.48016e-11
4.50289e-10
2.1015e-10
1.6966e-10
5.47247e-10
1.64211e-09
2.03515e-09
1.26477e-09
4.91535e-10
4.20702e-10
1.12368e-09
2.10542e-09
2.23961e-09
1.34688e-09
1.0016e-09
1.95107e-09
3.18402e-09
2.32293e-09
8.64512e-10
1.03027e-10
2.17915e-10
2.28803e-10
8.35877e-10
2.65951e-09
2.38201e-09
1.22071e-09
3.43274e-10
4.51455e-10
5.86243e-10
1.05088e-09
8.90819e-10
9.29753e-10
1.82666e-09
1.76386e-09
5.62911e-10
1.01035e-09
8.37589e-09
2.09994e-08
1.45667e-08
4.87386e-09
2.6556e-10
2.58411e-10
2.64413e-10
1.16061e-10
4.22553e-10
1.56272e-09
2.14416e-09
1.35184e-09
4.3591e-10
3.80823e-10
1.18135e-09
2.36514e-09
2.34486e-09
1.23151e-09
7.69805e-10
1.69788e-09
3.03172e-09
2.01504e-09
5.81411e-10
7.70783e-11
2.43609e-10
2.9304e-10
6.95693e-10
2.67306e-09
2.73672e-09
1.56575e-09
5.83893e-10
3.79194e-10
5.90435e-10
7.75683e-10
8.14928e-10
8.79379e-10
1.76197e-09
1.98694e-09
7.40173e-10
8.57718e-10
5.7775e-09
1.85284e-08
1.63999e-08
6.33138e-09
8.00011e-10
6.46937e-11
1.69903e-10
8.66411e-11
3.27316e-10
1.38749e-09
2.10553e-09
1.36825e-09
3.47979e-10
2.92634e-10
1.11786e-09
2.55141e-09
2.53556e-09
1.23764e-09
6.98714e-10
1.6181e-09
2.79974e-09
1.70614e-09
4.80959e-10
1.16489e-10
1.45467e-10
2.53344e-10
3.45493e-10
2.12453e-09
2.77847e-09
2.00989e-09
1.07065e-09
4.37641e-10
4.98366e-10
6.03489e-10
6.69579e-10
7.99983e-10
1.5948e-09
2.17193e-09
9.10346e-10
7.65701e-10
3.51262e-09
1.43903e-08
1.59303e-08
6.90016e-09
1.55783e-09
9.89436e-11
6.84285e-11
5.98942e-11
3.12517e-10
1.22277e-09
1.93332e-09
1.27519e-09
3.23196e-10
2.51027e-10
8.83034e-10
2.11341e-09
2.34557e-09
1.52248e-09
1.25546e-09
2.15068e-09
2.63767e-09
1.35638e-09
3.7671e-10
2.61563e-10
1.75285e-10
2.09824e-10
1.37054e-10
1.49445e-09
2.83667e-09
2.49985e-09
1.50014e-09
6.99818e-10
5.19168e-10
4.89743e-10
4.76862e-10
5.78057e-10
1.28258e-09
2.18122e-09
1.18049e-09
6.81709e-10
1.94404e-09
9.46619e-09
1.33027e-08
6.01082e-09
2.22325e-09
4.52815e-10
4.66604e-11
1.1086e-10
4.12753e-10
1.159e-09
1.53477e-09
1.05374e-09
3.14687e-10
2.02843e-10
6.8215e-10
1.74248e-09
2.10184e-09
1.76069e-09
1.832e-09
3.08089e-09
2.95587e-09
9.83884e-10
1.33095e-10
3.40572e-10
4.90862e-10
2.79689e-10
1.7537e-10
9.33846e-10
2.92726e-09
3.281e-09
2.09824e-09
9.01887e-10
6.01992e-10
5.51401e-10
5.84649e-10
6.78898e-10
9.82926e-10
2.14303e-09
1.86104e-09
9.51771e-10
1.26978e-09
5.36186e-09
8.95854e-09
4.42658e-09
2.06969e-09
9.46751e-10
4.62953e-10
6.15676e-10
8.40188e-10
1.07857e-09
1.29246e-09
7.51756e-10
2.54544e-10
1.92489e-10
5.45093e-10
1.50865e-09
1.94098e-09
1.88265e-09
2.01728e-09
3.06398e-09
3.37731e-09
1.10444e-09
9.54179e-11
2.54561e-10
8.47555e-10
4.23747e-10
1.60703e-10
6.30491e-10
2.77671e-09
3.54289e-09
2.33496e-09
1.1555e-09
6.73115e-10
5.60081e-10
5.35989e-10
6.54471e-10
9.92565e-10
1.96269e-09
2.67727e-09
1.52108e-09
1.08752e-09
2.89834e-09
5.98558e-09
3.1905e-09
1.82723e-09
1.24218e-09
1.0436e-09
1.57785e-09
1.71388e-09
1.59323e-09
1.46403e-09
6.87732e-10
2.62276e-10
2.07532e-10
3.99625e-10
1.15316e-09
1.92264e-09
2.16264e-09
2.06905e-09
2.45946e-09
3.15654e-09
1.55357e-09
1.48417e-10
1.71474e-10
6.93534e-10
5.78212e-10
3.5794e-10
6.49663e-10
2.48248e-09
3.54056e-09
2.45625e-09
1.30665e-09
8.13111e-10
6.63236e-10
6.66944e-10
7.37468e-10
9.79427e-10
2.00818e-09
3.25667e-09
2.03403e-09
1.10278e-09
1.4753e-09
3.26709e-09
2.40447e-09
1.59287e-09
9.85478e-10
1.53973e-09
2.68517e-09
3.13185e-09
2.23e-09
1.71991e-09
9.88184e-10
3.36986e-10
2.09734e-10
3.41527e-10
5.95246e-10
1.75223e-09
2.74181e-09
2.36966e-09
1.92377e-09
2.52513e-09
1.99809e-09
5.08173e-10
2.43086e-10
5.13316e-10
5.45213e-10
4.43847e-10
1.02452e-09
2.74044e-09
3.29265e-09
2.23078e-09
1.37606e-09
9.44388e-10
7.18654e-10
7.09623e-10
7.77031e-10
1.18521e-09
2.14408e-09
3.42149e-09
2.83324e-09
1.20786e-09
7.97685e-10
1.73391e-09
1.50248e-09
1.35001e-09
9.7967e-10
1.18301e-09
1.95162e-09
2.96497e-09
2.92621e-09
2.35288e-09
1.70498e-09
8.65199e-10
2.32764e-10
1.09152e-10
2.30525e-10
6.69953e-10
1.67284e-09
2.19813e-09
1.69712e-09
2.07103e-09
2.73222e-09
1.45091e-09
3.02315e-10
1.20217e-10
3.15434e-10
5.09253e-10
1.33541e-09
3.33753e-09
3.27736e-09
1.9501e-09
1.31017e-09
9.48222e-10
7.46765e-10
6.99893e-10
6.2135e-10
9.45051e-10
1.81328e-09
2.77512e-09
2.99856e-09
1.85386e-09
8.15114e-10
8.77853e-10
8.75006e-10
9.59364e-10
8.34278e-10
1.1973e-09
2.41578e-09
3.06538e-09
2.53562e-09
2.27847e-09
2.27255e-09
1.52857e-09
6.20714e-10
2.70312e-10
2.62627e-10
3.67025e-10
6.7376e-10
1.1744e-09
1.40964e-09
1.8617e-09
2.5431e-09
1.99262e-09
6.39421e-10
1.64203e-10
1.76593e-10
3.24885e-10
1.43494e-09
3.56561e-09
3.74247e-09
2.10097e-09
1.05982e-09
7.08976e-10
6.54776e-10
7.14602e-10
9.2737e-10
1.30142e-09
1.58931e-09
1.88533e-09
2.75531e-09
2.71143e-09
1.33281e-09
7.029e-10
9.34809e-10
8.15794e-10
8.72563e-10
1.34273e-09
2.35668e-09
2.73482e-09
2.17122e-09
1.72958e-09
1.81568e-09
1.83036e-09
1.39e-09
9.07668e-10
5.27864e-10
3.02846e-10
2.81674e-10
4.48343e-10
8.30243e-10
1.36925e-09
1.86585e-09
1.65921e-09
8.92488e-10
3.67603e-10
2.4168e-10
3.94365e-10
1.20301e-09
3.39258e-09
4.36307e-09
2.93811e-09
1.29849e-09
4.92172e-10
4.81074e-10
5.97585e-10
9.34286e-10
1.49377e-09
1.75003e-09
1.5464e-09
1.5648e-09
2.40261e-09
2.6203e-09
1.60083e-09
1.56349e-09
1.19701e-09
1.12893e-09
1.3634e-09
1.84363e-09
1.8336e-09
1.70436e-09
1.68382e-09
1.47638e-09
1.18221e-09
1.19837e-09
1.35536e-09
1.44189e-09
1.18052e-09
6.64333e-10
4.1953e-10
6.42556e-10
1.2251e-09
1.63874e-09
1.32375e-09
7.60394e-10
4.14827e-10
2.88994e-10
3.5543e-10
9.85427e-10
2.67797e-09
4.06954e-09
3.35905e-09
1.6363e-09
5.71505e-10
4.85369e-10
5.55808e-10
8.94499e-10
1.55781e-09
1.74429e-09
1.21009e-09
1.00888e-09
1.71175e-09
2.48623e-09
2.18369e-09
2.28498e-09
1.41809e-09
1.08526e-09
9.48053e-10
9.76032e-10
9.38963e-10
1.15462e-09
1.7261e-09
1.92424e-09
1.55837e-09
1.12927e-09
9.33526e-10
1.01405e-09
1.02331e-09
9.70723e-10
8.53847e-10
8.65266e-10
1.168e-09
1.50652e-09
1.53458e-09
1.22877e-09
7.94086e-10
4.75245e-10
4.03293e-10
7.46906e-10
1.84657e-09
3.34572e-09
3.26885e-09
1.71924e-09
7.44374e-10
5.62536e-10
5.98422e-10
7.44604e-10
1.22598e-09
1.54077e-09
1.22249e-09
9.33048e-10
1.51816e-09
2.75425e-09
3.07666e-09
3.41088e-09
2.00728e-09
8.74272e-10
4.92084e-10
4.83522e-10
6.99845e-10
1.13399e-09
1.74532e-09
1.94461e-09
1.40173e-09
9.11878e-10
9.42976e-10
1.16944e-09
1.16261e-09
9.04207e-10
7.12538e-10
7.75117e-10
1.18789e-09
1.94294e-09
2.58049e-09
2.24464e-09
1.43253e-09
8.58237e-10
5.04473e-10
4.24178e-10
1.11282e-09
2.43071e-09
2.69052e-09
1.64289e-09
9.49421e-10
8.47973e-10
1.04203e-09
1.18953e-09
1.27204e-09
1.12891e-09
9.6888e-10
9.42517e-10
1.76816e-09
3.23158e-09
4.105e-09
2.0851e-09
6.84833e-10
3.04398e-10
2.0494e-10
1.94528e-10
5.67781e-10
1.39954e-09
1.83923e-09
1.08177e-09
4.05061e-10
4.30947e-10
1.00768e-09
1.66702e-09
1.59628e-09
1.24372e-09
1.28493e-09
1.88098e-09
2.09718e-09
1.5747e-09
7.48998e-10
1.83008e-10
2.91869e-10
4.15652e-10
6.53851e-10
1.26875e-09
1.87044e-09
1.74945e-09
9.1035e-10
4.67445e-10
4.67092e-10
9.98123e-10
1.97808e-09
2.63897e-09
3.57875e-09
3.05755e-09
2.71971e-09
3.70213e-09
4.96453e-09
5.10337e-09
4.23723e-09
2.11153e-09
6.95562e-10
3.03855e-10
2.06089e-10
1.95478e-10
5.65832e-10
1.39226e-09
1.83579e-09
1.08504e-09
4.07633e-10
4.32649e-10
1.01084e-09
1.67642e-09
1.60804e-09
1.248e-09
1.28383e-09
1.88072e-09
2.10757e-09
1.58563e-09
7.55481e-10
1.81814e-10
2.80637e-10
4.04018e-10
6.48271e-10
1.26556e-09
1.87072e-09
1.77002e-09
9.2341e-10
4.59795e-10
4.44993e-10
9.52348e-10
1.92801e-09
2.59057e-09
3.60596e-09
3.0455e-09
2.69863e-09
3.72203e-09
5.00858e-09
5.17129e-09
4.29675e-09
2.1373e-09
6.91716e-10
2.94065e-10
2.0318e-10
1.93038e-10
5.58739e-10
1.38298e-09
1.84621e-09
1.1014e-09
4.10278e-10
4.31359e-10
1.01638e-09
1.69133e-09
1.61736e-09
1.24856e-09
1.2835e-09
1.87977e-09
2.1242e-09
1.599e-09
7.63582e-10
1.84634e-10
2.82081e-10
4.10764e-10
6.61916e-10
1.27443e-09
1.87213e-09
1.81452e-09
9.79593e-10
4.94197e-10
4.58967e-10
9.34311e-10
1.89665e-09
2.58705e-09
3.65927e-09
3.06323e-09
2.706e-09
3.74761e-09
5.0808e-09
5.27365e-09
4.38407e-09
2.17209e-09
6.7314e-10
2.77952e-10
1.98677e-10
1.8742e-10
5.47142e-10
1.3761e-09
1.87493e-09
1.1351e-09
4.17041e-10
4.29797e-10
1.02525e-09
1.71177e-09
1.61857e-09
1.23218e-09
1.26749e-09
1.88186e-09
2.14954e-09
1.61069e-09
7.61971e-10
1.79865e-10
2.82217e-10
4.24328e-10
6.73578e-10
1.28902e-09
1.86755e-09
1.85273e-09
1.03586e-09
5.41546e-10
4.88826e-10
8.97765e-10
1.83808e-09
2.54383e-09
3.69791e-09
3.11884e-09
2.75536e-09
3.84789e-09
5.25595e-09
5.45407e-09
4.50301e-09
2.2405e-09
6.42509e-10
2.58256e-10
1.94977e-10
1.80034e-10
5.32194e-10
1.37135e-09
1.91899e-09
1.18594e-09
4.32125e-10
4.31622e-10
1.03483e-09
1.73369e-09
1.61332e-09
1.19622e-09
1.23123e-09
1.88285e-09
2.19979e-09
1.63394e-09
7.5462e-10
1.69315e-10
2.88913e-10
4.40932e-10
6.90115e-10
1.34019e-09
1.88643e-09
1.87773e-09
1.06641e-09
5.88868e-10
5.6067e-10
8.88423e-10
1.81246e-09
2.44931e-09
3.68758e-09
3.19198e-09
2.83699e-09
4.02811e-09
5.54728e-09
5.7195e-09
4.66994e-09
2.34912e-09
6.05886e-10
2.36406e-10
1.91102e-10
1.70844e-10
5.15207e-10
1.36408e-09
1.96721e-09
1.25058e-09
4.64382e-10
4.52397e-10
1.05644e-09
1.75026e-09
1.59457e-09
1.14056e-09
1.16731e-09
1.87789e-09
2.27067e-09
1.67942e-09
7.64607e-10
1.6481e-10
3.21565e-10
4.78089e-10
6.94581e-10
1.40364e-09
1.9777e-09
1.91534e-09
1.04133e-09
5.91301e-10
6.57689e-10
9.25119e-10
1.8292e-09
2.34602e-09
3.54645e-09
3.2444e-09
2.94093e-09
4.31818e-09
5.99951e-09
6.11372e-09
4.88562e-09
2.50478e-09
5.78531e-10
2.11132e-10
1.93588e-10
1.61455e-10
4.92415e-10
1.3405e-09
1.97741e-09
1.29494e-09
5.11794e-10
5.14031e-10
1.13634e-09
1.77435e-09
1.55826e-09
1.06892e-09
1.0745e-09
1.85011e-09
2.34982e-09
1.76295e-09
8.27958e-10
1.7501e-10
3.2302e-10
5.30336e-10
6.79747e-10
1.3541e-09
2.08126e-09
2.05288e-09
1.01954e-09
5.15865e-10
7.02151e-10
1.02225e-09
1.88091e-09
2.35606e-09
3.26007e-09
3.19084e-09
3.02056e-09
4.73816e-09
6.68937e-09
6.69989e-09
5.16038e-09
2.59877e-09
5.88806e-10
1.73067e-10
2.0044e-10
1.63484e-10
4.44105e-10
1.30166e-09
1.95057e-09
1.28637e-09
5.8798e-10
6.35809e-10
1.28809e-09
1.86062e-09
1.5402e-09
9.85392e-10
9.69347e-10
1.8039e-09
2.43379e-09
1.88226e-09
9.65919e-10
2.21877e-10
3.03315e-10
5.51955e-10
6.11902e-10
1.21515e-09
1.98285e-09
2.23256e-09
1.08474e-09
4.96617e-10
5.84441e-10
1.06089e-09
1.95811e-09
2.49606e-09
3.0234e-09
2.9522e-09
2.94751e-09
5.23311e-09
7.73045e-09
7.52457e-09
5.6154e-09
2.77764e-09
6.09689e-10
1.39556e-10
1.96577e-10
1.75452e-10
4.28468e-10
1.29242e-09
1.92365e-09
1.28291e-09
6.13218e-10
6.99393e-10
1.35252e-09
1.93145e-09
1.4968e-09
9.29161e-10
8.71986e-10
1.76431e-09
2.53017e-09
2.02819e-09
1.18824e-09
3.40459e-10
2.84679e-10
6.77446e-10
5.36064e-10
1.09772e-09
1.78189e-09
2.27769e-09
1.19194e-09
5.17921e-10
5.65647e-10
8.63814e-10
1.84246e-09
2.56869e-09
2.94744e-09
2.5627e-09
2.54387e-09
5.59071e-09
9.11351e-09
8.76357e-09
6.30711e-09
3.1491e-09
5.71727e-10
1.1216e-10
1.89802e-10
2.02586e-10
4.45103e-10
1.31468e-09
2.02612e-09
1.34114e-09
6.42927e-10
7.7088e-10
1.38051e-09
1.699e-09
1.23749e-09
7.85661e-10
7.96349e-10
1.72546e-09
2.62006e-09
2.1298e-09
1.45225e-09
6.07722e-10
1.95166e-10
8.33155e-10
4.63187e-10
9.69166e-10
1.67238e-09
2.21802e-09
1.28103e-09
5.73501e-10
6.4388e-10
8.69451e-10
1.58948e-09
2.30451e-09
2.941e-09
2.2853e-09
2.11179e-09
5.22591e-09
1.04071e-08
1.0479e-08
7.36848e-09
4.00532e-09
6.89037e-10
5.90669e-11
1.2993e-10
2.05711e-10
5.16913e-10
1.48609e-09
2.23799e-09
1.46174e-09
7.03809e-10
8.14404e-10
1.36848e-09
1.5747e-09
1.06309e-09
6.08991e-10
6.46819e-10
1.5993e-09
2.67222e-09
2.08383e-09
1.5728e-09
1.01567e-09
1.39364e-10
8.31973e-10
4.82268e-10
8.17776e-10
1.72146e-09
2.36831e-09
1.29903e-09
6.41262e-10
6.55624e-10
1.0274e-09
1.35769e-09
1.80219e-09
2.3808e-09
2.09463e-09
1.79415e-09
4.07129e-09
1.12864e-08
1.21876e-08
8.89075e-09
5.29139e-09
1.14046e-09
8.85956e-11
5.10124e-11
1.33964e-10
5.4256e-10
1.78439e-09
2.59169e-09