/*--------------------------------*- C++ -*----------------------------------*\
| =========                 |                                                 |
| \\      /  F ield         | OpenFOAM: The Open Source CFD Toolbox           |
|  \\    /   O peration     | Version:  2306                                  |
|   \\  /    A nd           | Website:  www.openfoam.com                      |
|    \\/     M anipulation  |                                                 |
\*---------------------------------------------------------------------------*/
FoamFile
{
    version     2.0;
    format      ascii;
    arch        "LSB;label=32;scalar=64";
    class       volVectorField;
    location    "1.5";
    object      U;
}
// * * * * * * * * * * * * * * * * * * * * * * * * * * * * * * * * * * * * * //

dimensions      [0 1 -1 0 0 0 0];

internalField   nonuniform List<vector> 
60000
(
(0.0104372 1.72397e-05 0.00264637)
(0.0103507 -1.05341e-05 0.00235095)
(0.0102181 -2.00805e-05 0.00198511)
(0.0100837 -1.51872e-05 0.00176759)
(0.00994192 -9.33667e-06 0.00165008)
(0.00971222 -9.85637e-06 0.00147727)
(0.00929124 -1.23052e-05 0.00123184)
(0.00856411 -1.16548e-05 0.00103691)
(0.00754201 -1.08321e-05 0.000996387)
(0.00652248 -1.26439e-05 0.00106555)
(0.00588488 -1.85171e-05 0.00116443)
(0.00572155 -2.45632e-05 0.0012293)
(0.00583131 -2.72881e-05 0.00113914)
(0.00598109 -2.42684e-05 0.000848222)
(0.00607771 -1.36168e-05 0.000500146)
(0.0061721 -2.02054e-06 0.000213636)
(0.00636492 9.83797e-06 2.92054e-06)
(0.00666544 1.82439e-05 -0.000183013)
(0.00700959 2.22212e-05 -0.000413635)
(0.00736567 2.09218e-05 -0.000749881)
(0.00777618 1.47376e-05 -0.00119812)
(0.0082974 5.43077e-06 -0.00171154)
(0.00888291 4.63955e-07 -0.00218211)
(0.00936117 -1.76523e-06 -0.00247607)
(0.00951794 -5.08114e-06 -0.00252945)
(0.00920625 -3.67057e-06 -0.00244361)
(0.00846671 4.76917e-06 -0.00231407)
(0.0075705 6.21376e-06 -0.00214483)
(0.0068357 -6.98332e-06 -0.00204169)
(0.0063798 -8.76332e-06 -0.00206477)
(0.00619316 3.50259e-07 -0.00207261)
(0.00627445 7.09487e-06 -0.00183852)
(0.00661303 1.70908e-05 -0.00124246)
(0.0071358 3.05415e-05 -0.000438861)
(0.00774653 4.57662e-05 0.000231895)
(0.00839995 5.24067e-05 0.00064073)
(0.00908643 5.21818e-05 0.000988851)
(0.0097287 5.93875e-05 0.00149042)
(0.0101896 6.36557e-05 0.00211543)
(0.0104095 4.68159e-05 0.00258388)
(0.0322083 -6.80358e-06 0.00677591)
(0.0319942 -0.00013992 0.005865)
(0.0314496 -0.00017858 0.00491102)
(0.0309131 -0.000143862 0.00449361)
(0.0304554 -9.3176e-05 0.00439791)
(0.0297506 -5.4963e-05 0.004096)
(0.0284406 -2.247e-05 0.00346594)
(0.0263042 -3.34801e-06 0.00287589)
(0.0234758 -3.35964e-05 0.002702)
(0.0206525 -0.000127082 0.00292699)
(0.0186896 -0.000230519 0.00324914)
(0.0178754 -0.000279928 0.00332074)
(0.0177748 -0.000263419 0.00290284)
(0.0178665 -0.000196954 0.00209333)
(0.0179995 -0.000102915 0.00126966)
(0.0182813 -1.88072e-05 0.000619808)
(0.0188766 3.79706e-05 0.000107793)
(0.0197964 6.68238e-05 -0.00040211)
(0.0209165 6.87213e-05 -0.00106884)
(0.0221831 3.37475e-05 -0.00201689)
(0.0236825 -2.75354e-05 -0.00326537)
(0.025444 -8.03802e-05 -0.00468727)
(0.0272473 -8.47388e-05 -0.00597119)
(0.0286668 -5.69403e-05 -0.00673738)
(0.0291603 -2.73075e-05 -0.00679817)
(0.0283278 2.68971e-06 -0.00637994)
(0.0263417 2.01001e-05 -0.00582155)
(0.0239141 -2.9471e-05 -0.00535037)
(0.0216816 -0.000120552 -0.00524383)
(0.0199164 -0.000148222 -0.00548005)
(0.018885 -0.000105697 -0.00555319)
(0.0188458 -3.89131e-05 -0.00483695)
(0.0197487 5.795e-05 -0.00315638)
(0.021263 0.000178036 -0.00106059)
(0.0230837 0.000293161 0.000666841)
(0.0250692 0.00033887 0.00184435)
(0.0271314 0.000336633 0.00292612)
(0.0290997 0.000330737 0.00429351)
(0.0307217 0.000295533 0.00581522)
(0.0318001 0.000172138 0.00682338)
(0.0552054 -0.000164976 0.0101749)
(0.0548883 -0.000424027 0.00879338)
(0.0537724 -0.000481021 0.00715503)
(0.052693 -0.000390528 0.00641707)
(0.0519126 -0.00027018 0.00645551)
(0.0508551 -0.000169205 0.00633524)
(0.0489043 -7.97722e-05 0.00555507)
(0.0457926 -3.51093e-05 0.00453229)
(0.0416511 -0.000107886 0.00401595)
(0.0371204 -0.000331376 0.00428676)
(0.0332949 -0.000579837 0.00491771)
(0.0310953 -0.000694385 0.00510732)
(0.0302606 -0.000648139 0.00444484)
(0.0299833 -0.000482571 0.00324663)
(0.0299657 -0.000258519 0.00211381)
(0.0303197 -5.72143e-05 0.00126079)
(0.031244 6.34456e-05 0.000586286)
(0.0327506 0.000107931 -0.000107541)
(0.0346689 8.6286e-05 -0.00103527)
(0.0369268 -3.28108e-05 -0.00238461)
(0.0396485 -0.00020573 -0.00424132)
(0.0428106 -0.000335485 -0.00649286)
(0.0460065 -0.000335494 -0.00868692)
(0.0486072 -0.000253522 -0.0101511)
(0.0498218 -0.000161134 -0.0104241)
(0.0489926 -7.82347e-05 -0.00969751)
(0.0462689 -4.79939e-05 -0.00856098)
(0.042585 -0.000160178 -0.00760481)
(0.0387905 -0.00033253 -0.0073888)
(0.0352961 -0.000380087 -0.00795551)
(0.0326714 -0.000292334 -0.00850862)
(0.0316908 -0.00014155 -0.00786342)
(0.0326146 8.14827e-05 -0.00555891)
(0.0349172 0.000370838 -0.0024305)
(0.0379509 0.000644236 0.000293923)
(0.0413848 0.000754526 0.00228207)
(0.0449965 0.000759103 0.00408948)
(0.0485553 0.00070841 0.00620526)
(0.0517344 0.000560107 0.00849967)
(0.0541149 0.000241272 0.0101022)
(0.0786404 -0.00046527 0.0128397)
(0.0783193 -0.000836927 0.0115055)
(0.0764673 -0.000893385 0.00910484)
(0.0746771 -0.00073258 0.00758798)
(0.073587 -0.000527589 0.00756306)
(0.0724188 -0.000341185 0.00793118)
(0.0702749 -0.000165052 0.0074679)
(0.0668718 -6.70479e-05 0.00614497)
(0.0622398 -0.000161372 0.00500408)
(0.0564923 -0.000507427 0.00499089)
(0.050394 -0.000950314 0.00598313)
(0.0457342 -0.00120368 0.00663976)
(0.0432834 -0.0011647 0.00596315)
(0.0421604 -0.000897224 0.0044484)
(0.041699 -0.000518997 0.00308629)
(0.0418855 -0.000176944 0.00218886)
(0.0429273 2.62612e-05 0.00157511)
(0.0448251 7.66332e-05 0.000975797)
(0.0473736 -4.78866e-06 0.000130904)
(0.0504837 -0.000259895 -0.0012173)
(0.0543719 -0.000625862 -0.00329494)
(0.0590253 -0.000891696 -0.00617811)
(0.0638665 -0.000885446 -0.00944747)
(0.0680622 -0.000705866 -0.0121246)
(0.0706365 -0.000482862 -0.0132399)
(0.0706664 -0.000274982 -0.0126431)
(0.0680509 -0.000192655 -0.0110018)
(0.0636619 -0.000357785 -0.00929821)
(0.0585326 -0.000605223 -0.00855994)
(0.0532378 -0.000664763 -0.00922245)
(0.0484161 -0.00054968 -0.0105602)
(0.0452434 -0.000363763 -0.0108719)
(0.0448879 -5.12495e-05 -0.00890295)
(0.0472519 0.000414851 -0.00530353)
(0.0512919 0.000879203 -0.00175764)
(0.0562619 0.00109953 0.00102377)
(0.061651 0.00111594 0.00355508)
(0.0671212 0.00103353 0.00638526)
(0.0722808 0.000744845 0.00948867)
(0.0764592 0.00017935 0.0120126)
(0.100958 -0.000917987 0.0139755)
(0.100976 -0.00133161 0.0138629)
(0.0982233 -0.00134821 0.0112667)
(0.0954768 -0.00111003 0.00850096)
(0.0940975 -0.000820673 0.00771512)
(0.093166 -0.000548052 0.00852208)
(0.0913772 -0.000272867 0.00898929)
(0.0883987 -0.000105669 0.00789752)
(0.0842768 -0.000167021 0.00600141)
(0.078435 -0.00054273 0.00513223)
(0.0705644 -0.0011455 0.00621149)
(0.0626296 -0.00164157 0.00776919)
(0.0572231 -0.00173509 0.00756615)
(0.0543962 -0.0014278 0.00577403)
(0.0530343 -0.000909294 0.00407996)
(0.0526896 -0.000424195 0.0031917)
(0.0534507 -0.000130708 0.00287397)
(0.0552777 -7.83821e-05 0.00273203)
(0.0578971 -0.0002576 0.0024494)
(0.0612141 -0.000727847 0.0017271)
(0.0656565 -0.00143814 0.000178309)
(0.0715383 -0.00200833 -0.00267956)
(0.0783095 -0.00202864 -0.00687847)
(0.0847964 -0.00161968 -0.0113772)
(0.0896802 -0.00110448 -0.014436)
(0.091753 -0.000647867 -0.0150319)
(0.0904362 -0.000416584 -0.0135)
(0.0862236 -0.000599788 -0.0110767)
(0.0803454 -0.000905285 -0.00936737)
(0.0737434 -0.000942014 -0.00948069)
(0.0670001 -0.000781051 -0.0112298)
(0.0610193 -0.000623109 -0.0129377)
(0.0575909 -0.000370446 -0.0125453)
(0.0580827 0.000121994 -0.00971979)
(0.0619584 0.000700547 -0.00611858)
(0.0680391 0.00100638 -0.00292248)
(0.0753024 0.00103903 0.000209597)
(0.0829671 0.00101238 0.00375086)
(0.0904771 0.00069329 0.00772651)
(0.0970111 -8.5727e-05 0.0115154)
(0.119318 -0.00165042 0.0116231)
(0.120843 -0.00188342 0.0144456)
(0.117219 -0.00176053 0.0135412)
(0.11303 -0.00147101 0.0100127)
(0.11132 -0.00110368 0.00753378)
(0.111129 -0.000751489 0.00793322)
(0.110336 -0.000398258 0.00960328)
(0.108291 -0.000159033 0.00972498)
(0.105476 -0.000151396 0.00748252)
(0.101066 -0.000422688 0.00518355)
(0.093279 -0.00100573 0.00554264)
(0.0827641 -0.00174105 0.00802804)
(0.0732007 -0.00216691 0.00907451)
(0.0671416 -0.00199453 0.00733732)
(0.064057 -0.00140141 0.005074)
(0.0627492 -0.000783516 0.00395616)
(0.0627957 -0.000400982 0.00391974)
(0.0639446 -0.000338121 0.00439959)
(0.0657551 -0.000642184 0.00498692)
(0.067979 -0.00145025 0.00542189)
(0.0712436 -0.00273022 0.00529848)
(0.0766831 -0.00391183 0.00379782)
(0.0845729 -0.00428035 8.73628e-05)
(0.0940526 -0.00371529 -0.00575654)
(0.103165 -0.0025602 -0.0118871)
(0.109263 -0.00139828 -0.015501)
(0.110951 -0.000757007 -0.015565)
(0.108142 -0.000881446 -0.0132274)
(0.102317 -0.00123848 -0.0105922)
(0.0952536 -0.00120224 -0.00952953)
(0.0877809 -0.000911818 -0.0107287)
(0.0801207 -0.000735086 -0.0131416)
(0.0733627 -0.000633856 -0.0147068)
(0.0698102 -0.000346043 -0.0141499)
(0.070767 3.71939e-05 -0.0121099)
(0.0758566 0.000176861 -0.00964894)
(0.0837315 0.00010427 -0.006628)
(0.0930091 9.74032e-05 -0.00277935)
(0.102707 -0.000130576 0.00174201)
(0.112209 -0.000873048 0.00675651)
(0.128229 -0.00334163 0.00387347)
(0.134518 -0.00277016 0.010669)
(0.131442 -0.00198718 0.0140385)
(0.124773 -0.00168211 0.0122813)
(0.122135 -0.00145267 0.00824874)
(0.123513 -0.000988909 0.00674916)
(0.124808 -0.000501829 0.00873278)
(0.123963 -0.000253275 0.0109269)
(0.122485 -0.000230542 0.00965382)
(0.120687 -0.000256607 0.00590164)
(0.115663 -0.000575133 0.00443707)
(0.105618 -0.0012933 0.00704314)
(0.0927696 -0.00210351 0.00983264)
(0.0818409 -0.00235206 0.00906195)
(0.075361 -0.00188433 0.00634018)
(0.0724023 -0.00117995 0.00459673)
(0.0715287 -0.000688856 0.00442161)
(0.0718511 -0.000578228 0.0051418)
(0.072611 -0.000990385 0.00615993)
(0.0732328 -0.00223949 0.00736088)
(0.0740626 -0.00435507 0.00878708)
(0.0768269 -0.00640413 0.00965574)
(0.0829955 -0.00730641 0.00839693)
(0.0925623 -0.00688698 0.00394919)
(0.105125 -0.00543118 -0.00346748)
(0.117852 -0.00324003 -0.0111223)
(0.125575 -0.00155015 -0.0150725)
(0.126031 -0.00131504 -0.0147528)
(0.12112 -0.0017353 -0.0123394)
(0.114449 -0.00154828 -0.0101943)
(0.107682 -0.000892768 -0.00997376)
(0.100594 -0.000570784 -0.0117247)
(0.0929182 -0.000541906 -0.0141023)
(0.0859438 -0.000479257 -0.0159795)
(0.0820213 -0.000614713 -0.0171542)
(0.082977 -0.00111677 -0.017281)
(0.0886797 -0.00165848 -0.0155404)
(0.0971587 -0.00180627 -0.0120892)
(0.106326 -0.00199197 -0.00786923)
(0.116687 -0.00281437 -0.00282799)
(0.126673 -0.00630464 -0.00586293)
(0.138431 -0.00475986 0.00299292)
(0.140006 -0.00226002 0.0106437)
(0.131687 -0.00127648 0.0131141)
(0.125129 -0.00166891 0.0100791)
(0.12717 -0.00159208 0.00629733)
(0.132668 -0.000751357 0.00658276)
(0.134114 -0.000231332 0.0100369)
(0.131781 -0.000463938 0.0114017)
(0.131457 -0.000604542 0.00768355)
(0.131889 -0.00031555 0.00377492)
(0.127182 -0.000471663 0.00512254)
(0.115581 -0.00130244 0.00919842)
(0.100712 -0.00204853 0.0102925)
(0.0887641 -0.00206975 0.00798286)
(0.0824025 -0.00151493 0.00570828)
(0.0802154 -0.000956025 0.00500976)
(0.0801622 -0.000729288 0.00534181)
(0.0808758 -0.00112801 0.0059805)
(0.0814739 -0.00264948 0.00693686)
(0.0813228 -0.00549465 0.00889445)
(0.0810231 -0.00858053 0.0118809)
(0.0831241 -0.0102192 0.0139095)
(0.0895531 -0.01004 0.012531)
(0.100654 -0.00862821 0.00689332)
(0.116139 -0.00598988 -0.00192122)
(0.130692 -0.00314461 -0.00982142)
(0.136197 -0.00203861 -0.0133145)
(0.131558 -0.00233405 -0.0130358)
(0.12374 -0.00226327 -0.0110118)
(0.118855 -0.00140313 -0.00920775)
(0.116164 -0.000494215 -0.00917702)
(0.112012 -4.28456e-06 -0.0109283)
(0.105562 0.000173037 -0.0138238)
(0.09869 -0.000393022 -0.0180156)
(0.0942858 -0.00197586 -0.0223399)
(0.0949911 -0.003571 -0.0237573)
(0.100673 -0.00411163 -0.0213338)
(0.107925 -0.00425207 -0.01718)
(0.115448 -0.00543199 -0.0124552)
(0.124812 -0.0093887 -0.0122775)
(0.136338 -0.00799766 -0.00376593)
(0.143538 -0.00351035 0.00541427)
(0.13883 -0.000538689 0.010941)
(0.128701 -0.00101369 0.0104565)
(0.125504 -0.0023105 0.00637065)
(0.132544 -0.00166983 0.0043283)
(0.139788 -0.000162961 0.00682827)
(0.138133 -0.000140601 0.0101468)
(0.132421 -0.00140104 0.00888725)
(0.133438 -0.00171426 0.00406392)
(0.138628 -0.000787025 0.00314229)
(0.136235 -0.00038535 0.00731002)
(0.123351 -0.000911087 0.0102927)
(0.106882 -0.00142022 0.00937201)
(0.0948491 -0.00143325 0.00739097)
(0.0895263 -0.00117033 0.00648998)
(0.088834 -0.000973438 0.0063116)
(0.0903537 -0.00129249 0.00617829)
(0.0923699 -0.002764 0.00627807)
(0.093309 -0.00573802 0.0076537)
(0.0921755 -0.00941369 0.0110732)
(0.0905276 -0.0119816 0.0153373)
(0.0919672 -0.0124416 0.0173534)
(0.0990228 -0.0113119 0.0145112)
(0.112454 -0.00884327 0.00666094)
(0.129286 -0.00535561 -0.00303367)
(0.138419 -0.00280276 -0.00983238)
(0.132359 -0.00196387 -0.011699)
(0.11919 -0.00190076 -0.00972432)
(0.111364 -0.00178799 -0.00647297)
(0.113074 -0.00128454 -0.0044056)
(0.119045 -0.000167644 -0.00487927)
(0.120823 0.00107065 -0.0079259)
(0.116882 0.000968157 -0.0137158)
(0.110591 -0.00139644 -0.0215027)
(0.106039 -0.00448844 -0.0273984)
(0.106718 -0.00603336 -0.0278536)
(0.111765 -0.00628758 -0.0240288)
(0.117485 -0.00759871 -0.0187241)
(0.126379 -0.0115023 -0.0156578)
(0.134433 -0.0114017 -0.00790975)
(0.143571 -0.0062825 0.000396342)
(0.145009 -0.000800981 0.00694226)
(0.137236 0.000321622 0.00864273)
(0.128221 -0.00192478 0.00579117)
(0.128472 -0.00301309 0.00256067)
(0.137883 -0.00111637 0.00321612)
(0.143793 0.000709759 0.00687007)
(0.138922 -0.000641282 0.00822206)
(0.131669 -0.00365449 0.00496148)
(0.135422 -0.00419158 0.00236748)
(0.144967 -0.0019946 0.00519122)
(0.143072 -0.000211848 0.00917606)
(0.128554 6.75397e-05 0.00976911)
(0.112039 -0.000349968 0.00866473)
(0.101543 -0.000825478 0.00836746)
(0.0980267 -0.00125946 0.00849397)
(0.0994196 -0.00186813 0.00799297)
(0.103279 -0.00321327 0.00689567)
(0.106463 -0.00579879 0.0066574)
(0.106104 -0.00924713 0.00910384)
(0.102648 -0.0122165 0.0139499)
(0.0998705 -0.0134824 0.0182738)
(0.101852 -0.0130774 0.0183941)
(0.110924 -0.011234 0.0123273)
(0.125387 -0.00767481 0.00209702)
(0.135183 -0.00351667 -0.00686734)
(0.13015 -0.000621904 -0.01044)
(0.115274 0.000105311 -0.0082211)
(0.103976 -0.00092692 -0.0030432)
(0.103106 -0.00207228 0.00158149)
(0.111949 -0.00136659 0.00318727)
(0.123127 0.0010357 0.000839971)
(0.128068 0.00245563 -0.00564269)
(0.125933 0.000570142 -0.0153346)
(0.120631 -0.00357502 -0.0246907)
(0.116837 -0.00651347 -0.0291964)
(0.11746 -0.00742308 -0.0277242)
(0.121291 -0.00887574 -0.0225244)
(0.12887 -0.0121411 -0.0183731)
(0.134658 -0.0138002 -0.0104223)
(0.142379 -0.00997613 -0.00341779)
(0.147509 -0.00306897 0.0022262)
(0.145203 0.000676282 0.00527993)
(0.136714 -0.000470282 0.0045292)
(0.129494 -0.0030251 0.00165396)
(0.131818 -0.0027809 0.000739025)
(0.141225 -4.71355e-05 0.00342566)
(0.146103 0.000770531 0.0063777)
(0.140717 -0.00268743 0.00559187)
(0.134603 -0.00691216 0.00291114)
(0.141206 -0.00664665 0.00400939)
(0.15053 -0.00253563 0.0079061)
(0.146194 0.000745462 0.00941942)
(0.131544 0.00157591 0.00884451)
(0.117545 0.00082685 0.0091998)
(0.109489 -0.000713016 0.0103671)
(0.107982 -0.00263778 0.0103956)
(0.112333 -0.00459115 0.00844822)
(0.118763 -0.00654822 0.00602559)
(0.121087 -0.00890035 0.00636094)
(0.11723 -0.0113901 0.0106854)
(0.111211 -0.0129755 0.0163488)
(0.108165 -0.0132799 0.0190808)
(0.111598 -0.0123183 0.0155096)
(0.121393 -0.00921628 0.00616384)
(0.130118 -0.00404534 -0.00383079)
(0.128072 0.000723439 -0.00913795)
(0.116915 0.00262064 -0.00813048)
(0.10618 0.0011282 -0.00259884)
(0.102038 -0.00168085 0.00398635)
(0.106576 -0.00243651 0.00809287)
(0.117894 -1.23531e-05 0.008025)
(0.129236 0.00298079 0.00304485)
(0.134624 0.00276122 -0.0065087)
(0.133774 -0.00125457 -0.0176134)
(0.129877 -0.00522912 -0.0255884)
(0.126522 -0.00700893 -0.0279398)
(0.125857 -0.0088069 -0.0250884)
(0.132464 -0.0113781 -0.021105)
(0.136974 -0.0145007 -0.0131476)
(0.14287 -0.0129863 -0.00611179)
(0.147466 -0.00680576 -0.001557)
(0.148118 -0.00109463 0.00158022)
(0.143466 0.000295859 0.00285908)
(0.135433 -0.00159394 0.0014893)
(0.130632 -0.00309405 -8.4274e-05)
(0.13504 -0.00195659 0.00122386)
(0.144493 -0.000271746 0.00437325)
(0.147851 -0.00180673 0.00538446)
(0.141846 -0.00659806 0.00346524)
(0.1387 -0.00956903 0.00317839)
(0.146524 -0.00673816 0.00644658)
(0.152289 -0.00109529 0.00864586)
(0.146111 0.00251645 0.00826628)
(0.133722 0.00314005 0.00866887)
(0.12297 0.00149243 0.0105125)
(0.117198 -0.00204755 0.0107507)
(0.118751 -0.00618194 0.00788592)
(0.127328 -0.00842086 0.00384722)
(0.134821 -0.00904582 0.00238638)
(0.133404 -0.0100657 0.00585795)
(0.125439 -0.0114095 0.0122372)
(0.117709 -0.0119183 0.0171698)
(0.115027 -0.0114415 0.0166039)
(0.119087 -0.00926209 0.00962552)
(0.125686 -0.00429628 -0.000145518)
(0.126732 0.00150063 -0.0073066)
(0.120757 0.00448396 -0.00886303)
(0.11343 0.00317748 -0.0053407)
(0.10901 -0.000279922 0.000862292)
(0.109272 -0.00224294 0.00658661)
(0.115376 -0.000833876 0.00936668)
(0.125471 0.00234068 0.00779871)
(0.135635 0.00367627 0.00118028)
(0.141881 0.00116266 -0.0091961)
(0.141868 -0.00279673 -0.019098)
(0.137658 -0.0052411 -0.0247789)
(0.133004 -0.00750843 -0.0255682)
(0.138478 -0.0100448 -0.0222396)
(0.141487 -0.0140623 -0.0159213)
(0.145966 -0.014408 -0.00898281)
(0.147715 -0.0102628 -0.004448)
(0.146932 -0.00428795 -0.00124955)
(0.144621 -0.00037069 0.00149083)
(0.140108 -4.39254e-05 0.00198516)
(0.134706 -0.00183631 0.000497011)
(0.134186 -0.00302086 0.000432337)
(0.14111 -0.00268985 0.00303587)
(0.148092 -0.00300584 0.00512639)
(0.146877 -0.00612913 0.00388083)
(0.140993 -0.0100202 0.0021181)
(0.141482 -0.00976559 0.00382732)
(0.147598 -0.00447189 0.00673176)
(0.148116 0.00138687 0.00772814)
(0.140339 0.00451354 0.00847766)
(0.130777 0.00430233 0.00968752)
(0.124448 0.000643661 0.00814957)
(0.122779 -0.00558128 0.00314829)
(0.129042 -0.0101998 -0.00183863)
(0.141419 -0.0101875 -0.00341408)
(0.146882 -0.00878271 0.00021042)
(0.14021 -0.00901954 0.0072287)
(0.128791 -0.0096184 0.0137117)
(0.120735 -0.00906789 0.0158203)
(0.119516 -0.00725317 0.011857)
(0.123269 -0.00319518 0.00376879)
(0.125945 0.00231567 -0.00438482)
(0.124322 0.00573477 -0.00908508)
(0.120819 0.00475232 -0.0089478)
(0.118209 0.00119194 -0.00495834)
(0.117378 -0.0012291 0.000289814)
(0.11904 -0.000706136 0.00450915)
(0.12396 0.00142071 0.00624301)
(0.132818 0.00244874 0.00406838)
(0.143929 0.00147377 -0.00296616)
(0.149804 -0.000596165 -0.0126672)
(0.147211 -0.00251632 -0.0203296)
(0.141276 -0.00539014 -0.0238048)
(0.14606 -0.00841721 -0.0217955)
(0.147886 -0.0127557 -0.0174068)
(0.150738 -0.0138511 -0.0119272)
(0.149482 -0.0115331 -0.00792413)
(0.14537 -0.00690648 -0.00407622)
(0.142498 -0.00210872 0.00047915)
(0.140715 0.000484234 0.00290965)
(0.138249 -9.84966e-05 0.00180227)
(0.137199 -0.00264428 0.000551142)
(0.141095 -0.00437046 0.00242398)
(0.147577 -0.00452215 0.00534905)
(0.149406 -0.00557281 0.00479113)
(0.144385 -0.00858125 0.00146856)
(0.138745 -0.0100254 0.000944803)
(0.137499 -0.00672998 0.00432798)
(0.136331 -0.000908466 0.00807443)
(0.132205 0.00350204 0.00998828)
(0.12879 0.00508312 0.00869209)
(0.128248 0.00319134 0.0033125)
(0.127708 -0.0028056 -0.00353131)
(0.128825 -0.0102101 -0.00735445)
(0.139099 -0.0125235 -0.00710071)
(0.151629 -0.00939303 -0.0031368)
(0.151317 -0.00694401 0.00355215)
(0.139155 -0.0067613 0.0102604)
(0.126633 -0.00604564 0.0139833)
(0.121362 -0.00398877 0.0127326)
(0.12333 -0.000738163 0.00690502)
(0.127697 0.00335732 -0.000984228)
(0.129653 0.00601262 -0.00789585)
(0.129143 0.00509838 -0.0111316)
(0.128543 0.001962 -0.0102671)
(0.128469 2.0076e-05 -0.00714415)
(0.128601 0.000464801 -0.00337151)
(0.129698 0.00122584 0.000400107)
(0.134058 0.000119301 0.00222104)
(0.143535 -0.00108074 -0.000775006)
(0.152703 -0.000569868 -0.008296)
(0.153785 -0.000271417 -0.0163085)
(0.149121 -0.00305655 -0.0214159)
(0.153585 -0.0062042 -0.0198152)
(0.154342 -0.0103414 -0.0173381)
(0.156427 -0.0115252 -0.0137115)
(0.154151 -0.0107478 -0.0109571)
(0.147507 -0.00813091 -0.00711351)
(0.142102 -0.00373819 -0.00119057)
(0.139975 0.000436804 0.00324548)
(0.139335 0.00152606 0.00349385)
(0.139776 -0.0011746 0.00202423)
(0.142688 -0.00473138 0.00277139)
(0.147655 -0.00575357 0.00554815)
(0.150187 -0.00522112 0.00573588)
(0.146185 -0.00596057 0.00184233)
(0.137188 -0.00722338 -0.00108978)
(0.128975 -0.00602868 0.000874181)
(0.124251 -0.00222379 0.0049404)
(0.123014 0.00156124 0.00644834)
(0.125941 0.00386399 0.00343244)
(0.130999 0.00396614 -0.00273071)
(0.133611 0.000126353 -0.0079305)
(0.133548 -0.00787154 -0.00861497)
(0.138238 -0.0142124 -0.00529311)
(0.149908 -0.0127787 -0.000645209)
(0.155021 -0.00760929 0.00445076)
(0.14587 -0.00464243 0.00952123)
(0.131787 -0.00322135 0.0127259)
(0.123816 -0.001093 0.0123228)
(0.124162 0.00172558 0.0079796)
(0.128474 0.00430105 0.00132802)
(0.131238 0.00536598 -0.00487216)
(0.131225 0.00393998 -0.00818091)
(0.131535 0.00114164 -0.00887528)
(0.133713 -0.00035201 -0.00835924)
(0.136207 0.00053156 -0.00623685)
(0.137636 0.00114393 -0.00189268)
(0.138651 -0.000959987 0.00181933)
(0.142346 -0.0030534 0.000545155)
(0.149571 -0.00161327 -0.0056399)
(0.154998 0.000746773 -0.0129225)
(0.155313 -0.00097076 -0.0182197)
(0.158902 -0.00394672 -0.0163102)
(0.159467 -0.00727531 -0.0159523)
(0.1616 -0.0085142 -0.0142105)
(0.160758 -0.008789 -0.0127579)
(0.153408 -0.00791544 -0.0101198)
(0.144838 -0.00446709 -0.00442862)
(0.140405 0.000334236 0.00188487)
(0.139904 0.00278434 0.00506805)
(0.141375 0.000765644 0.00494722)
(0.143839 -0.00343118 0.00422236)
(0.14693 -0.00556936 0.0051135)
(0.148879 -0.00492737 0.00594869)
(0.146571 -0.00419503 0.00373765)
(0.139299 -0.00416585 -0.000396792)
(0.130704 -0.00319698 -0.00251261)
(0.1255 -0.00103998 -0.00162713)
(0.125248 0.000776809 -0.000353442)
(0.128984 0.00193195 -0.00119147)
(0.134582 0.00277231 -0.00465544)
(0.138924 0.00151914 -0.00820911)
(0.140924 -0.00440454 -0.00835208)
(0.143486 -0.012637 -0.00429771)
(0.149922 -0.0152283 0.00132119)
(0.154566 -0.0102305 0.00581963)
(0.148721 -0.00410293 0.0093642)
(0.136322 -0.000554485 0.0122175)
(0.127263 0.00157003 0.0126687)
(0.124974 0.00344637 0.00930178)
(0.125992 0.00505831 0.00400585)
(0.126172 0.00549445 5.53952e-05)
(0.125459 0.00369448 -0.00126485)
(0.126678 0.000424269 -0.00186536)
(0.13094 -0.0015193 -0.00314132)
(0.13611 -0.000521648 -0.0026271)
(0.138931 0.000789317 0.0014229)
(0.138819 -0.000323521 0.00499896)
(0.138747 -0.00227875 0.0029924)
(0.142423 -0.00180334 -0.00351246)
(0.149888 0.00015637 -0.00994116)
(0.156624 -0.000359618 -0.0141997)
(0.159571 -0.00214085 -0.0119085)
(0.162792 -0.00404384 -0.0128469)
(0.166066 -0.00522116 -0.0130679)
(0.166718 -0.00622743 -0.0133796)
(0.15988 -0.00631603 -0.0125967)
(0.14923 -0.00381301 -0.00804133)
(0.141982 0.000626298 -0.000873022)
(0.140242 0.00352753 0.00464005)
(0.141869 0.00224889 0.00647147)
(0.144163 -0.00170568 0.00586031)
(0.145785 -0.00449934 0.00534035)
(0.146044 -0.00458139 0.00557975)
(0.143714 -0.00349863 0.00461853)
(0.138761 -0.00244404 0.00138826)
(0.13384 -0.00107578 -0.00225244)
(0.131936 0.000347436 -0.00384744)
(0.133037 0.000715357 -0.00294506)
(0.135222 0.000351198 -0.00147176)
(0.138106 0.000800784 -0.00223608)
(0.141039 0.00127488 -0.00498126)
(0.142957 -0.0014008 -0.00603498)
(0.145064 -0.0081747 -0.0036462)
(0.149095 -0.0134644 0.0007715)
(0.153069 -0.0112473 0.00513967)
(0.150811 -0.00421827 0.00859347)
(0.142086 0.00173606 0.0108995)
(0.133275 0.00496496 0.0114579)
(0.127793 0.00602726 0.0098108)
(0.124568 0.00575924 0.00698754)
(0.12257 0.00460572 0.00455379)
(0.122662 0.00212552 0.00334873)
(0.125675 -0.00148919 0.00261634)
(0.130657 -0.00410069 0.00124944)
(0.135552 -0.00339651 0.000599008)
(0.13818 -0.00046584 0.00281608)
(0.138109 0.00129654 0.0060234)
(0.137388 0.00083302 0.00525869)
(0.138943 0.000264299 -0.000371784)
(0.144864 0.000416088 -0.00643076)
(0.153344 -0.000210639 -0.0100272)
(0.157487 -0.0011548 -0.00889385)
(0.162741 -0.00205775 -0.0102453)
(0.16741 -0.00259065 -0.0109721)
(0.169308 -0.0035426 -0.0120864)
(0.164151 -0.00376537 -0.0132775)
(0.154253 -0.00163766 -0.0114375)
(0.146122 0.00197205 -0.00530641)
(0.14239 0.0039465 0.00176015)
(0.141695 0.00256095 0.00590958)
(0.142108 -0.000571652 0.00654397)
(0.142556 -0.00256401 0.00593422)
(0.142343 -0.00258148 0.00574461)
(0.140838 -0.00189277 0.00489738)
(0.138743 -0.00118361 0.00215303)
(0.138062 -0.000281051 -0.00117778)
(0.139668 9.54858e-05 -0.00283788)
(0.141384 -0.000920679 -0.00207436)
(0.140646 -0.00239665 7.19576e-05)
(0.138686 -0.00186755 0.00136879)
(0.138197 0.000427174 0.000992476)
(0.140034 0.000268463 0.00089281)
(0.143796 -0.00502755 0.00243181)
(0.147997 -0.011271 0.00498225)
(0.150693 -0.0109967 0.00671749)
(0.148946 -0.00382616 0.00752202)
(0.142097 0.00393937 0.00875244)
(0.133958 0.00786952 0.009687)
(0.127696 0.00770997 0.00908401)
(0.123702 0.00575469 0.00767449)
(0.12182 0.00420259 0.00696075)
(0.122537 0.00289924 0.0070242)
(0.125881 0.000588476 0.00654073)
(0.130633 -0.00226343 0.00499779)
(0.134944 -0.0030356 0.00390652)
(0.137179 -0.000418203 0.00495429)
(0.137506 0.00283777 0.00706338)
(0.137853 0.00405603 0.00686819)
(0.139667 0.00363636 0.00288184)
(0.143938 0.00248269 -0.0024451)
(0.150695 0.000648569 -0.00649227)
(0.154814 -0.00218015 -0.00724797)
(0.161359 -0.00250051 -0.00893849)
(0.166307 -0.00112862 -0.00953714)
(0.167782 -0.000176627 -0.0102585)
(0.164761 -0.000242852 -0.0115508)
(0.159348 0.000509136 -0.0118286)
(0.154602 0.00291336 -0.00884169)
(0.150966 0.00457719 -0.00334281)
(0.147253 0.00328359 0.00151831)
(0.143283 0.000172028 0.00385933)
(0.140142 -0.00205948 0.00454934)
(0.138993 -0.00244734 0.00509551)
(0.140021 -0.0018157 0.00540055)
(0.143068 -0.000857383 0.00432182)
(0.147738 0.000138764 0.00196835)
(0.151891 0.000222726 -7.88541e-05)
(0.152119 -0.00115144 8.89438e-05)
(0.14743 -0.00247249 0.00318888)
(0.141488 -0.00155351 0.0070341)
(0.138932 0.00140213 0.0076254)
(0.140626 0.0028603 0.00423474)
(0.144373 -0.000542213 0.000926471)
(0.148005 -0.00700002 0.00213877)
(0.149772 -0.00907858 0.00606248)
(0.14782 -0.00309201 0.00774084)
(0.141639 0.00573587 0.00719649)
(0.134188 0.0109056 0.0068989)
(0.128895 0.0111557 0.00715329)
(0.126501 0.00868528 0.00687332)
(0.126111 0.0059739 0.00575566)
(0.126946 0.00398639 0.00452839)
(0.128912 0.00223962 0.00402316)
(0.131833 0.000618047 0.00413102)
(0.135258 0.000134211 0.00428623)
(0.138421 0.00164197 0.00497474)
(0.140257 0.00403996 0.00660241)
(0.140874 0.00542598 0.00766927)
(0.141504 0.00508613 0.00598616)
(0.143648 0.00318899 0.00151586)
(0.148303 0.000261536 -0.00360145)
(0.153263 -0.00452322 -0.00515224)
(0.158952 -0.00603906 -0.00800734)
(0.163332 -0.00384865 -0.00852529)
(0.164809 -0.000197009 -0.0082759)
(0.162197 0.00207111 -0.00862174)
(0.157283 0.00290758 -0.00913256)
(0.153593 0.00391276 -0.00840308)
(0.152531 0.00504664 -0.00597168)
(0.152372 0.00472478 -0.00284609)
(0.150672 0.00250515 -0.000314869)
(0.146831 -0.000474889 0.00139049)
(0.142658 -0.00342803 0.00291992)
(0.140626 -0.006316 0.00448908)
(0.142265 -0.00843194 0.00537847)
(0.14781 -0.00850886 0.00481526)
(0.154498 -0.00630023 0.00285569)
(0.156964 -0.00348918 0.00128704)
(0.152748 -0.00130579 0.00233913)
(0.145488 0.00106028 0.00506915)
(0.140609 0.00409944 0.00529335)
(0.139589 0.00588714 0.00115094)
(0.140778 0.00406918 -0.00394932)
(0.143409 -0.00121623 -0.00474166)
(0.146343 -0.00579632 -0.000232988)
(0.146766 -0.00437249 0.00469023)
(0.143764 0.00279665 0.00649828)
(0.139883 0.0100721 0.00609133)
(0.13804 0.0133741 0.00461539)
(0.138164 0.0125653 0.0021684)
(0.138421 0.00966895 -0.000381372)
(0.137858 0.00656089 -0.00151504)
(0.137144 0.00400614 -0.000576273)
(0.137148 0.00234056 0.00165368)
(0.137761 0.00195607 0.00367708)
(0.138452 0.0027496 0.00497862)
(0.138777 0.00379831 0.00618039)
(0.138895 0.00431507 0.00726748)
(0.139741 0.00409163 0.00701581)
(0.142484 0.00264074 0.00438991)
(0.147344 -0.000613158 -0.000301246)
(0.154968 -0.00514305 -0.0014188)
(0.157788 -0.00414542 -0.00624697)
(0.15644 -0.000759406 -0.00843316)
(0.152535 0.00321502 -0.00873434)
(0.14832 0.00547059 -0.00821794)
(0.145312 0.00553937 -0.00750929)
(0.144084 0.00453331 -0.0070733)
(0.144702 0.00345092 -0.00696121)
(0.147004 0.00238388 -0.00653508)
(0.150505 0.00118491 -0.00506637)
(0.153745 -5.06345e-05 -0.00270638)
(0.154769 -0.00152631 -0.0002266)
(0.153042 -0.00397808 0.00195243)
(0.150171 -0.00741593 0.00421589)
(0.148821 -0.0102298 0.0065702)
(0.150239 -0.0106034 0.00796618)
(0.152376 -0.00808949 0.00734057)
(0.151695 -0.00341767 0.00536042)
(0.147597 0.00169635 0.00355948)
(0.143027 0.00497864 0.00190667)
(0.140345 0.00483993 -0.000684309)
(0.139907 0.00153812 -0.00362659)
(0.141735 -0.00273207 -0.00435068)
(0.145108 -0.005281 -0.00118213)
(0.147436 -0.00409512 0.00392322)
(0.147193 0.000847587 0.00741306)
(0.146256 0.00676531 0.00741817)
(0.146752 0.010678 0.00394279)
(0.147915 0.011687 -0.0016555)
(0.148036 0.0101903 -0.00686028)
(0.146956 0.00693449 -0.00943732)
(0.145396 0.00339233 -0.00855076)
(0.143869 0.00162071 -0.00482497)
(0.142601 0.00236147 8.73971e-05)
(0.141417 0.00407914 0.00454803)
(0.140056 0.00451799 0.00809493)
(0.138962 0.00282904 0.0108088)
(0.1395 0.000128433 0.0119688)
(0.142979 -0.0023361 0.0101349)
(0.148988 -0.00419142 0.0049817)
(0.155773 -0.00195999 0.00831355)
(0.159017 0.000333485 0.00337212)
(0.161625 0.00423154 -0.00145253)
(0.161763 0.00798759 -0.00551924)
(0.158906 0.0094643 -0.00868201)
(0.154318 0.0082667 -0.0105705)
(0.150201 0.00559911 -0.011053)
(0.148139 0.00264129 -0.010506)