/*--------------------------------*- C++ -*----------------------------------*\
| =========                 |                                                 |
| \\      /  F ield         | OpenFOAM: The Open Source CFD Toolbox           |
|  \\    /   O peration     | Version:  2306                                  |
|   \\  /    A nd           | Website:  www.openfoam.com                      |
|    \\/     M anipulation  |                                                 |
\*---------------------------------------------------------------------------*/
FoamFile
{
    version     2.0;
    format      ascii;
    arch        "LSB;label=32;scalar=64";
    class       volVectorField;
    location    "1.5";
    object      UMean;
}
// * * * * * * * * * * * * * * * * * * * * * * * * * * * * * * * * * * * * * //

dimensions      [0 1 -1 0 0 0 0];

internalField   nonuniform List<vector> 
60000
(
(0.0105676 -6.4682e-06 0.00238607)
(0.0105229 -2.1286e-05 0.00203608)
(0.0104068 -2.02997e-05 0.00181676)
(0.0102668 -1.42592e-05 0.00175512)
(0.010073 -1.29551e-05 0.00167853)
(0.00967667 -1.39568e-05 0.00146862)
(0.00894645 -1.23066e-05 0.00120734)
(0.00789595 -1.04997e-05 0.0010515)
(0.00680749 -1.37657e-05 0.00104803)
(0.0060746 -2.19487e-05 0.00115246)
(0.00581409 -2.89333e-05 0.00127709)
(0.0058462 -2.91863e-05 0.00127328)
(0.00595719 -2.54831e-05 0.00103503)
(0.00605702 -1.76703e-05 0.000661127)
(0.00617268 -5.63683e-06 0.000326418)
(0.00633786 5.78242e-06 8.15356e-05)
(0.00657662 1.67435e-05 -0.000116717)
(0.0068908 2.13362e-05 -0.000340331)
(0.00725372 2.03585e-05 -0.00065531)
(0.00766542 1.53252e-05 -0.00108648)
(0.00817862 1.00204e-05 -0.00160681)
(0.00877988 5.21047e-06 -0.00211673)
(0.00932108 2.43955e-06 -0.00247701)
(0.00958722 -1.02505e-06 -0.00260453)
(0.00938268 -2.7539e-06 -0.00253397)
(0.0086976 1.75012e-06 -0.00238045)
(0.00781014 2.61963e-06 -0.00222567)
(0.00705722 -6.44148e-06 -0.00211885)
(0.00655226 -1.02529e-05 -0.0020975)
(0.00628297 -2.07449e-06 -0.00208437)
(0.00629026 7.09214e-06 -0.00191595)
(0.0065879 1.48071e-05 -0.00144026)
(0.00709838 2.94128e-05 -0.000692687)
(0.00770889 4.39554e-05 4.70887e-05)
(0.00835944 5.50281e-05 0.000564132)
(0.00902084 5.74861e-05 0.000970487)
(0.00962537 6.15378e-05 0.00145949)
(0.010078 6.28623e-05 0.00203487)
(0.0103598 4.93033e-05 0.00250714)
(0.0105158 2.14704e-05 0.00262456)
(0.0327068 -0.000146467 0.00596264)
(0.0324814 -0.000207617 0.00501828)
(0.0320163 -0.000188326 0.00454689)
(0.0315437 -0.000139428 0.00456635)
(0.030933 -9.2257e-05 0.00453337)
(0.0297088 -4.3567e-05 0.00405487)
(0.0275676 -5.95502e-06 0.00334138)
(0.0246341 -1.94228e-05 0.00288868)
(0.0216148 -0.000109119 0.00289632)
(0.0194028 -0.000227909 0.00319821)
(0.0183065 -0.000288344 0.00344133)
(0.0179796 -0.00026978 0.00325494)
(0.0179544 -0.000211404 0.00254344)
(0.0180456 -0.000135 0.00163532)
(0.0183159 -5.01356e-05 0.000880249)
(0.0188106 2.20867e-05 0.00030932)
(0.0195743 6.69107e-05 -0.000213562)
(0.0206195 7.25971e-05 -0.000851127)
(0.021884 4.72911e-05 -0.00174255)
(0.0233534 8.7918e-07 -0.00294456)
(0.0250916 -4.17783e-05 -0.0043839)
(0.0269677 -5.48853e-05 -0.00578362)
(0.0285859 -3.73812e-05 -0.00674369)
(0.0294201 -1.47384e-05 -0.00700202)
(0.0289628 3.7439e-06 -0.00663782)
(0.0271858 4.41801e-06 -0.00603091)
(0.0247725 -4.67948e-05 -0.00554785)
(0.0224758 -0.000130636 -0.00536975)
(0.0206009 -0.000169668 -0.00547572)
(0.0193424 -0.00014045 -0.00554595)
(0.0190283 -7.42694e-05 -0.00509343)
(0.0197386 2.32293e-05 -0.00376527)
(0.021177 0.00015985 -0.00176451)
(0.0229675 0.000293147 0.000188497)
(0.0249219 0.000376062 0.00164048)
(0.0269385 0.000390758 0.00284808)
(0.0288427 0.000376039 0.00417807)
(0.0304436 0.000318797 0.00558831)
(0.0316684 0.000186878 0.00662387)
(0.0324546 5.01029e-06 0.00672584)
(0.0560932 -0.000469462 0.00888539)
(0.0555901 -0.000576535 0.00727635)
(0.0546681 -0.000514987 0.00638366)
(0.0538312 -0.00039304 0.0064797)
(0.0528908 -0.000268736 0.00673878)
(0.0510956 -0.000137104 0.00630339)
(0.0480196 -4.18337e-05 0.00525653)
(0.0437488 -7.45707e-05 0.00440401)
(0.03897 -0.000287227 0.00430128)
(0.0348056 -0.000571395 0.00479748)
(0.0320985 -0.000713589 0.00521712)
(0.0308099 -0.00066577 0.004914)
(0.0302904 -0.000520263 0.00385454)
(0.030137 -0.000333237 0.00259568)
(0.0303917 -0.000134111 0.00160369)
(0.0311203 3.03192e-05 0.000866445)
(0.0323816 0.000112185 0.000171816)
(0.0341806 9.98773e-05 -0.000702955)
(0.0364208 1.40567e-05 -0.00196106)
(0.0390693 -0.000119 -0.00372882)
(0.0421792 -0.000233893 -0.00596457)
(0.0454903 -0.000260865 -0.00829393)
(0.0484085 -0.000206869 -0.0100475)
(0.0501972 -0.000139761 -0.0106535)
(0.0500778 -8.79746e-05 -0.0100724)
(0.047833 -9.05505e-05 -0.00889368)
(0.0442526 -0.000202612 -0.0078821)
(0.0403585 -0.0003643 -0.00751245)
(0.0366861 -0.000433475 -0.00782879)
(0.033712 -0.000375768 -0.00833669)
(0.0322229 -0.000235667 -0.00813619)
(0.0326674 -5.70233e-06 -0.00647973)
(0.0347122 0.000320277 -0.00358188)
(0.0376523 0.000649201 -0.000540207)
(0.0410323 0.000851385 0.00187792)
(0.0446105 0.000888563 0.00390263)
(0.0481211 0.000824467 0.00599015)
(0.0512955 0.000630907 0.00812764)
(0.0538973 0.000278118 0.00974999)
(0.055591 -0.000146412 0.0100283)
(0.079834 -0.000931442 0.011528)
(0.0789381 -0.00107807 0.00926503)
(0.0774423 -0.000960204 0.00750025)
(0.0762415 -0.000745652 0.00730974)
(0.0751656 -0.000521101 0.00799836)
(0.0732502 -0.000277399 0.00808622)
(0.0699783 -9.0956e-05 0.00702091)
(0.065286 -0.000107232 0.00565136)
(0.0593615 -0.000422296 0.00514096)
(0.0529867 -0.000905224 0.00577736)
(0.0476652 -0.00120729 0.00663494)
(0.0444439 -0.00118129 0.00648119)
(0.0428611 -0.000955438 0.00518196)
(0.0421182 -0.000642796 0.00363361)
(0.0420709 -0.000310827 0.00253255)
(0.042782 -4.17423e-05 0.00184004)
(0.0443221 7.87053e-05 0.00125238)
(0.0466724 2.19619e-05 0.000486816)
(0.0497221 -0.0001713 -0.000730994)
(0.0534634 -0.000455794 -0.00265785)
(0.0579978 -0.000701868 -0.00542665)
(0.0629549 -0.000757 -0.00874592)
(0.0675411 -0.000631602 -0.0117364)
(0.070881 -0.000463312 -0.0133444)
(0.0719708 -0.000317629 -0.0130787)
(0.0702178 -0.000275808 -0.0114748)
(0.0661882 -0.000427999 -0.00970013)
(0.0610232 -0.000655894 -0.00874202)
(0.0555094 -0.000742325 -0.00899957)
(0.0502779 -0.000667448 -0.0100974)
(0.0464699 -0.000505876 -0.0108477)
(0.0452828 -0.000206235 -0.00983082)
(0.0469675 0.000287489 -0.00679934)
(0.0507012 0.000841385 -0.00302683)
(0.0555611 0.00121875 0.000284667)
(0.0609633 0.00131624 0.0031518)
(0.0664312 0.0012159 0.00602987)
(0.071627 0.00086934 0.00898009)
(0.0760714 0.000256037 0.0114949)
(0.0790089 -0.000435184 0.0125318)
(0.102403 -0.00146588 0.0136591)
(0.10095 -0.00161978 0.0114601)
(0.0986651 -0.00145081 0.0085568)
(0.0971272 -0.00114116 0.00729847)
(0.0962229 -0.000807561 0.00807254)
(0.0947185 -0.000449981 0.00911257)
(0.0920077 -0.000162237 0.00867391)
(0.087992 -0.000114009 0.00690487)
(0.0822037 -0.000431557 0.00554078)
(0.0743385 -0.00105483 0.00595828)
(0.0658485 -0.00159228 0.00750881)
(0.0594008 -0.00172417 0.00803099)
(0.055771 -0.00149415 0.0066704)
(0.0539148 -0.00107656 0.00472041)
(0.0531756 -0.000615409 0.0034693)
(0.0534516 -0.000244244 0.00298825)
(0.054779 -8.84643e-05 0.00283815)
(0.0570923 -0.00021479 0.00263987)
(0.0602693 -0.000584547 0.00205745)
(0.0644412 -0.00113942 0.000695816)
(0.0700117 -0.00166119 -0.00190597)
(0.07674 -0.00182228 -0.00589396)
(0.0835672 -0.00156101 -0.010499)
(0.0893095 -0.00114084 -0.0141179)
(0.0927231 -0.00076027 -0.0153317)
(0.0927189 -0.000568353 -0.0140782)
(0.0893308 -0.000708322 -0.0116813)
(0.0836848 -0.000978482 -0.00975803)
(0.076942 -0.00103797 -0.00933798)
(0.0697983 -0.000907571 -0.0105488)
(0.0632477 -0.000763305 -0.0124073)
(0.0589232 -0.000541258 -0.0130132)
(0.0582695 -6.81041e-05 -0.0111574)
(0.0612917 0.000576631 -0.00765649)
(0.0669361 0.00109307 -0.00400167)
(0.0741186 0.00128645 -0.000504488)
(0.0818162 0.00122339 0.00316857)
(0.0894217 0.000828128 0.00704747)
(0.0962341 2.2461e-05 0.0107901)
(0.100986 -0.00086997 0.013391)
(0.121544 -0.00206418 0.0136327)
(0.119585 -0.00207404 0.0134264)
(0.115924 -0.00189108 0.0103523)
(0.113973 -0.00153922 0.00739058)
(0.113746 -0.00108686 0.00716911)
(0.113312 -0.000618005 0.00897274)
(0.111684 -0.000256156 0.00997134)
(0.109144 -0.000130855 0.00849614)
(0.105141 -0.000326051 0.00599798)
(0.0978612 -0.000896052 0.00540013)
(0.0872755 -0.00161681 0.00740744)
(0.0767838 -0.00207593 0.00924606)
(0.069583 -0.00203859 0.00838977)
(0.065661 -0.00160063 0.00594786)
(0.0637717 -0.00102807 0.0042258)
(0.0632083 -0.000561683 0.00382151)
(0.063755 -0.000376896 0.00420636)
(0.0651927 -0.000585658 0.00483477)
(0.0672921 -0.00121185 0.00534344)
(0.0702934 -0.00221803 0.00533261)
(0.0752044 -0.00328603 0.00408883)
(0.0826266 -0.00382269 0.000791717)
(0.0918085 -0.00355723 -0.00462123)
(0.101288 -0.00271715 -0.0107786)
(0.108888 -0.0017126 -0.0151257)
(0.11238 -0.00104876 -0.0159245)
(0.111072 -0.0010424 -0.0139506)
(0.106018 -0.00134386 -0.0112937)
(0.099091 -0.00134409 -0.00972203)
(0.0913261 -0.00104899 -0.0101163)
(0.083261 -0.000830824 -0.0122408)
(0.0759377 -0.000733642 -0.0144751)
(0.0713158 -0.000511433 -0.0149623)
(0.070992 -0.000112181 -0.0133867)
(0.0749809 0.000222895 -0.0107376)
(0.0823548 0.000364259 -0.00747591)
(0.0914403 0.000362012 -0.00350795)
(0.101084 2.12393e-05 0.000978272)
(0.110619 -0.000784759 0.00583758)
(0.11839 -0.00163668 0.0105665)
(0.133504 -0.0031132 0.00901607)
(0.132962 -0.00235801 0.0129259)
(0.127079 -0.00201409 0.01239)
(0.123465 -0.00192776 0.00876779)
(0.124519 -0.00146768 0.00638788)
(0.126377 -0.000773415 0.00762514)
(0.126235 -0.000332574 0.010223)
(0.12495 -0.000249208 0.0103298)
(0.123731 -0.000288572 0.00719828)
(0.119943 -0.000509364 0.00472609)
(0.110681 -0.0011203 0.00617103)
(0.0976641 -0.00189088 0.00941882)
(0.0857578 -0.00231438 0.010011)
(0.0780259 -0.00208477 0.00753877)
(0.0741253 -0.0014675 0.00506174)
(0.0725034 -0.000903272 0.00424914)
(0.0721631 -0.000667406 0.00474775)
(0.072489 -0.000933084 0.00580302)
(0.072972 -0.00185062 0.00702727)
(0.0736605 -0.0034987 0.00834132)
(0.0758714 -0.0054227 0.00924412)
(0.081391 -0.00661697 0.00834582)
(0.0904504 -0.00658177 0.00445357)
(0.102219 -0.00553184 -0.00223393)
(0.115077 -0.00380412 -0.00966435)
(0.124712 -0.00214255 -0.0144324)
(0.127457 -0.00157975 -0.0150421)
(0.124079 -0.00185043 -0.0130937)
(0.117984 -0.0017959 -0.0108128)
(0.11126 -0.00116834 -0.00977644)
(0.104074 -0.000634766 -0.0108269)
(0.0962767 -0.000527374 -0.0133752)
(0.0888415 -0.000549301 -0.0159392)
(0.0839214 -0.000635256 -0.0175559)
(0.083407 -0.000979452 -0.0178388)
(0.0879616 -0.00137302 -0.0162408)
(0.0960229 -0.00150333 -0.0127799)
(0.105255 -0.00178907 -0.00841993)
(0.115135 -0.00262635 -0.0034673)
(0.125894 -0.00336849 0.00260108)
(0.135709 -0.00530486 0.00120186)
(0.139942 -0.00292308 0.00872566)
(0.134221 -0.00153429 0.0122405)
(0.126728 -0.00184388 0.0106139)
(0.126563 -0.00208066 0.00682946)
(0.13183 -0.00122512 0.00586664)
(0.134745 -0.000335845 0.00863249)
(0.133101 -0.000330817 0.0110221)
(0.131904 -0.000683329 0.0090918)
(0.133297 -0.000576157 0.00487917)
(0.130835 -0.000440872 0.00441333)
(0.120637 -0.0010105 0.00815933)
(0.106016 -0.00187683 0.0107076)
(0.0929795 -0.00220322 0.00927132)
(0.0850735 -0.00181605 0.00646579)
(0.0816997 -0.00122368 0.00499625)
(0.0808266 -0.000899289 0.00500327)
(0.0809473 -0.00112922 0.00566495)
(0.0810715 -0.00221586 0.00664195)
(0.0806738 -0.00440608 0.00831871)
(0.0802389 -0.00724981 0.0108928)
(0.0819429 -0.00932728 0.0130226)
(0.0878901 -0.00969794 0.012281)
(0.0983247 -0.00868126 0.00747836)
(0.112633 -0.00662506 -0.00033937)
(0.127384 -0.00404455 -0.00813432)
(0.135193 -0.00249256 -0.0125532)
(0.132949 -0.00245023 -0.0131088)
(0.125831 -0.00249764 -0.0115189)
(0.120284 -0.0017655 -0.0095181)
(0.11759 -0.000757875 -0.00871524)
(0.11453 -7.1383e-05 -0.0100589)
(0.108823 0.000129604 -0.0131832)
(0.101773 -0.000247985 -0.0174508)
(0.096385 -0.00150659 -0.0218238)
(0.0956764 -0.00306062 -0.0238117)
(0.100426 -0.00380545 -0.02192)
(0.107928 -0.00407614 -0.0177015)
(0.115609 -0.00504835 -0.0128365)
(0.124939 -0.00613395 -0.00673673)
(0.134113 -0.00829853 -0.00516485)
(0.14183 -0.00455698 0.00348925)
(0.140358 -0.00109269 0.00953096)
(0.131614 -0.000856602 0.0104001)
(0.126126 -0.00231019 0.00716701)
(0.130385 -0.00221283 0.00437763)
(0.137965 -0.000588777 0.00558691)
(0.138948 3.5948e-05 0.00892004)
(0.133905 -0.00108106 0.00947328)
(0.132684 -0.00198681 0.00579987)
(0.137834 -0.00128966 0.00323807)
(0.13862 -0.000431816 0.00602339)
(0.128564 -0.000721523 0.0100012)
(0.112633 -0.00142438 0.0103439)
(0.0990594 -0.00163735 0.00822952)
(0.0917641 -0.00140901 0.00666665)
(0.0896829 -0.00120136 0.00619708)
(0.0903523 -0.00140442 0.0060671)
(0.0917357 -0.00244891 0.00611292)
(0.0922679 -0.00473618 0.007139)
(0.0911611 -0.00803548 0.00998292)
(0.0896952 -0.0109405 0.0139551)
(0.0910872 -0.012012 0.0163395)
(0.0976282 -0.0113147 0.0144446)
(0.109773 -0.00935883 0.00785697)
(0.125226 -0.006364 -0.00104925)
(0.135849 -0.00354659 -0.00830523)
(0.133609 -0.00230057 -0.0112155)
(0.122205 -0.00213089 -0.0100946)
(0.112899 -0.00199725 -0.00703832)
(0.112155 -0.00148248 -0.00449494)
(0.117745 -0.000456828 -0.00423748)
(0.121678 0.000738209 -0.00693905)
(0.119297 0.00104263 -0.0125456)
(0.113148 -0.00056565 -0.020115)
(0.108029 -0.00350087 -0.0264104)
(0.107672 -0.00556023 -0.027816)
(0.112366 -0.00620583 -0.0245092)
(0.118691 -0.00716364 -0.0192565)
(0.125191 -0.00877248 -0.0130603)
(0.134071 -0.0110631 -0.00912888)
(0.141597 -0.00726457 -0.00111088)
(0.144692 -0.00182283 0.00544285)
(0.139387 0.000283853 0.00807508)
(0.130646 -0.00140647 0.00634403)
(0.128077 -0.00301426 0.0031127)
(0.134926 -0.00180755 0.00256431)
(0.142184 0.000255075 0.00543732)
(0.140521 -0.000273104 0.00783313)
(0.133757 -0.0031107 0.00629607)
(0.133969 -0.00446157 0.00327613)
(0.142569 -0.00274749 0.00428708)
(0.145052 -0.00062407 0.00840911)
(0.134132 -4.25416e-05 0.0102754)
(0.117698 -0.000411449 0.00935779)
(0.105174 -0.000888188 0.00848568)
(0.0995864 -0.00135034 0.00839566)
(0.0994988 -0.00197665 0.00807717)
(0.102344 -0.0030421 0.00715826)
(0.105134 -0.00501971 0.00668858)
(0.105121 -0.00808775 0.00837838)
(0.102151 -0.0112886 0.0126106)
(0.0996389 -0.0130844 0.016953)
(0.101492 -0.0130434 0.0177596)
(0.109458 -0.0115313 0.0130778)
(0.122098 -0.0085198 0.00416744)
(0.132308 -0.00453143 -0.00480617)
(0.131015 -0.00141701 -0.00948051)
(0.119002 -0.000241858 -0.008583)
(0.10663 -0.000760423 -0.00399495)
(0.102856 -0.00179264 0.000885294)
(0.10948 -0.00160135 0.00322524)
(0.120868 0.000347851 0.00163789)
(0.127883 0.00215241 -0.00423571)
(0.12716 0.001379 -0.0135467)
(0.122474 -0.00215324 -0.0230313)
(0.118733 -0.00570905 -0.0282693)
(0.118902 -0.00738612 -0.0276109)
(0.122759 -0.00860482 -0.0229778)
(0.12781 -0.0106297 -0.016609)
(0.135325 -0.0129755 -0.0117183)
(0.141439 -0.0103409 -0.00454078)
(0.146234 -0.00424055 0.00104671)
(0.145488 0.000126876 0.00432399)
(0.138685 -7.08561e-05 0.00451792)
(0.131234 -0.00247212 0.00224611)
(0.130949 -0.00300014 0.000709188)
(0.138442 -0.000922571 0.00235156)
(0.144799 0.000322797 0.00541034)
(0.142477 -0.00214409 0.00604412)
(0.136491 -0.00613368 0.00396102)
(0.138965 -0.00691817 0.00367119)
(0.148081 -0.00370015 0.00696636)
(0.148482 -0.000120774 0.00953955)
(0.136726 0.00129313 0.00942844)
(0.122197 0.000893388 0.00917745)
(0.112347 -0.000476181 0.00996679)
(0.10896 -0.00234073 0.010362)
(0.111401 -0.00425038 0.00917852)
(0.116767 -0.00601191 0.0071145)
(0.119649 -0.00814649 0.00665428)
(0.116956 -0.0107742 0.0098163)
(0.111521 -0.0127985 0.0150686)
(0.108643 -0.0133888 0.0181286)
(0.111395 -0.0125298 0.0157526)
(0.119447 -0.00980946 0.00799284)
(0.127672 -0.00511008 -0.0015205)
(0.128275 -0.000413445 -0.00776439)
(0.11983 0.00199854 -0.00819241)
(0.109144 0.00146322 -0.00372392)
(0.103121 -0.000853052 0.00267067)
(0.105503 -0.00223841 0.0073742)
(0.115611 -0.000742631 0.00800768)
(0.127304 0.00225953 0.00380562)
(0.133948 0.00315375 -0.00495311)
(0.134339 0.000230825 -0.0157164)
(0.13164 -0.00415112 -0.0240219)
(0.128883 -0.00691349 -0.0269828)
(0.128202 -0.00873934 -0.0248615)
(0.130531 -0.0113272 -0.0191623)
(0.137491 -0.0135205 -0.0143233)
(0.142693 -0.0126545 -0.00716168)
(0.146702 -0.00753422 -0.00233388)
(0.147467 -0.00193034 0.00062997)
(0.143905 0.000170593 0.00225864)
(0.137118 -0.00114725 0.00175528)
(0.131836 -0.00280508 0.000227824)
(0.133796 -0.00242212 0.000663968)
(0.141825 -0.00109036 0.00334678)
(0.146994 -0.00196383 0.00519278)
(0.143738 -0.0057922 0.00429353)
(0.139639 -0.00889377 0.00337001)
(0.144048 -0.00743486 0.00554792)
(0.150717 -0.00255664 0.00834926)
(0.148228 0.00153116 0.0087208)
(0.137486 0.0028652 0.00857813)
(0.126226 0.00173509 0.00976668)
(0.119256 -0.00129105 0.0105195)
(0.118786 -0.00511265 0.00896271)
(0.125107 -0.0077921 0.00583079)
(0.132449 -0.00884134 0.00375531)
(0.132828 -0.00996367 0.00559385)
(0.126177 -0.0115352 0.0110877)
(0.118964 -0.0123468 0.016009)
(0.116052 -0.0118111 0.0162315)
(0.118617 -0.00961556 0.0107718)
(0.123991 -0.0051961 0.00205647)
(0.126287 0.000196352 -0.00550873)
(0.122401 0.00362458 -0.00841206)
(0.115459 0.00345275 -0.00600296)
(0.110209 0.000725052 -0.0002524)
(0.109492 -0.00168496 0.00556539)
(0.11459 -0.00129221 0.00862581)
(0.124113 0.00157103 0.00753557)
(0.134074 0.00363463 0.00177517)
(0.140803 0.0021932 -0.0076714)
(0.142655 -0.0018267 -0.0172628)
(0.140257 -0.00514376 -0.0232691)
(0.136245 -0.0075143 -0.0245442)
(0.134577 -0.0107086 -0.0212184)
(0.141756 -0.0131432 -0.0165863)
(0.145707 -0.0138034 -0.00983841)
(0.147852 -0.010348 -0.00500089)
(0.146838 -0.00494676 -0.0020655)
(0.144308 -0.000959007 0.000533745)
(0.14065 -0.000115353 0.00181446)
(0.136138 -0.00148408 0.000931563)
(0.134486 -0.00288701 0.00033825)
(0.139205 -0.00317102 0.00210647)
(0.146102 -0.00357177 0.00441692)
(0.147166 -0.00589652 0.00434829)
(0.142584 -0.00918985 0.00277788)
(0.141216 -0.00963656 0.00340947)
(0.145572 -0.00561446 0.00612238)
(0.147431 2.19985e-05 0.00778553)
(0.141772 0.00370637 0.00831895)
(0.132799 0.00416881 0.00895958)
(0.126046 0.00131844 0.00816136)
(0.123814 -0.00402152 0.0045936)
(0.128234 -0.00888646 0.000367348)
(0.13869 -0.0101156 -0.00176297)
(0.145403 -0.00925521 9.06433e-05)
(0.141101 -0.00943336 0.00602143)
(0.130875 -0.0102244 0.0124427)
(0.122764 -0.009759 0.0150013)
(0.12025 -0.00759546 0.0121428)
(0.122457 -0.00376291 0.00533213)
(0.125266 0.00118332 -0.00241959)
(0.124935 0.00481219 -0.0079259)
(0.121846 0.00497248 -0.00898043)
(0.118795 0.00220939 -0.00565503)
(0.117759 -0.0005932 -0.000478124)
(0.119389 -0.00097508 0.00367382)
(0.124009 0.000902113 0.00537984)
(0.131895 0.00253142 0.00366222)
(0.141833 0.00199634 -0.0023005)
(0.149054 -0.000316483 -0.0110166)
(0.149282 -0.00274526 -0.0186198)
(0.144583 -0.00530498 -0.022421)
(0.140779 -0.00928223 -0.0217022)
(0.148271 -0.011975 -0.0176572)
(0.150396 -0.0133774 -0.0123441)
(0.149906 -0.0112828 -0.00815141)
(0.146044 -0.00707829 -0.0048443)
(0.142387 -0.00276104 -0.000798629)
(0.140561 -0.000126414 0.00237383)
(0.138953 -0.000139958 0.00227435)
(0.13787 -0.00215831 0.000835225)
(0.140259 -0.00424943 0.00162185)
(0.145703 -0.00510216 0.0042063)
(0.148511 -0.00596283 0.00481043)
(0.145208 -0.00814662 0.00245666)
(0.139635 -0.00962639 0.00117886)
(0.136962 -0.0073607 0.00359816)
(0.135656 -0.00215764 0.0072898)
(0.132389 0.00249057 0.00935106)
(0.128991 0.00448785 0.00848735)
(0.12801 0.00325394 0.00412102)
(0.128209 -0.00156629 -0.00203175)
(0.129797 -0.00816081 -0.00613421)
(0.137766 -0.0116752 -0.0063979)
(0.14919 -0.0100521 -0.00353089)
(0.151367 -0.00768396 0.00222127)
(0.141735 -0.00730908 0.00894374)
(0.129582 -0.00679434 0.0130248)
(0.122875 -0.00450275 0.0124502)
(0.123061 -0.00108121 0.00772575)
(0.126815 0.00260028 0.000663922)
(0.129602 0.00524924 -0.00634717)
(0.129633 0.00528202 -0.0105569)
(0.128698 0.00285061 -0.0105059)
(0.128577 0.000421195 -0.00757386)
(0.12923 8.72735e-05 -0.00398045)
(0.130622 0.00098356 -0.000653771)
(0.13436 0.00078401 0.00120147)
(0.142088 -0.000521543 -0.000870359)
(0.150923 -0.0011159 -0.00722071)
(0.15436 -0.00120657 -0.0147261)
(0.151551 -0.00303553 -0.0199177)
(0.148123 -0.00750211 -0.0209776)
(0.155147 -0.00967602 -0.0172018)
(0.15609 -0.0111577 -0.0137937)
(0.154186 -0.0101831 -0.0108667)
(0.148308 -0.00777432 -0.00766512)
(0.142493 -0.0041819 -0.00255676)
(0.139858 -0.000504087 0.00238971)
(0.139508 0.000990961 0.00374981)
(0.140131 -0.000791368 0.00241066)
(0.14237 -0.00412266 0.00223196)
(0.146326 -0.00596782 0.00433485)
(0.148863 -0.00584906 0.00532912)
(0.146159 -0.00603512 0.00267107)
(0.138399 -0.00691434 -0.000518128)
(0.129996 -0.00617676 7.43953e-05)
(0.1246 -0.00293377 0.0035366)
(0.122816 0.000844447 0.00555926)
(0.124801 0.00322023 0.00362398)
(0.129289 0.00346214 -0.0015952)
(0.132802 0.000475355 -0.00678297)
(0.134095 -0.00609357 -0.00829446)
(0.138014 -0.0124551 -0.00561572)
(0.147643 -0.0129673 -0.00129406)
(0.153885 -0.00878565 0.00342598)
(0.14795 -0.00549238 0.0084952)
(0.135095 -0.00391151 0.0120723)
(0.125744 -0.00173915 0.012097)
(0.124086 0.00126047 0.00852962)
(0.127332 0.00377613 0.00271064)
(0.130612 0.00491922 -0.00339773)
(0.131454 0.00417878 -0.00752199)
(0.131592 0.00189768 -0.00869732)
(0.133326 -8.59829e-05 -0.00804211)
(0.136019 -8.77572e-05 -0.00620244)
(0.138051 0.000760192 -0.00275268)
(0.13951 -0.000153038 0.000682081)
(0.142494 -0.00224543 0.000334984)
(0.148285 -0.00234781 -0.00479473)
(0.153934 -0.000693635 -0.011628)
(0.155876 -0.00123653 -0.0168569)
(0.15514 -0.00536087 -0.0188192)
(0.160357 -0.00679288 -0.0153682)
(0.161121 -0.00813595 -0.0140399)
(0.159965 -0.00797263 -0.0125085)
(0.153908 -0.00712635 -0.0102216)
(0.145718 -0.00465108 -0.00542704)
(0.14061 -0.000676286 0.000750582)
(0.139802 0.00195407 0.00470815)
(0.141347 0.000857283 0.00511179)
(0.143683 -0.00276746 0.00415456)
(0.146298 -0.00540762 0.00440361)
(0.14793 -0.00537287 0.005259)
(0.146215 -0.00439624 0.00389268)
(0.140082 -0.00400104 0.000237094)
(0.131975 -0.00324794 -0.0024452)
(0.12619 -0.00135764 -0.00234512)
(0.125074 0.000622215 -0.00122548)
(0.127985 0.00177033 -0.00154929)
(0.132959 0.00224506 -0.00407294)
(0.137784 0.00111474 -0.00722375)
(0.140875 -0.00372232 -0.00782599)
(0.143596 -0.0110247 -0.00447161)
(0.148784 -0.0146867 0.000755659)
(0.153244 -0.011308 0.00521979)
(0.149799 -0.00547047 0.00875877)
(0.139168 -0.00149524 0.011627)
(0.129334 0.000986712 0.012434)
(0.125247 0.00306633 0.0100168)
(0.125343 0.00462618 0.00542534)
(0.125937 0.00510469 0.00119625)
(0.125776 0.00390026 -0.000959172)
(0.126671 0.00119762 -0.00162342)
(0.130253 -0.00113226 -0.0022938)
(0.13522 -0.00117553 -0.00218845)
(0.138725 0.000158128 0.000630279)
(0.13958 1.27181e-05 0.00400837)
(0.13964 -0.00168411 0.0031668)
(0.142195 -0.00223632 -0.00245654)
(0.148367 -0.00104536 -0.00884194)
(0.155315 -0.000919695 -0.0131626)
(0.15925 -0.0035479 -0.0152606)
(0.162773 -0.00390372 -0.0122061)
(0.165122 -0.00488367 -0.0127602)
(0.165318 -0.00530218 -0.0129885)
(0.159921 -0.00533971 -0.0122863)
(0.150322 -0.00375846 -0.00863605)
(0.142599 -0.000263781 -0.00212645)
(0.140121 0.00264103 0.0038112)
(0.14155 0.00215208 0.00636085)
(0.143946 -0.00121888 0.00594941)
(0.145528 -0.00424741 0.00507918)
(0.145681 -0.00482162 0.00506517)
(0.143738 -0.00369022 0.00444132)
(0.139417 -0.00238518 0.00178457)
(0.134526 -0.00114235 -0.00171809)
(0.131995 0.000152329 -0.00375671)
(0.132653 0.000883359 -0.00354751)
(0.134824 0.000744491 -0.00234707)
(0.137405 0.000661241 -0.00234947)
(0.14057 0.000724251 -0.00432982)
(0.143465 -0.00142783 -0.00577602)
(0.145733 -0.00709895 -0.00399604)
(0.148856 -0.0123614 0.000238797)
(0.152081 -0.0116282 0.00455903)
(0.150982 -0.00565276 0.00804597)
(0.143878 0.000490924 0.0105443)
(0.13505 0.00424544 0.0113624)
(0.128745 0.00573148 0.0102449)
(0.125168 0.0056111 0.00791639)
(0.12322 0.00443292 0.00545592)
(0.12305 0.00229729 0.00368933)
(0.125461 -0.000796536 0.0027008)
(0.130047 -0.00352091 0.00179991)
(0.134883 -0.0037344 0.00116813)
(0.137967 -0.00133566 0.00246259)
(0.138704 0.000888307 0.00509684)
(0.138367 0.000986889 0.00512643)
(0.139423 0.000113398 0.000577214)
(0.144109 -0.000248416 -0.00536689)
(0.151846 -0.000705018 -0.00922502)
(0.158825 -0.0021492 -0.0110931)
(0.162163 -0.00220761 -0.00966813)
(0.166114 -0.00251021 -0.0107346)
(0.167725 -0.00275263 -0.0118096)
(0.16394 -0.0028112 -0.0127457)
(0.155269 -0.0014575 -0.0114497)
(0.146916 0.00132565 -0.00630905)
(0.142479 0.00332808 0.000579971)
(0.14152 0.00253619 0.00544954)
(0.142041 -0.000262845 0.00669926)
(0.142554 -0.00249323 0.00595465)
(0.142344 -0.00283039 0.00539947)
(0.141122 -0.00207278 0.00471611)
(0.13925 -0.00119049 0.00249397)
(0.138189 -0.000382058 -0.000646178)
(0.13903 2.36913e-05 -0.00260941)
(0.140575 -0.000540839 -0.00238524)
(0.140527 -0.00169213 -0.000658507)
(0.138976 -0.00183426 0.000946741)
(0.138536 -0.000412275 0.00117313)
(0.140472 -0.000225278 0.000893068)
(0.143892 -0.00426451 0.00199453)
(0.147555 -0.00994109 0.00444804)
(0.149919 -0.0108028 0.00646893)
(0.148745 -0.00500536 0.00744645)
(0.143055 0.00256264 0.00849898)
(0.135291 0.00714058 0.00949369)
(0.128783 0.00774175 0.00937039)
(0.124677 0.0060043 0.00824769)
(0.122743 0.00409808 0.00726014)
(0.122987 0.00273831 0.00685477)
(0.125632 0.00091854 0.00638801)
(0.130071 -0.00159859 0.00530772)
(0.134521 -0.00286163 0.00434179)
(0.137303 -0.001167 0.00482045)
(0.138262 0.00201727 0.00646808)
(0.138771 0.00371718 0.0066225)
(0.140348 0.00338157 0.00335574)
(0.143998 0.0020838 -0.00175045)
(0.150002 0.000426429 -0.00588778)
(0.156745 -0.0012035 -0.00824572)
(0.160776 -0.00238087 -0.00862613)
(0.165255 -0.00134944 -0.00942363)
(0.166706 -9.11021e-05 -0.0100612)
(0.16452 0.000369941 -0.0110272)
(0.159776 0.000915251 -0.0113629)
(0.154892 0.00258823 -0.00912629)
(0.150904 0.00410755 -0.0042114)
(0.147192 0.00329434 0.000902429)
(0.143505 0.000413972 0.00386579)
(0.140591 -0.00204897 0.00471846)
(0.139393 -0.00257526 0.00500354)
(0.140351 -0.00184868 0.00518366)
(0.143216 -0.000857147 0.00435367)
(0.147267 3.26988e-05 0.00227569)
(0.150761 0.000249559 0.000324073)
(0.151172 -0.000711666 0.000277569)
(0.147588 -0.00185574 0.00265215)
(0.142301 -0.00144235 0.00590572)
(0.139422 0.00071723 0.007015)
(0.140741 0.00210997 0.00463308)
(0.144296 -0.000334941 0.001728)
(0.147571 -0.00573151 0.00223428)
(0.149097 -0.00831552 0.00556933)
(0.147653 -0.00393888 0.00775165)
(0.142711 0.00416082 0.00760231)
(0.136018 0.00995454 0.00695908)
(0.130676 0.0111377 0.00683578)
(0.127986 0.00911923 0.00665933)
(0.127261 0.0062525 0.00580508)
(0.127701 0.00400391 0.00458001)
(0.129181 0.00236394 0.00384645)
(0.131807 0.000942512 0.00392543)
(0.135079 0.00030848 0.00434405)
(0.138215 0.00125726 0.00500202)
(0.140496 0.00331221 0.00626693)
(0.141608 0.00478123 0.00726686)
(0.142355 0.00459851 0.00595401)
(0.14415 0.00284286 0.00185394)
(0.148265 0.000290038 -0.00308044)
(0.154465 -0.00183091 -0.00674319)
(0.158751 -0.00551958 -0.00746272)
(0.162501 -0.00375269 -0.00828706)
(0.163468 -0.000280615 -0.00812462)
(0.161307 0.00219794 -0.00831504)
(0.157168 0.00311127 -0.00875989)
(0.153645 0.00380124 -0.00829158)
(0.152233 0.00470631 -0.00626116)
(0.151837 0.00456482 -0.00323858)
(0.150305 0.00249643 -0.000419523)
(0.146878 -0.00065647 0.00152827)
(0.142954 -0.00364088 0.00298297)
(0.14094 -0.00617743 0.00434495)
(0.142495 -0.00800951 0.00512961)
(0.147469 -0.00812662 0.00462878)
(0.153365 -0.00612194 0.00299745)
(0.155963 -0.0032535 0.0015953)
(0.152931 -0.000942663 0.00209746)
(0.146446 0.00118041 0.00406635)
(0.141139 0.00366747 0.00453262)
(0.13965 0.00516339 0.00146766)
(0.140991 0.0037569 -0.00293208)
(0.143503 -0.000516678 -0.00415377)
(0.145964 -0.00457723 -0.00070009)
(0.146595 -0.00414713 0.00406599)
(0.144573 0.00154956 0.00644807)
(0.141453 0.00848508 0.00615608)
(0.139573 0.0124643 0.00444564)
(0.139329 0.0124498 0.00206641)
(0.139274 0.00985467 -0.000228896)
(0.138596 0.0066762 -0.00132503)
(0.13775 0.00412501 -0.000624795)
(0.137537 0.00250486 0.00136935)
(0.138031 0.00193977 0.00345572)
(0.138646 0.00241187 0.00493077)
(0.139093 0.00329178 0.00609224)
(0.139496 0.00376558 0.00706534)
(0.140465 0.00350309 0.00678797)
(0.142901 0.00214768 0.0042438)
(0.147364 -0.000658816 -9.73666e-05)
(0.153194 -0.00400788 -0.00457087)
(0.157012 -0.00368985 -0.00565955)
(0.155974 -0.000614393 -0.00791569)
(0.152349 0.00312308 -0.00839013)
(0.148342 0.00537117 -0.00805977)
(0.145399 0.0054845 -0.00755319)
(0.144166 0.00446842 -0.00718978)
(0.144787 0.00337811 -0.0070072)
(0.147055 0.0024017 -0.00649893)
(0.150306 0.00123958 -0.00503036)
(0.153217 -0.000214338 -0.00265879)
(0.154143 -0.00196261 -9.07925e-05)
(0.152606 -0.00435375 0.00220588)
(0.150082 -0.00742166 0.00428914)
(0.14881 -0.00993009 0.00623128)
(0.149843 -0.0101911 0.00745136)
(0.151664 -0.00779047 0.00710852)
(0.151417 -0.00362869 0.00535004)
(0.148052 0.000997716 0.00338358)
(0.143586 0.00431491 0.00166719)
(0.140679 0.00460304 -0.000511029)
(0.140124 0.00176479 -0.00300992)
(0.141739 -0.00218052 -0.00383368)
(0.144809 -0.00457522 -0.00142027)
(0.147351 -0.00374745 0.00306055)
(0.147839 0.00028051 0.00659266)
(0.147232 0.0056181 0.0069554)
(0.14731 0.00968297 0.00385741)
(0.148073 0.0111411 -0.00133825)
(0.148232 0.0100079 -0.00626801)
(0.147315 0.00702136 -0.00881914)
(0.14581 0.0036718 -0.00817124)
(0.144241 0.00176961 -0.00483861)
(0.142894 0.0020664 -0.000205326)
(0.141743 0.00346089 0.00424578)
(0.140657 0.00397993 0.00783978)
(0.139944 0.00262652 0.010481)
(0.140524 0.000117114 0.0114416)
(0.143466 -0.0022968 0.00954453)
(0.148709 -0.00402715 0.00473941)
(0.154166 -0.0047194 -0.00111397)
(0.158911 0.000878995 0.00332991)
(0.161235 0.00435467 -0.00124906)
(0.161407 0.00764903 -0.00529432)
(0.158883 0.00897692 -0.00859528)
(0.154624 0.00790772 -0.0106858)
(0.150631 0.00544622 -0.0112414)
(0.148498 0.00269874 -0.0105822)