/*--------------------------------*- C++ -*----------------------------------*\
| =========                 |                                                 |
| \\      /  F ield         | OpenFOAM: The Open Source CFD Toolbox           |
|  \\    /   O peration     | Version:  2306                                  |
|   \\  /    A nd           | Website:  www.openfoam.com                      |
|    \\/     M anipulation  |                                                 |
\*---------------------------------------------------------------------------*/
FoamFile
{
    version     2.0;
    format      ascii;
    arch        "LSB;label=32;scalar=64";
    class       volScalarField;
    location    "4.5";
    object      p;
}
// * * * * * * * * * * * * * * * * * * * * * * * * * * * * * * * * * * * * * //

dimensions      [0 2 -2 0 0 0 0];

internalField   nonuniform List<scalar> 
60000
(
-3.36229e-05
-9.9259e-05
-0.000164774
-0.000182336
-0.000153874
-0.000117221
-9.64351e-05
-8.51231e-05
-7.20289e-05
-6.58624e-05
-8.00799e-05
-0.000100184
-9.99591e-05
-6.39948e-05
-9.2754e-06
3.86283e-05
4.73162e-05
1.19036e-05
-3.34449e-05
-6.82611e-05
-0.000110872
-0.000172191
-0.000223293
-0.000231197
-0.000178599
-9.19914e-05
-2.19753e-05
7.06641e-06
-9.84852e-06
-5.21801e-05
-6.50501e-05
-1.4434e-05
4.66425e-05
7.20356e-05
6.64464e-05
4.4064e-05
1.35289e-05
-1.35358e-05
-1.78218e-05
-1.06966e-05
-3.16706e-05
-9.76456e-05
-0.000164987
-0.000184101
-0.000155953
-0.000118597
-9.70325e-05
-8.5506e-05
-7.25763e-05
-6.67664e-05
-8.12457e-05
-0.000101607
-0.000101411
-6.53825e-05
-1.04955e-05
3.78167e-05
4.71878e-05
1.22652e-05
-3.28937e-05
-6.74387e-05
-0.000110055
-0.000171607
-0.000223558
-0.000232257
-0.000179972
-9.33182e-05
-2.33062e-05
5.86942e-06
-1.08295e-05
-5.31846e-05
-6.66207e-05
-1.60696e-05
4.58612e-05
7.20319e-05
6.70163e-05
4.53048e-05
1.51864e-05
-1.17893e-05
-1.63579e-05
-8.83962e-06
-3.05609e-05
-9.73074e-05
-0.00016758
-0.000188568
-0.000160276
-0.000121194
-9.80393e-05
-8.59644e-05
-7.31012e-05
-6.73036e-05
-8.20348e-05
-0.000103066
-0.000103588
-6.78731e-05
-1.25677e-05
3.69551e-05
4.77626e-05
1.34819e-05
-3.18184e-05
-6.65406e-05
-0.000109594
-0.000171836
-0.000225269
-0.00023431
-0.00018171
-9.44502e-05
-2.44827e-05
4.64245e-06
-1.21383e-05
-5.51496e-05
-6.9742e-05
-1.89793e-05
4.43316e-05
7.13745e-05
6.71495e-05
4.65051e-05
1.67673e-05
-1.07187e-05
-1.60453e-05
-7.65693e-06
-3.03044e-05
-9.8261e-05
-0.000172998
-0.000196233
-0.000167326
-0.000125504
-9.98144e-05
-8.66664e-05
-7.36134e-05
-6.7568e-05
-8.24148e-05
-0.000104394
-0.000106193
-7.13746e-05
-1.56403e-05
3.60399e-05
4.93027e-05
1.58782e-05
-3.0025e-05
-6.52699e-05
-0.000109553
-0.000172939
-0.000228079
-0.000237273
-0.000183459
-9.4733e-05
-2.48406e-05
3.58207e-06
-1.42364e-05
-5.85577e-05
-7.46244e-05
-2.29733e-05
4.23315e-05
7.00356e-05
6.64724e-05
4.75144e-05
1.82866e-05
-1.03065e-05
-1.69595e-05
-6.78082e-06
-2.985e-05
-9.93032e-05
-0.000180258
-0.000206531
-0.000177181
-0.000131942
-0.000102779
-8.78575e-05
-7.42234e-05
-6.75808e-05
-8.22453e-05
-0.000104968
-0.000108226
-7.51353e-05
-1.98146e-05
3.43978e-05
5.14355e-05
1.95768e-05
-2.71457e-05
-6.34221e-05
-0.000109088
-0.000174532
-0.000232269
-0.000241558
-0.000186324
-9.60005e-05
-2.58253e-05
2.38193e-06
-1.73466e-05
-6.37041e-05
-8.11001e-05
-2.73745e-05
4.06668e-05
6.85432e-05
6.49112e-05
4.80743e-05
2.02172e-05
-9.82166e-06
-1.80245e-05
-6.48928e-06
-2.40418e-05
-0.000101156
-0.00018973
-0.000219159
-0.000189921
-0.000141051
-0.000107356
-8.95959e-05
-7.50464e-05
-6.77295e-05
-8.17606e-05
-0.000104602
-0.000108521
-7.75096e-05
-2.40939e-05
3.17163e-05
5.34837e-05
2.4499e-05
-2.2728e-05
-6.04007e-05
-0.000108433
-0.000177306
-0.000238634
-0.000249524
-0.00019281
-0.000100232
-3.30558e-05
-5.0486e-06
-2.3443e-05
-7.05368e-05
-8.87523e-05
-3.16781e-05
4.03443e-05
6.83327e-05
6.34021e-05
4.84433e-05
2.2927e-05
-8.45002e-06
-1.85421e-05
-5.10964e-06
-1.3435e-05
-9.55167e-05
-0.000198888
-0.000237853
-0.000209069
-0.000155032
-0.000115062
-9.21133e-05
-7.55895e-05
-6.81695e-05
-8.21919e-05
-0.000103609
-0.000106964
-7.70259e-05
-2.64294e-05
2.89582e-05
5.5011e-05
3.02872e-05
-1.64897e-05
-5.55054e-05
-0.000106698
-0.000180744
-0.000247761
-0.000262538
-0.000204735
-0.000107848
-4.2373e-05
-1.965e-05
-3.9211e-05
-8.36935e-05
-9.89416e-05
-3.66186e-05
4.10674e-05
7.04783e-05
6.41525e-05
4.98642e-05
2.65544e-05
-5.36374e-06
-1.93866e-05
-3.19694e-06
3.27495e-07
-7.89103e-05
-0.000199559
-0.000256011
-0.000237424
-0.000176671
-0.000128114
-9.7714e-05
-7.64666e-05
-6.77948e-05
-8.42124e-05
-0.000105822
-0.000105226
-7.30762e-05
-2.4767e-05
2.84963e-05
5.64742e-05
3.64285e-05
-8.51535e-06
-4.84375e-05
-0.000103588
-0.000184177
-0.00025663
-0.000273774
-0.00021395
-0.000109665
-4.08879e-05
-2.82186e-05
-5.75742e-05
-0.000105472
-0.000116087
-4.49774e-05
3.87923e-05
7.06257e-05
6.75167e-05
5.56833e-05
3.38101e-05
-3.39102e-06
-2.34456e-05
-4.86706e-06
1.28956e-05
-5.23709e-05
-0.000191019
-0.0002714
-0.000267212
-0.000206536
-0.000146679
-0.00010606
-8.01736e-05
-6.87097e-05
-8.5439e-05
-0.000110021
-0.000108701
-7.31344e-05
-2.01699e-05
3.24025e-05
5.96608e-05
4.2582e-05
6.81884e-07
-3.96247e-05
-9.96383e-05
-0.000187421
-0.000261796
-0.000274573
-0.000206659
-9.20948e-05
-1.93365e-05
-1.73095e-05
-6.63119e-05
-0.000132275
-0.000143605
-5.87276e-05
3.56098e-05
6.83797e-05
6.24926e-05
5.46114e-05
3.8567e-05
-2.65628e-07
-2.8234e-05
-1.20663e-05
2.19218e-05
-1.62937e-05
-0.000168469
-0.000280747
-0.000297519
-0.000241789
-0.000172306
-0.000117564
-8.50011e-05
-7.13978e-05
-8.85543e-05
-0.000113381
-0.000111473
-7.84664e-05
-2.88169e-05
2.82272e-05
6.33212e-05
4.79717e-05
9.82798e-06
-3.00133e-05
-9.56551e-05
-0.000192166
-0.000265261
-0.000267488
-0.00018379
-5.15944e-05
2.92864e-05
1.85279e-05
-6.00179e-05
-0.000151575
-0.000177678
-7.90388e-05
2.58273e-05
6.11003e-05
5.56242e-05
5.05246e-05
3.7885e-05
1.43873e-06
-2.82365e-05
-1.91232e-05
2.75961e-05
2.20676e-05
-0.000125423
-0.000271565
-0.000317293
-0.000285227
-0.000206764
-0.000134551
-8.9898e-05
-7.29128e-05
-8.90745e-05
-0.000116093
-0.000115487
-8.47525e-05
-4.34127e-05
6.37064e-06
4.797e-05
4.82418e-05
1.59084e-05
-2.1542e-05
-9.2044e-05
-0.000199387
-0.000271237
-0.000261258
-0.000159013
-4.25632e-06
9.25556e-05
8.05593e-05
-3.08889e-05
-0.000158156
-0.00020766
-0.00011977
4.21919e-06
4.2822e-05
4.1772e-05
4.64871e-05
4.0667e-05
1.37094e-05
-1.69011e-05
-1.80355e-05
3.23838e-05
5.06897e-05
-7.27401e-05
-0.000236118
-0.00031352
-0.000312294
-0.00025049
-0.000161034
-9.66477e-05
-7.19665e-05
-8.69578e-05
-0.000115148
-0.00011679
-9.59245e-05
-5.52991e-05
-1.59141e-05
1.60784e-05
2.18825e-05
3.49522e-06
-2.29589e-05
-8.63098e-05
-0.000202281
-0.000269507
-0.000254718
-0.000143613
2.61968e-05
0.000137872
0.000149791
2.55595e-05
-0.000134756
-0.00021018
-0.000143358
-2.60887e-05
1.51517e-05
2.27787e-05
4.05177e-05
5.26131e-05
3.4874e-05
1.23133e-05
-1.55528e-06
3.61968e-05
6.0939e-05
-2.77704e-05
-0.000181896
-0.00028238
-0.000312767
-0.000282803
-0.000193255
-0.000109303
-7.28751e-05
-8.40409e-05
-0.000112332
-0.000116947
-9.3289e-05
-5.98674e-05
-2.9064e-05
-8.66027e-06
-1.25216e-05
-3.6084e-05
-4.55567e-05
-8.69057e-05
-0.000160332
-0.00024749
-0.000231573
-0.000135002
8.77865e-06
0.000138918
0.000191689
9.27044e-05
-7.79553e-05
-0.000179179
-0.000149487
-5.51205e-05
-1.35122e-05
6.39801e-06
2.98037e-05
5.53604e-05
5.40585e-05
4.66797e-05
3.35496e-05
4.09314e-05
4.92882e-05
1.32553e-06
-0.000118992
-0.000227987
-0.000285283
-0.000289493
-0.000218902
-0.000120995
-7.52709e-05
-8.41435e-05
-0.000110716
-0.000119284
-9.53789e-05
-6.2592e-05
-3.37808e-05
-1.61868e-05
-3.10135e-05
-6.86743e-05
-7.04192e-05
-9.08837e-05
-0.000149084
-0.000216483
-0.000208339
-0.000132028
-1.60482e-05
0.000109168
0.000191542
0.000137792
-1.06086e-05
-0.000122764
-0.000135634
-7.70617e-05
-3.75501e-05
-7.90731e-06
2.61878e-05
5.52698e-05
6.0683e-05
6.70128e-05
5.37255e-05
2.37755e-05
3.31172e-05
2.7556e-05
-5.39318e-05
-0.000158343
-0.000235431
-0.000271328
-0.000223726
-0.00012926
-7.4933e-05
-8.3488e-05
-0.000111116
-0.000121641
-0.000103504
-7.13031e-05
-3.84106e-05
-1.48943e-05
-2.72228e-05
-6.83002e-05
-7.46083e-05
-8.65272e-05
-0.000126588
-0.000203324
-0.000197056
-0.000129941
-4.38479e-05
6.23191e-05
0.000164298
0.00015575
3.85741e-05
-6.88305e-05
-0.000108551
-9.18236e-05
-5.64813e-05
-2.02838e-05
1.62102e-05
4.49518e-05
6.15447e-05
7.39435e-05
5.82788e-05
2.24987e-05
2.06496e-05
3.06826e-05
-3.67024e-06
-8.99226e-05
-0.000172814
-0.000234301
-0.000211169
-0.000125844
-7.49917e-05
-8.2163e-05
-0.000117654
-0.000124548
-0.000106858
-7.97698e-05
-4.81662e-05
-2.21263e-05
-2.05457e-05
-5.07308e-05
-6.95003e-05
-7.89632e-05
-0.000117817
-0.000184747
-0.000181457
-0.000111169
-5.7043e-05
6.58685e-06
0.000116955
0.000148194
6.78703e-05
-2.86989e-05
-8.68124e-05
-9.39926e-05
-7.16929e-05
-3.94403e-05
-6.5846e-06
2.99924e-05
5.85139e-05
7.15623e-05
5.61181e-05
1.27995e-05
1.33682e-05
2.25786e-05
4.19064e-06
-5.48727e-05
-0.000114486
-0.000180323
-0.000181422
-0.000117068
-7.40183e-05
-9.16913e-05
-0.000121089
-0.000134039
-0.000112211
-8.49468e-05
-5.22325e-05
-2.99963e-05
-2.34073e-05
-4.35585e-05
-6.58975e-05
-6.88085e-05
-0.000102018
-0.000158485
-0.00015378
-8.87277e-05
-4.34728e-05
-2.03093e-05
6.33073e-05
0.000114372
7.25056e-05
4.00979e-06
-6.21516e-05
-9.53926e-05
-8.56749e-05
-5.25866e-05
-2.14912e-05
1.52421e-05
4.38477e-05
6.84651e-05
5.61239e-05
1.38789e-05
-1.40673e-05
-8.00029e-06
-7.08623e-06
-1.7792e-05
-6.57802e-05
-0.000115268
-0.000133857
-0.000104974
-7.94963e-05
-9.80346e-05
-0.000124407
-0.000141988
-0.000114714
-9.40311e-05
-6.1188e-05
-3.12211e-05
-1.13797e-05
-2.95001e-05
-6.40994e-05
-7.38336e-05
-9.37611e-05
-0.00013779
-0.00013876
-8.24828e-05
-3.191e-05
-2.40235e-05
3.31814e-05
5.90785e-05
5.79332e-05
6.68068e-06
-5.69711e-05
-9.62479e-05
-9.21956e-05
-5.92223e-05
-1.75917e-05
2.14203e-05
3.81586e-05
6.63893e-05
5.31659e-05
8.71532e-07
-3.32622e-05
-3.96334e-05
-2.63619e-05
-3.53331e-05
-6.2116e-05
-7.34101e-05
-7.44758e-05
-6.96834e-05
-8.31043e-05
-0.000108407
-0.000136724
-0.000150508
-0.000147278
-0.000116972
-8.86038e-05
-5.18855e-05
-1.51027e-05
-2.11098e-05
-4.50963e-05
-6.0601e-05
-6.18292e-05
-9.70231e-05
-0.000117529
-8.50917e-05
-3.41404e-05
-3.59502e-05
1.48573e-05
5.62732e-05
5.77301e-05
-1.4407e-06
-7.13017e-05
-0.000100014
-8.57015e-05
-5.68659e-05
-2.1473e-05
2.07614e-05
5.33736e-05
6.57843e-05
4.60413e-05
-1.12577e-05
-4.37477e-05
-6.40937e-05
-6.49036e-05
-6.51997e-05
-7.18531e-05
-7.52405e-05
-7.62827e-05
-6.76664e-05
-7.00665e-05
-9.53511e-05
-0.000121359
-0.000137412
-0.000143211
-0.000135553
-0.000128038
-0.000104493
-6.73117e-05
-4.71735e-05
-4.70734e-05
-4.62268e-05
-3.58205e-05
-5.2351e-05
-8.95529e-05
-0.000100068
-8.31399e-05
-4.84607e-05
-2.12309e-05
5.0911e-05
5.48635e-05
-3.23729e-06
-7.57143e-05
-0.000108434
-0.000100981
-7.28608e-05
-3.96985e-05
6.53399e-06
4.11222e-05
4.557e-05
2.34276e-05
-3.40889e-06
-3.00904e-05
-6.40119e-05
-9.77346e-05
-0.000115603
-0.000114433
-8.72729e-05
-5.97182e-05
-5.52358e-05
-7.41875e-05
-0.000103365
-0.000121718
-0.000127515
-0.000132846
-0.000139487
-0.000145356
-0.000137883
-0.000112243
-8.39267e-05
-6.58411e-05
-5.28442e-05
-3.29312e-05
-3.36544e-05
-7.10365e-05
-0.000109375
-0.000104724
-5.33582e-05
4.74634e-06
6.57838e-05
5.81879e-05
-1.00708e-05
-0.000105047
-0.000167206
-0.000161538
-0.000113813
-5.6527e-05
-7.05359e-06
3.01559e-05
3.90494e-05
2.38568e-05
-1.52826e-05
-7.26384e-06
-1.25924e-05
-4.37573e-05
-8.60758e-05
-0.000113306
-9.89815e-05
-7.5394e-05
-5.90781e-05
-7.20565e-05
-9.89934e-05
-0.000118076
-0.00012599
-0.000129847
-0.000133931
-0.000135596
-0.000135984
-0.000132769
-0.000116979
-9.3845e-05
-6.34329e-05
-3.60608e-05
-2.9139e-05
-5.43118e-05
-9.03946e-05
-9.60337e-05
-5.95753e-05
-7.24793e-06
6.65434e-05
8.35429e-05
1.07548e-05
-0.000102152
-0.000186047
-0.000210637
-0.000166801
-9.11288e-05
-1.18977e-05
3.18555e-05
3.04079e-05
8.3192e-06
-7.97667e-06
-1.91544e-05
-1.66539e-05
-2.59408e-05
-4.40518e-05
-6.58174e-05
-8.58109e-05
-9.76839e-05
-8.76537e-05
-9.52818e-05
-0.000104688
-0.000107677
-0.000111879
-0.000120085
-0.000126997
-0.000118603
-0.000108862
-0.000103176
-0.000101569
-9.34946e-05
-6.90291e-05
-4.05293e-05
-2.74755e-05
-4.29272e-05
-7.20108e-05
-7.9412e-05
-5.40134e-05
-1.68447e-05
3.34303e-05
5.75946e-05
1.51447e-05
-6.66504e-05
-0.000138992
-0.000171914
-0.000152451
-0.000101198
-4.25435e-05
4.93796e-07
1.31111e-05
2.33531e-06
-4.74105e-06
-4.45556e-06
-4.17682e-06
-2.37515e-05
-6.14088e-05
-9.65021e-05
-0.000112034
-0.000123155
-0.000116709
-0.000106426
-9.46975e-05
-8.30205e-05
-7.9054e-05
-8.89571e-05
-0.000104609
-0.000119305
-0.000119962
-0.000115831
-9.39407e-05
-7.15362e-05
-5.5104e-05
-3.3729e-05
-2.00284e-05
-2.43039e-05
-4.79967e-05
-7.34234e-05
-7.91057e-05
-5.62483e-05
-1.47692e-05
1.18297e-05
3.39038e-06
-4.87021e-05
-0.000110417
-0.000147641
-0.000145098
-0.000114874
-7.08167e-05
-3.11012e-05
-1.37661e-05
-1.40649e-05
-1.69278e-05
-9.50577e-06
-7.52949e-06
-2.56894e-05
-6.22201e-05
-0.000106957
-0.000151112
-0.000155375
-0.000144472
-0.000129471
-0.000108589
-9.00535e-05
-8.32505e-05
-9.29526e-05
-0.000105961
-0.000106508
-9.85173e-05
-9.00974e-05
-8.93289e-05
-7.70984e-05
-3.61201e-05
-1.37614e-06
1.54089e-05
6.00655e-06
-3.14821e-05
-7.6207e-05
-0.000101875
-9.73353e-05
-7.34608e-05
-4.53816e-05
-2.02366e-05
-3.97846e-05
-8.47347e-05
-0.000121762
-0.000138554
-0.000126254
-9.08394e-05
-5.55847e-05
-3.33543e-05
-2.30697e-05
7.5609e-05
5.48208e-08
-0.000118346
-0.000209722
-0.00024866
-0.000238214
-0.000200408
-0.000152328
-0.000108478
-9.29624e-05
-0.000113624
-0.000136349
-0.000125955
-8.13846e-05
-2.89155e-05
4.97264e-06
1.01309e-06
-3.25687e-05
-5.99898e-05
-7.03069e-05
-8.8845e-05
-0.000138782
-0.000198968
-0.000223826
-0.000179681
-6.85476e-05
4.14353e-05
8.57532e-05
8.48179e-05
8.09846e-05
6.99532e-05
6.82921e-05
8.75542e-05
0.000111944
0.000125993
0.000114318
7.45809e-05
3.53888e-05
3.67357e-05
7.28299e-05
7.85148e-05
3.36164e-06
-0.000115404
-0.000207853
-0.000248319
-0.000238968
-0.00020163
-0.000153576
-0.000109597
-9.38888e-05
-0.000114639
-0.0001378
-0.000127654
-8.28329e-05
-3.0038e-05
4.23721e-06
6.59111e-07
-3.27762e-05
-6.01747e-05
-7.03181e-05
-8.86008e-05
-0.000138517
-0.000199263
-0.000225278
-0.00018266
-7.25893e-05
3.73301e-05
8.22597e-05
8.13611e-05
7.81424e-05
6.79714e-05
6.64037e-05
8.53707e-05
0.000109856
0.000124766
0.000114325
7.52981e-05
3.62892e-05
3.76472e-05
7.4109e-05
8.27667e-05
7.23008e-06
-0.00011351
-0.000208506
-0.000250938
-0.000242177
-0.000204528
-0.000155688
-0.000110823
-9.4545e-05
-0.0001157
-0.000139838
-0.000130218
-8.50913e-05
-3.16302e-05
3.38332e-06
3.94029e-07
-3.30208e-05
-6.05229e-05
-7.036e-05
-8.81178e-05
-0.0001382
-0.00020002
-0.000227402
-0.000186002
-7.61471e-05
3.44157e-05
7.99073e-05
7.80847e-05
7.54658e-05
6.65592e-05
6.49555e-05
8.30238e-05
0.00010697
0.000122925
0.00011468
7.66624e-05
3.71504e-05
3.85068e-05
7.61129e-05
8.88842e-05
1.11595e-05
-0.000113916
-0.000213205
-0.000257827
-0.000248628
-0.000209439
-0.000158798
-0.000112154
-9.48501e-05
-0.0001165
-0.000142207
-0.000133535
-8.81408e-05
-3.36879e-05
2.50247e-06
3.27652e-07
-3.32575e-05
-6.10065e-05
-7.02534e-05
-8.7317e-05
-0.000137883
-0.00020131
-0.000229855
-0.000188722
-7.8069e-05
3.41021e-05
7.99453e-05
7.55649e-05
7.3029e-05
6.55697e-05
6.40266e-05
8.10652e-05
0.000103815
0.000120328
0.000114744
7.81472e-05
3.75713e-05
3.91326e-05
7.87612e-05
9.7433e-05
1.56017e-05
-0.000116422
-0.000222096
-0.000269422
-0.000258683
-0.000216571
-0.000163043
-0.000113722
-9.48807e-05
-0.00011683
-0.000144043
-0.000136584
-9.13726e-05
-3.61811e-05
1.37171e-06
2.95362e-07
-3.35595e-05
-6.16675e-05
-7.0023e-05
-8.67789e-05
-0.000137758
-0.000203328
-0.000232754
-0.00019132
-7.89735e-05
3.54875e-05
8.15857e-05
7.34925e-05
7.05892e-05
6.45449e-05
6.3447e-05
8.01177e-05
0.0001014
0.000117249
0.000113477
7.82975e-05
3.65159e-05
3.88804e-05
8.35555e-05
0.000107407
2.19021e-05
-0.000118843
-0.00023403
-0.000285635
-0.000272777
-0.000226227
-0.000168828
-0.000115957
-9.50945e-05
-0.000116943
-0.000144984
-0.000137824
-9.2958e-05
-3.814e-05
-1.22994e-09
9.08955e-08
-3.39606e-05
-6.24342e-05
-6.95776e-05
-8.57178e-05
-0.000138432
-0.000205915
-0.000238216
-0.000197714
-8.46675e-05
3.2429e-05
7.83621e-05
6.80952e-05
6.65963e-05
6.27605e-05
6.26698e-05
8.03151e-05
0.00010091
0.000114774
0.000110961
7.60004e-05
3.22597e-05
3.62705e-05
9.02273e-05
0.000123888
3.79167e-05
-0.000115369
-0.000244553
-0.000305267
-0.000291269
-0.000239217
-0.00017694
-0.000119563
-9.60013e-05
-0.000117725
-0.000146078
-0.000137684
-9.15627e-05
-3.72188e-05
-3.77116e-07
-1.28104e-07
-3.44935e-05
-6.32621e-05
-6.87806e-05
-8.39528e-05
-0.00013915
-0.000211114
-0.00025094
-0.0002155
-0.000102006
2.04041e-05
6.60281e-05
5.12539e-05
5.36313e-05
5.63912e-05
5.93434e-05
7.99343e-05
0.000102155
0.000113947
0.000108259
7.15888e-05
2.36161e-05
2.80758e-05
9.69806e-05
0.00014824
6.69264e-05
-9.85841e-05
-0.000244167
-0.000322548
-0.000313583
-0.00025619
-0.000188122
-0.000125886
-9.76457e-05
-0.000118593
-0.00014743
-0.00013983
-9.12224e-05
-3.39097e-05
2.20245e-06
1.11614e-06
-3.47339e-05
-6.42421e-05
-6.78558e-05
-8.19117e-05
-0.000140251
-0.000225715
-0.000271745
-0.000245744
-0.000134318
-1.94225e-06
4.91268e-05
2.58082e-05
2.7878e-05
3.92384e-05
4.96277e-05
7.34793e-05
9.92632e-05
0.000112834
0.000106754
6.7746e-05
1.3146e-05
1.41376e-05
0.000100015
0.000174333
0.000108617
-6.61757e-05
-0.000230386
-0.000325125
-0.00033598
-0.000277886
-0.000203778
-0.000135541
-0.000101833
-0.000118634
-0.000145782
-0.000140246
-9.61737e-05
-3.82197e-05
3.39235e-06
4.82938e-06
-3.29637e-05
-6.50512e-05
-6.73574e-05
-8.05492e-05
-0.000142367
-0.000232434
-0.000286805
-0.000269355
-0.00016596
-2.94847e-05
3.10409e-05
1.66755e-06
-4.19814e-06
1.02323e-05
3.17031e-05
6.39737e-05
9.12047e-05
0.000101921
9.99597e-05
7.27724e-05
1.11665e-05
2.00639e-06
9.79314e-05
0.000194736
0.000158104
-1.86275e-05
-0.000204183
-0.00031966
-0.000354788
-0.000302478
-0.000223444
-0.00014823
-0.000107402
-0.00011973
-0.00014501
-0.000138786
-0.000100398
-4.90178e-05
-8.02121e-06
2.41689e-06
-2.95956e-05
-6.4587e-05
-6.74674e-05
-8.04495e-05
-0.000146151
-0.000237383
-0.000292058
-0.000270154
-0.000173282
-4.3196e-05
1.73238e-05
-1.66968e-05
-4.37827e-05
-2.89328e-05
2.78475e-06
4.91584e-05
8.61238e-05
9.40952e-05
8.74789e-05
6.57744e-05
2.00088e-05
3.38552e-06
9.41748e-05
0.00020264
0.00020112
4.12063e-05
-0.000162031
-0.000304064
-0.000366322
-0.000327487
-0.000246688
-0.000160118
-0.000111817
-0.000119664
-0.000144522
-0.000138235
-0.0001038
-5.96934e-05
-2.46011e-05
-1.26236e-05
-3.578e-05
-6.70675e-05
-6.96603e-05
-8.27304e-05
-0.000151948
-0.000242525
-0.000290119
-0.000252486
-0.000157818
-3.29504e-05
1.96098e-05
-2.27518e-05
-7.1103e-05
-7.10803e-05
-3.54103e-05
2.53127e-05
7.58606e-05
9.1633e-05
8.54966e-05
7.04209e-05
3.92211e-05
1.95791e-05
9.42708e-05
0.000197514
0.000222953
9.90365e-05
-0.00010361
-0.000269404
-0.000362088
-0.000366402
-0.00027637
-0.000175411
-0.000113923
-0.000116436
-0.000144249
-0.000141027
-0.000108449
-6.89774e-05
-4.04974e-05
-3.14176e-05
-5.09983e-05
-7.93624e-05
-7.89415e-05
-9.06024e-05
-0.000159503
-0.000250426
-0.000288206
-0.000229963
-0.000141325
-1.74495e-05
3.52319e-05
-9.99635e-06
-7.35365e-05
-0.00010239
-7.1546e-05
-5.15723e-06
5.36348e-05
8.05146e-05
8.20285e-05
7.76855e-05
6.13335e-05
4.61634e-05
9.86097e-05
0.000179835
0.000221317
0.000139829
-4.06859e-05
-0.000215983
-0.000334976
-0.000370592
-0.000312218
-0.000195415
-0.000120002
-0.00011345
-0.000144273
-0.000147247
-0.00011352
-7.30461e-05
-4.93425e-05
-4.78737e-05
-6.91648e-05
-9.62264e-05
-0.000103454
-0.000103606
-0.000161335
-0.000260434
-0.000289477
-0.000218968
-0.000121357
-2.45105e-05
4.1026e-05
1.16482e-05
-5.31297e-05
-0.000101133
-8.68936e-05
-3.5412e-05
2.07436e-05
5.61732e-05
7.13228e-05
8.21662e-05
7.99586e-05
6.66628e-05
9.33377e-05
0.000150623
0.000199526
0.000159197
1.5266e-05
-0.000152591
-0.000286595
-0.000353663
-0.000318351
-0.000215568
-0.000128976
-0.000118194
-0.000144334
-0.000152678
-0.000119061
-7.42338e-05
-4.92773e-05
-5.28395e-05
-7.84184e-05
-0.000107409
-0.000109057
-0.000105865
-0.00015364
-0.000245329
-0.000267373
-0.000205575
-0.000117754
-4.51297e-05
3.02076e-05
2.78268e-05
-2.50484e-05
-6.54036e-05
-7.27542e-05
-5.11287e-05
-1.15349e-05
2.03944e-05
4.66454e-05
7.6711e-05
9.09039e-05
7.78578e-05
8.09573e-05
0.000110319
0.000163218
0.000157736
5.62422e-05
-9.10403e-05
-0.000227988
-0.00031704
-0.000314594
-0.000224503
-0.000138789
-0.00012229
-0.000142509
-0.000152688
-0.000126038
-7.87401e-05
-4.76911e-05
-4.41474e-05
-6.33354e-05
-9.06721e-05
-9.60466e-05
-0.00010077
-0.00015913
-0.000219516
-0.000240347
-0.000186772
-0.000113878
-5.1727e-05
2.40676e-05
4.32369e-05
1.84923e-08
-3.95642e-05
-6.09519e-05
-5.79645e-05
-3.55133e-05
-5.79593e-06
2.12967e-05
5.26925e-05
8.34401e-05
7.68656e-05
6.94118e-05
8.47899e-05
0.000119095
0.000131123
7.75267e-05
-3.88551e-05
-0.000163598
-0.000259505
-0.000287502
-0.000230315
-0.000146743
-0.000127501
-0.000146502
-0.00015218
-0.000130126
-8.26253e-05
-4.33141e-05
-3.23341e-05
-4.83422e-05
-7.4543e-05
-8.76568e-05
-0.000103171
-0.000146297
-0.000205285
-0.000217619
-0.000160774
-0.00010275
-5.90869e-05
1.31064e-05
5.65725e-05
3.00936e-05
-2.14277e-05
-5.39288e-05
-6.50965e-05
-4.79414e-05
-2.60709e-05
3.41864e-06
3.68958e-05
7.43285e-05
8.71922e-05
7.11596e-05
6.93954e-05
8.21046e-05
9.59436e-05
6.50435e-05
-2.06311e-05
-0.000108943
-0.000174816
-0.000209867
-0.000200124
-0.000163924
-0.000142309
-0.000158173
-0.000160211
-0.000133933
-8.50359e-05
-3.85069e-05
-2.43377e-05
-3.75262e-05
-6.06658e-05
-8.05445e-05
-8.90795e-05
-0.000129427
-0.000184888
-0.000191692
-0.000133871
-7.67307e-05
-4.93732e-05
4.58728e-06
5.02113e-05
4.19031e-05
-3.90206e-06
-4.88327e-05
-6.89381e-05
-5.99495e-05
-3.70337e-05
-5.47441e-06
2.5541e-05
6.59958e-05
9.45577e-05
7.72263e-05
3.95207e-05
4.38741e-05
4.88645e-05
3.91336e-05
-1.0228e-05
-6.78539e-05
-9.72715e-05
-0.000115396
-0.000135126
-0.000148344
-0.000152518
-0.000176019
-0.000174811
-0.000147452
-8.80809e-05
-3.73693e-05
-1.69879e-05
-2.20356e-05
-4.86854e-05
-7.78837e-05
-8.75059e-05
-0.000110315
-0.000155387
-0.000172641
-0.000127253
-6.018e-05
-2.62327e-05
1.57827e-05
4.46053e-05
4.41967e-05
-1.92647e-06
-4.84739e-05
-6.72353e-05
-6.29633e-05
-4.31954e-05
-1.10143e-05
2.57826e-05
6.71434e-05
9.0637e-05
7.4483e-05
1.80001e-05
-8.23536e-06
6.59856e-06
1.2823e-05
-1.77084e-05
-5.76603e-05
-5.04648e-05
-3.1152e-05
-5.56082e-05
-0.000102532
-0.000143073
-0.000167787
-0.000175897
-0.000162482
-0.000121566
-7.22052e-05
-3.64197e-05
6.64772e-07
-2.7871e-05
-7.2595e-05
-8.30247e-05
-9.07646e-05
-0.000117833
-0.000146521
-0.000125454
-6.86253e-05
-1.51438e-05
2.29803e-05
5.15417e-05
4.66674e-05
-3.09254e-06
-5.27991e-05
-7.00154e-05
-6.35437e-05
-4.73076e-05
-1.92338e-05
1.66244e-05
5.64648e-05
7.60327e-05
6.03446e-05
3.40268e-06
-2.85267e-05
-3.9268e-05
-3.10381e-05
-2.8987e-05
-3.98293e-05
-4.32681e-05
-4.28387e-05
-4.73448e-05
-6.81411e-05
-0.000105021
-0.000139125
-0.000161125
-0.000166312
-0.000146055
-0.000116849
-9.10886e-05
-5.87059e-05
-4.17951e-05
-3.15015e-05
-5.79515e-05
-6.64398e-05
-8.1915e-05
-0.000113227
-0.000130433
-0.000117557
-5.38996e-05
2.80947e-05
5.07614e-05
4.31308e-05
-1.10464e-05
-6.44631e-05
-8.06051e-05
-6.4832e-05
-4.22536e-05
-1.56467e-05
1.07362e-05
3.72807e-05
4.5061e-05
3.02962e-05
2.64734e-06
-2.08571e-05
-4.94658e-05
-6.4176e-05
-7.16724e-05
-7.01671e-05
-5.45369e-05
-3.32843e-05
-3.13288e-05
-5.93251e-05
-9.92976e-05
-0.000128106
-0.00014472
-0.000162245
-0.000167616
-0.000151636
-0.000144377
-0.000124652
-9.27626e-05
-6.09659e-05
-5.03958e-05
-5.58276e-05
-7.18128e-05
-9.97789e-05
-0.000123804
-0.000111261
-5.72457e-05
9.72564e-06
4.61952e-05
2.45773e-05
-2.27274e-05
-9.06975e-05
-0.000114416
-0.000102787
-5.95229e-05
-1.53031e-05
1.29693e-05
3.10316e-05
3.41953e-05
2.18373e-05
-1.77221e-05
1.4635e-06
-3.80373e-06
-2.82356e-05
-5.58692e-05
-6.98806e-05
-6.45409e-05
-4.26192e-05
-3.31681e-05
-5.45588e-05
-9.35453e-05
-0.000122983
-0.000134685
-0.000140321
-0.000148178
-0.000153826
-0.00015944
-0.000161366
-0.000154681
-0.000124508
-8.82297e-05
-6.84425e-05
-6.56048e-05
-7.81299e-05
-9.44769e-05
-8.92599e-05
-5.37729e-05
-9.60859e-07
4.03023e-05
5.29607e-05
-8.44031e-06
-8.33622e-05
-0.000135482
-0.00014002
-0.000101254
-4.27634e-05
1.28149e-05
3.64259e-05
2.88453e-05
6.19984e-07
-1.19785e-05
-1.53859e-05
-1.0231e-05
-1.95619e-05
-3.78535e-05
-5.41335e-05
-5.8945e-05
-4.74663e-05
-4.91125e-05
-6.8398e-05
-9.63492e-05
-0.000113007
-0.000118082
-0.000115679
-0.000115506
-0.000103837
-0.000102895
-0.000109993
-0.000122251
-0.000121025
-9.85822e-05
-7.09863e-05
-6.44644e-05
-8.11416e-05
-9.93373e-05
-9.34769e-05
-6.02695e-05
-1.86058e-05
1.47273e-05
2.55954e-05
-6.51589e-06
-6.33476e-05
-0.00011516
-0.00013782
-0.000117926
-7.12333e-05
-2.55383e-05
6.47043e-06
1.25628e-05
-1.30342e-06
-1.13096e-05
-8.8452e-06
-4.3921e-06
-1.75452e-05
-4.56517e-05
-7.21765e-05
-8.68129e-05
-8.22308e-05
-9.39471e-05
-9.84423e-05
-0.000100697
-9.38786e-05
-8.66767e-05
-9.14525e-05
-0.000105828
-0.0001189
-0.000115989
-0.000106938
-9.38637e-05
-8.09573e-05
-6.66853e-05
-5.2969e-05
-4.8309e-05
-5.44585e-05
-6.88139e-05
-8.12399e-05
-7.58124e-05
-5.15039e-05
-2.09849e-05
-4.98762e-06
-1.55441e-05
-5.48716e-05
-0.000104315
-0.000133763
-0.000126013
-9.28406e-05
-5.34535e-05
-2.30362e-05
-1.07166e-05
-1.32713e-05
-1.41833e-05
-3.15622e-06
-9.03665e-07
-1.98867e-05
-5.65795e-05
-9.72725e-05
-0.000128698
-0.000150682
-0.000142384
-0.000132581
-0.000115645
-9.52372e-05
-8.32838e-05
-8.78349e-05
-9.97835e-05
-0.000103908
-0.000100875
-9.23681e-05
-9.08575e-05
-7.78272e-05
-4.17213e-05
-1.15716e-05
-1.84506e-06
-1.24664e-05
-4.32315e-05
-7.96442e-05
-9.23015e-05
-8.53416e-05
-6.49806e-05
-4.20434e-05
-2.78388e-05
-4.25418e-05
-7.88989e-05
-0.000106995
-0.000109379
-9.52579e-05
-7.34653e-05
-5.14164e-05
-3.54092e-05
-2.3788e-05
4.76115e-05
6.36676e-06
-4.97179e-05
-0.000110943
-0.000170387
-0.000200998
-0.000199278
-0.000168753
-0.000121421
-9.20327e-05
-0.000107002
-0.000139659
-0.000144038
-0.000110033
-6.71033e-05
-4.32039e-05
-4.85061e-05
-6.98331e-05
-7.89911e-05
-7.65179e-05
-8.8535e-05
-0.00012297
-0.000158871
-0.000175945
-0.000156916
-8.8243e-05
-1.8947e-06
5.85971e-05
9.29967e-05
0.000105724
9.52592e-05
8.97279e-05
0.000103249
0.000129418
0.00015396
0.000158951
0.000144146
0.000115496
8.63725e-05
7.08339e-05
5.05252e-05
9.48747e-06
-4.66888e-05
-0.000108532
-0.000169162
-0.00020029
-0.000199293
-0.000169195
-0.000121954
-9.22529e-05
-0.000106929
-0.000139638
-0.000144237
-0.000110218
-6.71886e-05
-4.32202e-05
-4.8644e-05
-7.02468e-05
-7.95457e-05
-7.68739e-05
-8.88267e-05
-0.000123327
-0.000159306
-0.000176571
-0.000157915
-9.01357e-05
-3.97622e-06
5.61147e-05
9.03311e-05
0.000103168
9.23235e-05
8.58478e-05
9.86243e-05
0.000124714
0.000150394
0.000157153
0.000143761
0.000116177
8.72917e-05
7.26004e-05
5.40492e-05
1.23979e-05
-4.47486e-05
-0.000107788
-0.00016898
-0.000201687
-0.000201005
-0.000170813
-0.000123084
-9.25217e-05
-0.000106881
-0.000140151
-0.000145366
-0.00011116
-6.75576e-05
-4.33876e-05
-4.89356e-05
-7.09127e-05
-8.01863e-05
-7.68694e-05
-8.87459e-05
-0.000123666
-0.000159953
-0.000177577
-0.000159428
-9.22273e-05
-5.53084e-06
5.42193e-05
8.82851e-05
0.000101516
9.03921e-05
8.27864e-05
9.39189e-05
0.00011862
0.000145511
0.000155593
0.000144963
0.000118094
8.98895e-05
7.56724e-05
5.85878e-05
1.4953e-05
-4.45769e-05
-0.000109697
-0.000172031
-0.000206252
-0.00020526
-0.00017416
-0.000125098
-9.31158e-05
-0.000107311
-0.000141791
-0.000148104
-0.000113566
-6.90021e-05
-4.42586e-05
-4.98147e-05
-7.21398e-05
-8.10398e-05
-7.66478e-05
-8.8174e-05
-0.000123988
-0.000160851
-0.000178877
-0.000161078
-9.33852e-05
-5.27104e-06
5.39556e-05
8.76263e-05
0.00010138
9.00208e-05
8.14074e-05
9.05643e-05
0.000112356
0.000139537
0.000153884
0.000147658
0.000121902
9.47286e-05
8.09846e-05
6.4776e-05
1.75653e-05
-4.59515e-05
-0.000114144
-0.000178292
-0.000214153
-0.000212328
-0.00017943
-0.000128177
-9.42448e-05
-0.000108438
-0.000144646
-0.000152536
-0.000117838
-7.23229e-05
-4.68418e-05
-5.21236e-05
-7.45926e-05
-8.26387e-05
-7.63816e-05
-8.73054e-05
-0.00012464
-0.000162299
-0.000180694
-0.000163137
-9.43881e-05
-3.58716e-06
5.57622e-05
8.85861e-05
0.000102463
9.08435e-05
8.17953e-05
8.99512e-05
0.000107759
0.000133016
0.000150877
0.00014858
0.000127278
0.000102204
8.89561e-05
7.39258e-05
2.13238e-05
-4.82623e-05
-0.000120449
-0.000187091
-0.000225265
-0.000222455
-0.000186728
-0.000132377
-9.59747e-05
-0.000110162
-0.000148098
-0.000157771
-0.000124315
-7.80765e-05
-5.22024e-05
-5.68736e-05
-7.90008e-05
-8.5551e-05
-7.64337e-05
-8.62304e-05
-0.000125158
-0.000165099
-0.000183844
-0.000167973
-9.8801e-05
-3.74145e-06
5.86274e-05
9.09539e-05
0.000104222
9.16511e-05
8.29136e-05
9.245e-05
0.000106986
0.000127481
0.000146177
0.000147145
0.000133222
0.000112637
0.000100678
8.84765e-05
2.83754e-05
-4.92617e-05
-0.000127695
-0.000196533
-0.000238805
-0.000235916
-0.000196845
-0.000138264
-9.83993e-05
-0.000112217
-0.000151237
-0.000161668
-0.000128658
-8.38232e-05
-5.98511e-05
-6.45441e-05
-8.57234e-05
-8.98833e-05
-7.6833e-05
-8.47068e-05
-0.000125639
-0.000168723
-0.000190098
-0.000180557
-0.000114734
-1.49106e-05
5.28115e-05
8.92424e-05
0.000105221
9.02428e-05
8.08272e-05
9.5335e-05
0.000110391
0.000124781
0.000140438
0.000143825
0.000137455
0.000125709
0.000118167
0.000111351
4.19864e-05
-4.62755e-05
-0.000132082
-0.000204665
-0.000253083
-0.000251579
-0.0002101
-0.00014839
-0.000103378
-0.00011526
-0.000153765
-0.000164399
-0.000132642
-8.9919e-05
-6.73336e-05
-7.28785e-05
-9.38464e-05
-9.51802e-05
-7.71461e-05
-8.2429e-05
-0.000125712
-0.00017348
-0.000200341
-0.000202889
-0.00014548