/*--------------------------------*- C++ -*----------------------------------*\
| =========                 |                                                 |
| \\      /  F ield         | OpenFOAM: The Open Source CFD Toolbox           |
|  \\    /   O peration     | Version:  2306                                  |
|   \\  /    A nd           | Website:  www.openfoam.com                      |
|    \\/     M anipulation  |                                                 |
\*---------------------------------------------------------------------------*/
FoamFile
{
    version     2.0;
    format      ascii;
    arch        "LSB;label=32;scalar=64";
    class       surfaceScalarField;
    location    "4.5";
    object      phi_0;
}
// * * * * * * * * * * * * * * * * * * * * * * * * * * * * * * * * * * * * * //

dimensions      [0 3 -1 0 0 0 0];

oriented        oriented;

internalField   nonuniform List<scalar> 
175300
(
6.18122e-06
8.27157e-07
4.12967e-07
6.32132e-06
1.07103e-06
8.98868e-07
6.24688e-06
9.53293e-07
1.5229e-06
6.05345e-06
5.22907e-07
2.07044e-06
5.87299e-06
7.96364e-08
2.30633e-06
5.7446e-06
-1.30365e-07
2.21791e-06
5.63294e-06
-1.07395e-07
1.90259e-06
5.51104e-06
-1.13561e-08
1.49906e-06
5.35222e-06
1.16858e-08
1.17859e-06
5.07822e-06
-1.45535e-08
1.07099e-06
4.6292e-06
-4.99404e-08
1.15586e-06
4.10035e-06
-1.42407e-07
1.29513e-06
3.69148e-06
-3.1307e-07
1.36763e-06
3.51484e-06
-5.13392e-07
1.36705e-06
3.54659e-06
-6.97728e-07
1.30437e-06
3.68313e-06
-7.88295e-07
1.14359e-06
3.79352e-06
-6.51656e-07
8.5467e-07
3.8583e-06
-3.54383e-07
4.8252e-07
3.97917e-06
-9.40973e-08
1.11601e-07
4.19206e-06
8.84688e-08
-1.89412e-07
4.41899e-06
2.6752e-07
-4.17479e-07
4.60399e-06
3.55426e-07
-5.69572e-07
4.77803e-06
2.06619e-07
-6.47102e-07
5.00803e-06
-1.80629e-07
-7.32675e-07
5.31364e-06
-5.25599e-07
-9.73275e-07
5.60738e-06
-6.12006e-07
-1.36231e-06
5.74203e-06
-4.65412e-07
-1.67784e-06
5.63254e-06
-2.00114e-07
-1.83853e-06
5.27887e-06
1.35545e-07
-1.99703e-06
4.74706e-06
3.84486e-07
-2.09954e-06
4.25841e-06
2.28013e-07
-1.97957e-06
3.98376e-06
-1.57559e-07
-1.81029e-06
3.88076e-06
-3.12998e-07
-1.80345e-06
3.90157e-06
-2.21516e-07
-1.84862e-06
4.04804e-06
-6.08678e-08
-1.70118e-06
4.28284e-06
2.01879e-07
-1.3207e-06
4.5588e-06
5.56191e-07
-8.68374e-07
4.88945e-06
7.90201e-07
-4.96196e-07
5.32189e-06
7.36882e-07
-2.0284e-07
6.57263e-07
8.99452e-08
2.04438e-05
2.45112e-06
1.70905e-06
2.11231e-05
3.00656e-06
3.26617e-06
2.11603e-05
2.46378e-06
4.99089e-06
2.06723e-05
1.14195e-06
6.25387e-06
2.00163e-05
-5.99382e-08
6.64558e-06
1.94684e-05
-5.57675e-07
6.30259e-06
1.90466e-05
-4.43033e-07
5.49908e-06
1.86438e-05
-1.67731e-07
4.5064e-06
1.80999e-05
-6.81567e-08
3.66853e-06
1.71787e-05
-8.47274e-08
3.29749e-06
1.57654e-05
-1.683e-07
3.42233e-06
1.4151e-05
-5.20504e-07
3.79468e-06
1.28651e-05
-1.2056e-06
4.10613e-06
1.22063e-05
-2.02073e-06
4.18833e-06
1.21002e-05
-2.64427e-06
3.95427e-06
1.22556e-05
-2.75657e-06
3.35408e-06
1.24194e-05
-2.13019e-06
2.43548e-06
1.26229e-05
-1.1233e-06
1.38175e-06
1.30506e-05
-3.05579e-07
3.92461e-07
1.37095e-05
2.61717e-07
-4.21357e-07
1.44415e-05
7.1683e-07
-1.04781e-06
1.51836e-05
8.06502e-07
-1.4855e-06
1.6014e-05
2.27227e-08
-1.74931e-06
1.70267e-05
-1.38412e-06
-2.08704e-06
1.81538e-05
-2.48776e-06
-2.83087e-06
1.91007e-05
-2.64797e-06
-3.88863e-06
1.94767e-05
-1.99314e-06
-4.72991e-06
1.90511e-05
-9.04124e-07
-5.18241e-06
1.78934e-05
2.91363e-07
-5.49387e-06
1.63382e-05
9.56014e-07
-5.53947e-06
1.49082e-05
3.47212e-07
-5.21774e-06
1.38711e-05
-7.57493e-07
-5.04249e-06
1.32101e-05
-1.09748e-06
-5.29101e-06
1.30106e-05
-7.92134e-07
-5.43287e-06
1.33439e-05
-2.9994e-07
-4.86568e-06
1.40649e-05
5.77504e-07
-3.65958e-06
1.50162e-05
1.72784e-06
-2.34472e-06
1.62099e-05
2.44334e-06
-1.27676e-06
1.76686e-05
2.1953e-06
-3.5752e-07
1.98851e-06
5.39584e-07
3.77669e-05
3.83962e-06
2.80527e-06
3.94716e-05
4.745e-06
5.53716e-06
4.00369e-05
3.64122e-06
8.44593e-06
3.93789e-05
1.32387e-06
1.04762e-05
3.80571e-05
-6.04442e-07
1.10409e-05
3.68153e-05
-1.28109e-06
1.04658e-05
3.59254e-05
-1.00534e-06
9.29598e-06
3.52011e-05
-5.31959e-07
7.88994e-06
3.42918e-05
-3.1686e-07
6.59784e-06
3.27913e-05
-2.61806e-07
5.80401e-06
3.04809e-05
-3.2659e-07
5.67457e-06
2.77022e-05
-9.21307e-07
6.08769e-06
2.52144e-05
-2.27287e-06
6.71663e-06
2.35999e-05
-4.03813e-06
7.10572e-06
2.29161e-05
-5.41933e-06
6.87083e-06
2.27838e-05
-5.63748e-06
5.9327e-06
2.28407e-05
-4.36485e-06
4.47527e-06
2.3134e-05
-2.4051e-06
2.81344e-06
2.38761e-05
-8.34705e-07
1.23493e-06
2.50271e-05
2.43179e-07
-8.82723e-08
2.63724e-05
1.01327e-06
-1.13362e-06
2.78621e-05
8.53854e-07
-1.83426e-06
2.96145e-05
-1.1353e-06
-2.20267e-06
3.17169e-05
-4.29551e-06
-2.67393e-06
3.39838e-05
-6.6589e-06
-3.85457e-06
3.58894e-05
-6.89618e-06
-5.66955e-06
3.67676e-05
-5.2725e-06
-7.26238e-06
3.62077e-05
-2.6657e-06
-8.19498e-06
3.43429e-05
1.72035e-08
-8.67867e-06
3.17825e-05
1.37594e-06
-8.5746e-06
2.92905e-05
2.24558e-07
-7.96691e-06
2.71677e-05
-1.76048e-06
-7.78151e-06
2.54333e-05
-2.30233e-06
-8.43392e-06
2.44433e-05
-1.7486e-06
-9.00414e-06
2.45641e-05
-9.54193e-07
-8.37494e-06
2.56477e-05
5.91173e-07
-6.52145e-06
2.73593e-05
2.77834e-06
-4.35352e-06
2.96149e-05
4.12413e-06
-2.55033e-06
3.2361e-05
3.57607e-06
-9.80176e-07
3.05215e-06
6.98101e-07
5.78303e-05
3.49734e-06
2.66243e-06
6.12569e-05
5.04744e-06
6.66228e-06
6.30575e-05
3.57178e-06
1.10904e-05
6.26188e-05
5.28963e-07
1.43603e-05
6.05172e-05
-1.75279e-06
1.54422e-05
5.82114e-05
-2.30085e-06
1.47096e-05
5.66022e-05
-1.73834e-06
1.31979e-05
5.55282e-05
-1.07676e-06
1.15538e-05
5.43816e-05
-7.57334e-07
1.00205e-05
5.25551e-05
-5.92177e-07
8.77181e-06
4.96522e-05
-5.18513e-07
8.00756e-06
4.58434e-05
-1.11185e-06
7.98415e-06
4.1862e-05
-2.90403e-06
8.7711e-06
3.85715e-05
-5.68131e-06
9.77425e-06
3.64951e-05
-8.21661e-06
1.00002e-05
3.54802e-05
-9.0134e-06
9.06082e-06
3.50918e-05
-7.35057e-06
7.28885e-06
3.52964e-05
-4.4393e-06
5.18062e-06
3.62674e-05
-1.98991e-06
3.08553e-06
3.78863e-05
-2.69846e-07
1.28581e-06
3.98701e-05
7.52651e-07
1.02643e-11
4.21743e-05
7.65822e-08
-8.94396e-07
4.49677e-05
-3.74073e-06
-1.12094e-06
4.83774e-05
-9.67165e-06
-1.33511e-06
5.21606e-05
-1.41632e-05
-2.70053e-06
5.55588e-05
-1.46919e-05
-5.45538e-06
5.7552e-05
-1.15569e-05
-8.37891e-06
5.74377e-05
-6.47332e-06
-1.04118e-05
5.53019e-05
-1.33985e-06
-1.14945e-05
5.19583e-05
1.33744e-06
-1.13717e-05
4.84152e-05
-1.70148e-07
-1.02522e-05
4.50225e-05
-3.06274e-06
-9.67891e-06
4.17198e-05
-3.79829e-06
-1.06255e-05
3.90551e-05
-2.98266e-06
-1.20433e-05
3.80025e-05
-2.12156e-06
-1.21626e-05
3.88493e-05
-3.26063e-07
-1.03635e-05
4.11461e-05
2.71783e-06
-7.64195e-06
4.45447e-05
4.57379e-06
-5.17591e-06
4.88339e-05
3.62988e-06
-3.00792e-06
2.22376e-06
-2.76633e-07
7.9204e-05
-1.33235e-06
3.81777e-08
8.52369e-05
1.89443e-06
5.09615e-06
8.94066e-05
7.88311e-07
1.15136e-05
9.01356e-05
-2.20562e-06
1.69408e-05
8.74968e-05
-3.95886e-06
1.94791e-05
8.37608e-05
-3.71294e-06
1.8988e-05
8.1053e-05
-2.57776e-06
1.70337e-05
7.95738e-05
-1.69901e-06
1.51388e-05
7.83954e-05
-1.34133e-06
1.37173e-05
7.66216e-05
-1.11345e-06
1.24086e-05
7.36538e-05
-8.3554e-07
1.08936e-05
6.93364e-05
-1.07077e-06
9.73188e-06
6.4014e-05
-2.68035e-06
9.99128e-06
5.84743e-05
-6.00938e-06
1.16279e-05
5.38556e-05
-9.82789e-06
1.29477e-05
5.08403e-05
-1.19355e-05
1.26e-05
4.92687e-05
-1.06991e-05
1.08496e-05
4.89516e-05
-7.25425e-06
8.54913e-06
4.98798e-05
-3.97591e-06
6.17208e-06
5.17583e-05
-1.45269e-06
4.05791e-06
5.41593e-05
4.35994e-08
2.5392e-06
5.69827e-05
-1.36564e-06
1.95042e-06
6.04532e-05
-7.8772e-06
2.52297e-06
6.49147e-05
-1.7986e-05
3.44745e-06
7.04083e-05
-2.62792e-05
2.70128e-06
7.61284e-05
-2.80243e-05
-9.62942e-07
8.04765e-05
-2.29513e-05
-6.18935e-06
8.20899e-05
-1.40497e-05
-1.06743e-05
8.0733e-05
-4.91446e-06
-1.35276e-05
7.7249e-05
2.9849e-07
-1.40763e-05
7.29207e-05
-9.67491e-07
-1.23934e-05
6.83399e-05
-4.57642e-06
-1.08208e-05
6.3393e-05
-5.40102e-06
-1.15095e-05
5.84339e-05
-4.1688e-06
-1.37597e-05
5.48455e-05
-3.33266e-06
-1.53387e-05
5.39293e-05
-1.94862e-06
-1.47936e-05
5.57844e-05
1.08955e-06
-1.2562e-05
5.9878e-05
2.89003e-06
-1.00535e-05
6.56874e-05
7.88476e-07
-7.67607e-06
-2.25502e-06
-4.58302e-06
9.82693e-05
-1.2205e-05
-8.1426e-06
0.000107658
-8.99247e-06
-8.99777e-07
0.000116011
-7.58179e-06
7.04395e-06
0.000120006
-9.00639e-06
1.58922e-05
0.000118049
-8.45941e-06
2.17983e-05
0.000112868
-5.9846e-06
2.30221e-05
0.000108608
-3.64156e-06
2.08476e-05
0.000106623
-2.40382e-06
1.82769e-05
0.000105687
-2.02788e-06
1.70172e-05
0.000104385
-1.8418e-06
1.64877e-05
0.000101949
-1.46244e-06
1.49426e-05
9.79973e-05
-1.13161e-06
1.22306e-05
9.22859e-05
-1.7963e-06
1.07209e-05
8.4855e-05
-4.67008e-06
1.22032e-05
7.68466e-05
-9.15189e-06
1.49782e-05
7.01847e-05
-1.2861e-05
1.60667e-05
6.59525e-05
-1.31762e-05
1.48241e-05
6.41779e-05
-1.02169e-05
1.25494e-05
6.44885e-05
-6.51385e-06
1.0126e-05
6.61701e-05
-3.08994e-06
7.96635e-06
6.84404e-05
-7.7663e-07
6.54121e-06
7.09874e-05
-2.85909e-06
6.60772e-06
7.39979e-05
-1.27892e-05
8.77141e-06
7.80441e-05
-2.84851e-05
1.19175e-05
8.39751e-05
-4.23431e-05
1.31227e-05
9.21742e-05
-4.76449e-05
9.88082e-06
0.000101009
-4.23702e-05
2.61438e-06
0.000107251
-2.84058e-05
-6.44441e-06
0.000109047
-1.28374e-05
-1.3344e-05
0.000106936
-2.88855e-06
-1.62851e-05
0.000102534
-2.61619e-06
-1.4779e-05
9.71001e-05
-6.38349e-06
-1.18166e-05
9.09522e-05
-7.0264e-06
-1.13529e-05
8.40876e-05
-5.07525e-06
-1.37424e-05
7.74606e-05
-3.87679e-06
-1.66629e-05
7.29957e-05
-2.89777e-06
-1.81322e-05
7.20738e-05
-6.82152e-07
-1.79023e-05
7.49284e-05
-3.56823e-07
-1.69459e-05
8.10176e-05
-5.27268e-06
-1.55977e-05
-1.15871e-05
-1.29016e-05
0.000111835
-2.71662e-05
-2.04512e-05
0.000122064
-2.42551e-05
-1.41136e-05
0.000135052
-2.37208e-05
-4.73195e-06
0.000146178
-2.39244e-05
7.42761e-06
0.000148707
-1.85852e-05
1.9101e-05
0.000143451
-1.06444e-05
2.52743e-05
0.000137416
-5.48268e-06
2.47302e-05
0.000134839
-3.63159e-06
2.11482e-05
0.000134631
-3.12285e-06
1.91099e-05
0.000134317
-2.84585e-06
1.97831e-05
0.000132821
-2.53875e-06
1.999e-05
0.000130051
-1.88284e-06
1.66668e-05
0.000125544
-1.25765e-06
1.22879e-05
0.000118136
-2.61698e-06
1.18336e-05
0.000107552
-6.36275e-06
1.54459e-05
9.60631e-05
-1.06788e-05
1.87244e-05
8.6964e-05
-1.29043e-05
1.88063e-05
8.19417e-05
-1.18291e-05
1.67881e-05
8.06262e-05
-8.73482e-06
1.43218e-05
8.15965e-05
-4.59265e-06
1.21065e-05
8.34821e-05
-1.11534e-06
1.06841e-05
8.56319e-05
-3.60284e-06
1.11664e-05
8.78986e-05
-1.68836e-05
1.45356e-05
9.03891e-05
-3.81331e-05
1.97774e-05
9.3952e-05
-5.78767e-05
2.38143e-05
0.000100735
-6.82046e-05
2.33093e-05
0.000112278
-6.55771e-05
1.66297e-05
0.000125755
-5.05816e-05
5.18265e-06
0.000135374
-2.80709e-05
-8.0809e-06
0.000138119
-1.04499e-05
-1.62376e-05
0.000135266
-6.10118e-06
-1.69913e-05
0.000129478
-8.61623e-06
-1.33209e-05
0.000122745
-8.52166e-06
-1.1007e-05
0.00011531
-5.69872e-06
-1.23656e-05
0.000107104
-3.72478e-06
-1.56664e-05
9.94167e-05
-2.1866e-06
-1.8694e-05
9.42046e-05
-7.34685e-08
-2.09305e-05
9.30095e-05
-1.8701e-06
-2.30051e-05
9.64465e-05
-1.15786e-05
-2.46601e-05
-2.3545e-05
-2.40838e-05
0.000125808
-4.09756e-05
-3.38273e-05
0.000132446
-3.86853e-05
-2.88602e-05
0.000144441
-4.03825e-05
-2.00067e-05
0.000161566
-4.49114e-05
-7.33875e-06
0.000172992
-3.78105e-05
9.12851e-06
0.000171209
-2.04267e-05
2.26544e-05
0.000163547
-8.56884e-06
2.7448e-05
0.000160157
-5.93403e-06
2.42925e-05
0.000161896
-5.99292e-06
1.99208e-05
0.000163879
-4.88174e-06
2.02835e-05
0.000163548
-3.92504e-06
2.36325e-05
0.00016197
-3.57631e-06
2.27874e-05
0.000160026
-2.71514e-06
1.64515e-05
0.00015575
-2.51384e-06
1.21482e-05
0.000146128
-4.18277e-06
1.46679e-05
0.00013121
-6.72473e-06
1.99635e-05
0.000115675
-8.94299e-06
2.22842e-05
0.000104756
-1.01049e-05
2.11031e-05
9.99786e-05
-9.21596e-06
1.86152e-05
9.96159e-05
-5.50064e-06
1.61895e-05
0.00010156
-1.11692e-06
1.4331e-05
0.000104603
-3.52577e-06
1.40786e-05
0.000107737
-1.87512e-05
1.69201e-05
0.000109855
-4.32016e-05
2.25143e-05
0.000110627
-6.67207e-05
2.86959e-05
0.000112388
-8.15013e-05
3.24736e-05
0.000119907
-8.35338e-05
3.01145e-05
0.000135242
-7.17195e-05
1.98216e-05
0.000153259
-4.81704e-05
4.06866e-06
0.000165191
-2.40819e-05
-1.11293e-05
0.000166812
-1.25384e-05
-1.70271e-05
0.000161082
-1.05595e-05
-1.50612e-05
0.00015389
-9.09311e-06
-1.12844e-05
0.000147577
-6.37789e-06
-1.02451e-05
0.000140779
-3.69835e-06
-1.2454e-05
0.000133029
-2.65839e-07
-1.59297e-05
0.00012567
3.74347e-06
-1.97803e-05
0.000120195
1.57517e-06
-2.47124e-05
0.000118257
-1.2681e-05
-3.05316e-05
-3.22165e-05
-3.44375e-05
0.000146751
-4.81514e-05
-4.4909e-05
0.000149155
-4.81996e-05
-4.35214e-05
0.000156073
-5.04933e-05
-3.51031e-05
0.000171702
-6.22226e-05
-2.1281e-05
0.000190038
-6.14807e-05
-4.10102e-06
0.000196217
-3.85083e-05
1.52409e-05
0.000188391
-1.40774e-05
2.67063e-05
0.000180624
-6.79438e-06
2.6796e-05
0.000182918
-1.03655e-05
2.02381e-05
0.000190091
-1.0664e-05
1.71608e-05
0.000192268
-5.85352e-06
2.16042e-05
0.00018909
-2.69636e-06
2.54058e-05
0.000187535
-4.1304e-06
2.11158e-05
0.000189321
-7.66987e-06
1.41109e-05
0.000187402
-9.21312e-06
1.3989e-05
0.000175191
-7.02404e-06
2.00486e-05
0.000155287
-4.22357e-06
2.47752e-05
0.000136591
-4.28089e-06
2.50621e-05
0.000125432
-5.8107e-06
2.29314e-05
0.000121932
-4.64148e-06
2.05813e-05
0.000123479
-1.12216e-06
1.8442e-05
0.000127894
-3.75107e-06
1.68781e-05
0.000133072
-1.94553e-05
1.75073e-05
0.000136687
-4.39127e-05
2.11862e-05
0.000137018
-6.7638e-05
2.75595e-05
0.00013467
-8.40862e-05
3.49053e-05
0.000135106
-9.0039e-05
3.8833e-05
0.000145446
-8.47252e-05
3.34546e-05
0.000165717
-6.72338e-05
1.76957e-05
0.000185315
-4.23473e-05
-1.3478e-06
0.000190826
-2.07352e-05
-1.34238e-05
0.000180641
-6.87571e-06
-1.52674e-05
0.000167602
-2.24969e-06
-1.16126e-05
0.000162474
-5.36243e-06
-7.48119e-06
0.00016367
-7.70261e-06
-6.535e-06
0.000164392
-2.45431e-06
-9.02414e-06
0.000161941
7.10644e-06
-1.37074e-05
0.00015719
8.58193e-06
-2.04203e-05
0.000151263
-6.16842e-06
-2.96645e-05
-3.16932e-05
-3.93483e-05
0.000176542
-4.39686e-05
-4.93807e-05
0.000173789
-4.99336e-05
-5.57775e-05
0.000176235
-5.26935e-05
-5.08406e-05
0.000186229
-6.83703e-05
-3.62909e-05
0.000204293
-7.96974e-05
-1.70225e-05
0.00021923
-6.35252e-05
4.69577e-06
0.000218875
-2.88397e-05
2.19995e-05
0.000207768
-8.41426e-06
2.72494e-05
0.000201913
-1.07256e-05
2.10568e-05
0.000209107
-1.80836e-05
1.34084e-05
0.000218712
-1.34768e-05
1.43945e-05
0.000217542
-1.07527e-06
2.02988e-05
0.000209859
2.47947e-06
2.02861e-05
0.000209752
-9.21798e-06
1.42657e-05
0.000218046
-2.27012e-05
1.23986e-05
0.000219222
-2.10444e-05
1.86973e-05
0.000204003
-7.8569e-06
2.58394e-05
0.000180452
1.55865e-06
2.78737e-05
0.000160905
2.61911e-06
2.63447e-05
0.000150825
1.08781e-06
2.48746e-05
0.000149675
2.28544e-07
2.38275e-05
0.000154967
-6.17876e-06
2.14379e-05
0.00016287
-2.33288e-05
1.82305e-05
0.000168943
-4.51558e-05
1.71531e-05
0.000170251
-6.44729e-05
2.13569e-05
0.000166339
-7.85073e-05
3.0717e-05
0.000160948
-8.50037e-05
4.06816e-05
0.000163201
-8.56047e-05
4.2177e-05
0.000178971
-7.858e-05
2.91563e-05
0.000199702
-5.9634e-05
8.37753e-06
0.000207361
-2.94296e-05
-9.00358e-06
0.000194876
-1.06713e-07
-1.48256e-05
0.000175769
1.20969e-05
-1.21632e-05
0.000166203
3.57751e-06
-5.04682e-06
0.000169849
-9.19377e-06
1.15802e-06
0.000180208
-8.4105e-06
2.25147e-06
0.000189664
4.24657e-06
-1.42401e-06
0.000194151
1.24978e-05
-9.27455e-06
0.000191726
3.8597e-06
-2.10188e-05
-2.10417e-05
-3.58372e-05
0.000214979
-2.82308e-05
-4.48768e-05
0.00020513
-4.0722e-05
-6.1302e-05
0.000202937
-4.78659e-05
-6.50107e-05
0.000208933
-6.51467e-05
-5.31053e-05
0.000222235
-8.55363e-05
-3.21875e-05
0.000239319
-8.40205e-05
-9.33172e-06
0.000249131
-5.39334e-05
1.25983e-05
0.000244498
-2.02141e-05
2.42301e-05
0.000232142
-9.60027e-06
2.20081e-05
0.000227254
-1.74489e-05
1.20127e-05
0.000236092
-2.1184e-05
7.17042e-06
0.000245954
-8.40803e-06
1.15079e-05
0.000243348
5.95801e-06
1.58682e-05
0.000235129
-1.39246e-06
1.3505e-05
0.000238258
-2.81096e-05
1.03613e-05
0.000250368
-4.26427e-05
1.5127e-05
0.000250792
-2.74362e-05
2.42064e-05
0.000232816
-2.36436e-06
2.8551e-05
0.000208587
1.14759e-05
2.75401e-05
0.000189985
1.36004e-05
2.71333e-05
0.000182092
7.6174e-06
2.91305e-05
0.000185556
-8.49678e-06
2.79852e-05
0.000196413
-3.27788e-05
2.02796e-05
0.000206983
-5.26532e-05
1.09442e-05
0.000210831
-6.27153e-05
9.13366e-06
0.000206311
-6.90268e-05
1.91429e-05
0.000196333
-7.21547e-05
3.53993e-05
0.000189675
-7.47878e-05
4.5461e-05
0.000196157
-7.722e-05
3.79546e-05
0.000212736
-6.85688e-05
1.67024e-05
0.000222078
-3.68266e-05
-3.93382e-06
0.000213048
4.43105e-06
-1.37997e-05
0.000194612
2.60725e-05
-1.39343e-05
0.000181661
1.63972e-05
-6.21196e-06
0.000180824
-4.11717e-06
4.29678e-06
0.000190222
-1.07927e-05
1.20141e-05
0.000204851
-5.30498e-07
1.35244e-05
0.000219796
1.0242e-05
8.51762e-06
0.000228522
9.02913e-06
-4.35428e-06
-6.4431e-06
-2.36798e-05
0.000258755
-8.18715e-06
-3.28373e-05
0.000244425
-2.10575e-05
-5.84524e-05
0.000236171
-3.62218e-05
-7.26681e-05
0.000239485
-5.75127e-05
-6.85289e-05
0.000249522
-8.10396e-05
-4.96656e-05
0.000262383
-9.20893e-05
-2.55608e-05
0.000274948
-7.7155e-05
-1.64203e-06
0.000279109
-4.34524e-05
1.6655e-05
0.000270328
-1.6212e-05
2.07195e-05
0.000256822
-1.14276e-05
1.19058e-05
0.000253924
-1.85804e-05
2.8675e-06
0.000265054
-1.69886e-05
4.57563e-06
0.000275418
-3.98164e-06
1.24157e-05
0.00027264
-7.2694e-07
1.47647e-05
0.000265749
-2.28416e-05
1.06318e-05
0.000271213
-5.19871e-05
1.08776e-05
0.000282853
-5.21357e-05
1.92693e-05
0.000281109
-2.20054e-05
2.61614e-05
0.000263069
9.96571e-06
2.62494e-05
0.000240633
2.58326e-05
2.67353e-05
0.000224479
2.24885e-05
3.19294e-05
0.000220487
-1.17498e-06
3.23174e-05
0.000229269
-3.71517e-05
1.96683e-05
0.000244805
-6.29238e-05
1.34223e-06
0.000255512
-6.74913e-05
-7.21424e-06
0.000253723
-6.10619e-05
6.53865e-07
0.000240599
-5.66399e-05
2.27576e-05
0.000225318
-5.61877e-05
4.30594e-05
0.000220338
-6.24406e-05
4.45746e-05
0.000228981
-6.39538e-05
2.56879e-05
0.000238151
-3.88074e-05
3.1625e-06
0.000235535
6.00422e-06
-1.14046e-05
0.000224085
3.43367e-05
-1.63787e-05
0.000213264
2.7615e-05
-1.31379e-05
0.000208357
5.01361e-06
-2.7985e-06
0.000210684
-5.64616e-06
8.95066e-06
0.000219919
-3.07498e-07
1.829e-05
0.000236145
6.18798e-06
2.11578e-05
0.00025523
5.62137e-06
1.4366e-05
1.21223e-06
-5.21377e-06
0.000302882
3.0791e-06
-1.85881e-05
0.000290398
6.19617e-07
-5.04984e-05
0.000277661
-1.96687e-05
-7.30876e-05
0.000277231
-4.79395e-05
-7.74961e-05
0.00028605
-7.25162e-05
-6.46822e-05
0.000294761
-8.81576e-05
-4.2966e-05
0.00030184
-8.84595e-05
-1.8079e-05
0.000307086
-6.65055e-05
4.76228e-06
0.000304405
-3.13568e-05
1.56913e-05
0.000292767
-8.43212e-06
1.10435e-05
0.000283313
-8.74433e-06
1.103e-06
0.000287419
-1.74446e-05
4.21015e-07
0.000300975
-1.64861e-05
9.85285e-06
0.000308312
-1.0381e-05
1.68125e-05
0.000303237
-1.95728e-05
1.34419e-05
0.000297836
-4.64762e-05
7.71217e-06
0.000303468
-6.18414e-05
1.08955e-05
0.000311243
-4.37085e-05
1.91663e-05
0.000306954
-6.96103e-06
2.40315e-05
0.000290041
2.37255e-05
2.79475e-05
0.000271141
3.36323e-05
3.39128e-05
0.00025901
1.79024e-05
3.04995e-05
0.000258557
-2.10201e-05
1.09229e-05
0.000272625
-6.20774e-05
-1.07385e-05
0.000293024
-7.65249e-05
-2.1996e-05
0.000301423
-6.35686e-05
-1.53752e-05
0.000290053
-4.72892e-05
8.72131e-06
0.000268587
-3.8664e-05
3.65896e-05
0.000252913
-4.04789e-05
4.84987e-05
0.000251956
-4.53855e-05
3.54636e-05
0.000258367
-2.93143e-05
1.17902e-05
0.000260554
9.66289e-06
-7.09369e-06
0.000257191
3.73368e-05
-1.79885e-05
0.000252702
3.2589e-05
-2.14065e-05
0.000248726
1.22286e-05
-1.59005e-05
0.0002459
2.57816e-06
-4.03845e-06
0.000246664
6.71737e-06
8.03281e-06
0.000256255
5.52021e-06
1.7942e-05
0.000277463
-4.37661e-06
2.06696e-05
-5.84817e-06
9.80194e-06
0.000345994
-1.91352e-07
-9.85618e-06
0.000341589
1.3251e-05
-4.12123e-05
0.000328044
-2.72508e-06
-6.92227e-05
0.000322571
-3.40815e-05
-8.11599e-05
0.000328906
-5.93698e-05
-7.51299e-05
0.000336225
-7.58516e-05
-5.85527e-05
0.000337563
-8.59661e-05
-3.58074e-05
0.000336658
-7.85738e-05
-1.08965e-05
0.000334331
-4.73641e-05
7.9099e-06
0.00032731
-1.12076e-05
9.58054e-06
0.000318961
1.90461e-06
1.0472e-06
0.000318811
-9.2668e-06
-1.74926e-06
0.000330057
-2.15597e-05
7.05212e-06
0.00034246
-2.08338e-05
1.80947e-05
0.000343994
-2.04009e-05
1.85035e-05
0.000335341
-3.55136e-05
9.03161e-06
0.000327183
-5.30245e-05
3.76285e-06
0.000323916
-4.88531e-05
1.07467e-05
0.000320149
-2.32234e-05
2.32422e-05
0.000312337
7.49952e-06
3.27392e-05
0.000303731
2.92759e-05
3.35763e-05
0.000297425
3.11709e-05
2.01107e-05
0.000293395
3.13494e-06
-3.46726e-06
0.000299337
-4.53506e-05
-2.43964e-05
0.000321293
-7.98855e-05
-3.12191e-05
0.000341916
-7.68277e-05
-2.05219e-05
0.000339099
-5.21129e-05
3.12691e-06
0.000315435
-3.06326e-05
3.18717e-05
0.000291455
-2.1963e-05
5.07126e-05
0.000282438
-2.17616e-05
4.55257e-05
0.000286378
-1.03686e-05
2.24474e-05
0.000292137
1.81047e-05
-5.12687e-07
0.000295475
3.78347e-05
-1.68044e-05
0.000297695
3.04404e-05
-2.68187e-05
0.000298331
1.21671e-05
-2.78949e-05
0.000295851
6.58994e-06
-2.08401e-05
0.000292076
1.26276e-05
-9.96949e-06
0.000293512
8.81986e-06
1.70216e-06
0.000307467
-1.06698e-05
1.08901e-05
-1.85812e-05
9.66514e-06
0.000380767
-6.47292e-06
-9.3141e-06
0.000390036
1.42457e-05
-3.47101e-05
0.000383324
8.91381e-06
-6.23263e-05
0.000375209
-1.67862e-05
-7.97363e-05
0.000378145
-3.98775e-05
-8.12216e-05
0.000386067
-5.7397e-05
-7.06335e-05
0.0003864
-7.45908e-05
-5.21174e-05
0.000378874
-7.93236e-05
-2.72288e-05
0.000370559
-5.57327e-05
-4.57585e-06
0.000363212
-1.55048e-05
5.62119e-06
0.000357011
9.89658e-06
2.03181e-06
0.000356082
4.00214e-06
-1.05415e-06
0.000364596
-1.62009e-05
5.84089e-06
0.000378054
-2.49892e-05
1.86871e-05
0.000384207
-2.26945e-05
2.46552e-05
0.00037528
-2.63632e-05
1.66081e-05
0.000355704
-3.56216e-05
4.41433e-06
0.000336296
-3.54369e-05
3.66339e-06
0.000324941
-2.25324e-05
1.41208e-05
0.000324195
-4.5392e-06
2.15482e-05
0.0003313
1.46628e-05
1.63156e-05
0.000339002
2.75319e-05
-4.90025e-07
0.000340929
1.7254e-05
-2.15012e-05
0.000342594
-2.21097e-05
-3.72753e-05
0.000357251
-6.88787e-05
-3.79086e-05
0.000379611
-8.60928e-05
-2.15072e-05
0.000384436
-6.51523e-05
4.64721e-06
0.000362702
-3.18317e-05
3.13536e-05
0.000333502
-1.06798e-05
5.10715e-05
0.000318578
-2.89462e-06
5.14153e-05
0.000320512
7.69329e-06
3.13134e-05
0.000327927
2.76195e-05
7.18777e-06
0.000332264
4.04359e-05
-1.13116e-05
0.000334263
2.96747e-05
-2.33134e-05
0.000337938
9.24033e-06
-3.07342e-05
0.000342742
1.97537e-06
-3.20634e-05
0.000345126
9.26395e-06
-2.56423e-05
0.000344089
1.02737e-05
-1.24933e-05
0.000346581
-6.94327e-06
4.39367e-07
-2.04067e-05
3.28464e-06
0.00040307
-1.42965e-06
-9.61502e-06
0.000424741
1.27913e-05
-3.07961e-05
0.000433677
1.33707e-05
-5.39285e-05
0.000431103
-6.68379e-07
-7.35074e-05
0.0004336
-1.71875e-05
-8.27098e-05
0.000443547
-3.5193e-05
-7.95778e-05
0.000446206
-5.78731e-05
-6.65439e-05
0.000434709
-7.10144e-05
-4.5325e-05
0.000418239
-5.54756e-05
-2.06101e-05
0.00040606
-1.6934e-05
-3.29616e-06
0.00039964
1.3796e-05
3.23598e-06
0.000398694
1.57703e-05
3.93163e-06
0.000403972
-3.61882e-06
7.69877e-06
0.000413798
-1.94982e-05
1.70446e-05
0.000420223
-2.25368e-05
2.61546e-05
0.000414399
-2.29437e-05
2.56784e-05
0.000396095
-2.36606e-05
1.26864e-05
0.000374313
-1.83287e-05
-1.44978e-06
0.000360209
-9.78546e-06
-4.83618e-06
0.000360326
-5.12005e-06
-9.84016e-07
0.000371922
3.17015e-08
-3.47356e-07
0.000385037
1.04078e-05
-8.30096e-06
0.000391441
1.53273e-05
-2.34259e-05
0.00039367
-4.22828e-06
-3.63943e-05
0.000402784
-4.7114e-05
-3.71488e-05
0.000420394
-8.14856e-05
-2.10795e-05
0.000427837
-7.45701e-05
3.97976e-06
0.000410419
-3.67444e-05
2.87004e-05
0.000381086
-2.79677e-06
4.90617e-05
0.00036165
1.36636e-05
5.48732e-05
0.000357071
2.34574e-05
3.95808e-05
0.000357406
3.70325e-05
1.66502e-05
0.000355432
4.33029e-05
2.31859e-06
0.00035422
2.89292e-05
-5.03959e-06
0.000359549
3.6869e-06
-1.46805e-05
0.000371536
-1.02543e-05
-2.55754e-05
0.000382701
-5.0889e-06
-2.58931e-05
0.000385352
4.20011e-06
-1.14252e-05
0.000382417
6.85071e-07
3.88251e-06
-7.36372e-06
4.32447e-06
0.000429737
1.80191e-05
3.77489e-07
0.00045239
2.27729e-05
-2.41757e-05
0.000473878
1.87265e-05
-4.58791e-05
0.000485477
8.5471e-06
-6.26592e-05
0.000495355
-1.64064e-08
-7.45024e-05
0.000508769
-1.33327e-05
-7.98478e-05
0.000513715
-3.65898e-05
-7.62805e-05
0.000499837
-5.41754e-05
-6.19733e-05
0.000475709
-4.44422e-05
-3.93093e-05
0.000456088
-1.10944e-05
-1.70579e-05
0.000446517
1.78641e-05
-2.96923e-06
0.00044441
2.09729e-05
5.66811e-06
0.000447663
5.52582e-06
1.17011e-05
0.000452722
-9.79389e-06
1.89194e-05
0.000453817
-1.51858e-05
2.5732e-05
0.000446701
-1.71346e-05
2.74507e-05
0.000433991
-1.69324e-05
1.75151e-05
0.00042211
-9.15048e-06
-1.63364e-06
0.000415817
-9.7719e-07
-1.44296e-05
0.000417485
-4.78498e-06
-1.16569e-05
0.00042562
-1.34109e-05
-2.70809e-06
0.000433375
-8.85307e-06
-1.53584e-06
0.000435352
6.78096e-06
-9.44666e-06
0.000435749
6.8398e-06
-1.88085e-05
0.000442703
-2.43586e-05
-2.26009e-05
0.000458169
-6.57818e-05
-1.41608e-05
0.000469829
-7.62569e-05
5.72896e-06
0.000462273
-4.38232e-05
2.83375e-05
0.000439019
1.9791e-06
4.54389e-05
0.000415954
3.12578e-05
5.18638e-05
0.000399513
4.14336e-05
4.39191e-05
0.000387647
4.43219e-05
2.8882e-05
0.000380559
4.30324e-05
1.6488e-05
0.000381261
2.95185e-05
9.46103e-06
0.000390375
4.38397e-06
3.01082e-06
0.00040523
-1.68849e-05
-7.26504e-06
0.000418698
-1.83749e-05
-1.41004e-05
0.000423625
-4.54806e-06
-7.30795e-06
0.000420528
8.2353e-06
8.03429e-06
1.29351e-05
1.35893e-05
0.000469319
3.75626e-05
1.6139e-05
0.000487907
3.72969e-05
-3.6778e-06
0.000510488
2.42492e-05
-2.62884e-05
0.000531376
8.0205e-06
-4.52044e-05
0.000552194
6.51215e-07
-6.05725e-05
0.000572245
-3.22118e-06
-7.17738e-05
0.000580058
-1.62742e-05
-7.60269e-05
0.000566655
-3.08694e-05
-7.09616e-05
0.000540188
-2.67962e-05
-5.46667e-05
0.000515871
-1.62356e-06
-3.14927e-05
0.000500673
2.1684e-05
-1.09917e-05
0.000492916
2.43055e-05
2.09715e-06
0.000490252
1.20066e-05
1.04155e-05
0.000489823
1.12429e-07
1.96218e-05
0.000487587
-6.07145e-06
2.80328e-05
0.00048165
-9.03215e-06
2.76715e-05
0.000476438
-9.56161e-06
1.42439e-05
0.000477494
-3.76948e-06
-6.66569e-06
0.000483883
1.22223e-06
-1.88567e-05
0.000489173
-8.5249e-06
-1.13813e-05
0.000487517
-2.43354e-05
6.07821e-06
0.000479682
-2.25433e-05
1.53896e-05
0.000473142
-2.63765e-07
1.22662e-05
0.000475392
1.50487e-05
4.83967e-06
0.000487289
-9.44659e-07
3.56343e-08
0.000503079
-4.10726e-05
2.13385e-06
0.000514414
-6.671e-05
1.229e-05
0.000510125
-4.55879e-05
2.81588e-05
0.000490556
5.12203e-06
4.31579e-05
0.000465514
4.49276e-05
4.85503e-05
0.000441925
5.74646e-05
4.02535e-05
0.000423477
5.34449e-05
2.89032e-05
0.000415265
4.60813e-05
2.58968e-05
0.000419
3.54059e-05
2.77559e-05
0.000431171
1.7865e-05
2.31008e-05
0.000446279
-1.5259e-06
1.06677e-05
0.000458213
-8.97495e-06
1.15738e-06
0.00046289
8.31555e-07
3.20471e-06
0.000461406
1.68984e-05
1.55657e-05
2.93658e-05
2.33316e-05
0.00052377
4.27094e-05
3.80945e-05
0.00053494
4.28617e-05
2.37442e-05
0.000552842
2.72242e-05
-4.1824e-06
0.000574668
1.32258e-06
-2.7297e-05
0.000600312
-1.62371e-05
-4.06086e-05
0.000624563
-1.65563e-05
-5.10977e-05
0.000635479
-1.06571e-05
-6.38615e-05
0.000628031
-9.5245e-06
-7.33182e-05
0.000610723
-6.30597e-06
-7.05999e-05
0.000594687
7.20534e-06
-5.27933e-05
0.000581388
2.25921e-05
-2.7954e-05
0.000566787
2.60956e-05
-7.42177e-06
0.000550758
1.93253e-05
5.05024e-06
0.000537232
1.02441e-05
1.47413e-05
0.000529458
8.54071e-07
2.50542e-05
0.000528539
-1.00242e-05
3.14349e-05
0.000536696
-2.03659e-05
2.78985e-05
0.000554676
-2.44742e-05
1.45979e-05
0.000574104
-2.38787e-05
1.2891e-06
0.000580062
-2.64097e-05
2.06725e-06
0.000567076
-3.07131e-05
2.12642e-05
0.000545268
-2.33803e-05
4.53847e-05
0.000530522
1.70478e-06
5.35809e-05
0.000530478
2.74518e-05
3.72144e-05
0.000541785
2.87818e-05
7.45945e-06
0.000556212
-2.83729e-06
-8.65594e-06
0.00056557
-4.05541e-05
-1.03676e-07
0.000560431
-4.11694e-05
2.0888e-05
0.000538414
1.67911e-06
3.82693e-05
0.000509364
4.94257e-05
4.47677e-05
0.000483925
7.27288e-05
3.98312e-05
0.000468367
7.3707e-05
3.05415e-05
0.000464718
6.50461e-05
2.55718e-05
0.000470281
5.17905e-05
2.54525e-05
0.000480825
3.47926e-05
2.38816e-05
0.000494221
1.78726e-05
1.63272e-05
0.000508503
9.88363e-06
6.35702e-06
0.000519103
1.50318e-05
4.22208e-06
0.0005221
2.5775e-05
1.58625e-05
3.51116e-05
3.26232e-05
0.0005745
3.02093e-05
4.84927e-05
0.000586155
2.43606e-05
4.40658e-05
0.000604838
8.88022e-06
2.28328e-05
0.000625598
-1.16529e-05
-8.81818e-06
0.00064827
-2.81182e-05
-3.47491e-05
0.000672722
-2.87346e-05
-4.89151e-05
0.000690105
-1.538e-05
-5.52013e-05
0.000690386
6.08405e-07
-6.06065e-05
0.000675694
1.37441e-05
-6.52949e-05
0.000659193
2.38986e-05
-6.19703e-05
0.000649971
2.91568e-05
-4.78752e-05
0.000644579
2.67998e-05
-2.98564e-05
0.000636031
1.95271e-05
-1.51472e-05
0.000622086
1.23166e-05
-4.01313e-06
0.000606377
4.4827e-06
7.6215e-06
0.000595764
-8.38793e-06
2.10682e-05
0.000597612
-2.68877e-05
3.22054e-05
0.000615611
-4.53975e-05
3.44021e-05
0.000639883
-5.74017e-05
2.72089e-05
0.000650855
-5.70479e-05
2.05975e-05
0.000639644
-4.31065e-05
2.73578e-05
0.000616744
-1.86467e-05
4.72015e-05
0.00059739
1.13305e-05
5.97008e-05
0.000587876
3.50867e-05
4.38626e-05
0.000587068
3.70242e-05
6.19375e-06
0.000594538
1.15057e-05
-2.52057e-05
0.000605901
-2.60849e-05
-2.56349e-05
0.000609902
-4.14414e-05
-3.72389e-07
0.000597926
-1.35928e-05
2.68988e-05
0.000576791
3.6906e-05
4.16924e-05
0.000560379
7.43276e-05
4.04387e-05
0.0005549
8.80668e-05
2.60752e-05
0.000556757
8.34982e-05
8.08132e-06
0.00056022
6.7283e-05
-3.84009e-06
0.000562601
4.49943e-05
-3.93015e-06
0.000565841
2.59301e-05