/*--------------------------------*- C++ -*----------------------------------*\
| =========                 |                                                 |
| \\      /  F ield         | OpenFOAM: The Open Source CFD Toolbox           |
|  \\    /   O peration     | Version:  2306                                  |
|   \\  /    A nd           | Website:  www.openfoam.com                      |
|    \\/     M anipulation  |                                                 |
\*---------------------------------------------------------------------------*/
FoamFile
{
    version     2.0;
    format      ascii;
    arch        "LSB;label=32;scalar=64";
    class       volVectorField;
    location    "4.5";
    object      U;
}
// * * * * * * * * * * * * * * * * * * * * * * * * * * * * * * * * * * * * * //

dimensions      [0 1 -1 0 0 0 0];

internalField   nonuniform List<vector> 
60000
(
(0.00932726 4.39564e-05 0.00116819)
(0.00978307 5.60773e-05 0.00185922)
(0.00988335 5.14152e-05 0.00248505)
(0.00966433 2.95615e-05 0.00277104)
(0.00931445 8.56693e-06 0.0026746)
(0.00903907 -4.03822e-06 0.00234162)
(0.008859 -4.34229e-06 0.00193059)
(0.00869981 2.66102e-07 0.00152409)
(0.00851217 -5.56494e-07 0.0011746)
(0.00821405 -6.01466e-06 0.000966975)
(0.00766586 -1.0896e-05 0.000929075)
(0.00686262 -1.14514e-05 0.000996925)
(0.00606928 -7.36969e-06 0.00107793)
(0.00557866 -3.56129e-06 0.0011208)
(0.00547098 -8.13912e-06 0.00108232)
(0.00561739 -1.97686e-05 0.000893724)
(0.00581078 -2.40814e-05 0.00060834)
(0.00593921 -1.46779e-05 0.000334548)
(0.00607839 -2.62529e-06 9.89059e-05)
(0.00634006 6.69868e-06 -9.25029e-05)
(0.00668609 1.79483e-05 -0.000244958)
(0.00700314 2.65117e-05 -0.000405738)
(0.00727542 2.7245e-05 -0.000647658)
(0.00758839 1.34916e-05 -0.00101339)
(0.0080221 -3.76717e-06 -0.00152899)
(0.00852828 -1.39377e-05 -0.00208278)
(0.00891971 -1.6499e-05 -0.00243346)
(0.00897971 -1.56222e-05 -0.00250468)
(0.00861508 -7.66683e-06 -0.00249817)
(0.00789489 8.96781e-06 -0.00244946)
(0.00706752 1.41982e-05 -0.00225085)
(0.0064381 1.61973e-06 -0.00206005)
(0.00609943 -3.85366e-06 -0.00200568)
(0.00600262 1.74001e-06 -0.00193243)
(0.00613142 5.31583e-06 -0.00162748)
(0.00644061 1.37158e-05 -0.00103703)
(0.00682948 2.74321e-05 -0.000345626)
(0.00728504 4.1544e-05 0.000161877)
(0.0078866 4.31833e-05 0.000432613)
(0.00862127 3.71506e-05 0.000689212)
(0.0279297 0.000235727 0.00340532)
(0.0294271 0.000302279 0.00517485)
(0.0300964 0.000273901 0.0066364)
(0.0297886 0.000154835 0.00717443)
(0.0288185 3.09021e-05 0.00676686)
(0.0278418 -3.39943e-05 0.005889)
(0.0271605 -3.23403e-05 0.00494704)
(0.0266467 -6.2889e-06 0.0040504)
(0.0260732 3.03907e-06 0.00324283)
(0.0251528 -9.30665e-07 0.00268501)
(0.0235518 -1.06452e-05 0.00249804)
(0.0213052 -4.09531e-05 0.00264449)
(0.0190866 -9.61812e-05 0.00290624)
(0.0176138 -0.000160246 0.00302505)
(0.0170871 -0.000216933 0.00282467)
(0.0171651 -0.000241025 0.00226483)
(0.0173828 -0.000198524 0.00155147)
(0.0176064 -0.000109496 0.000896414)
(0.0180353 -3.22129e-05 0.000336855)
(0.0188044 2.18509e-05 -0.000136578)
(0.0197824 7.42084e-05 -0.000562704)
(0.0207974 9.91611e-05 -0.00105958)
(0.0218865 5.27276e-05 -0.00176166)
(0.023196 -6.59426e-05 -0.0027772)
(0.0247725 -0.000172994 -0.00413911)
(0.0263643 -0.000202906 -0.00553581)
(0.0274736 -0.000156038 -0.00640049)
(0.0275532 -6.84826e-05 -0.00659175)
(0.0264082 3.381e-05 -0.00648586)
(0.0243892 0.000105188 -0.0061429)
(0.0222147 6.38996e-05 -0.00558838)
(0.0204176 -4.6986e-05 -0.00531983)
(0.0190928 -9.17067e-05 -0.00539678)
(0.0183541 -6.61373e-05 -0.00520109)
(0.0184098 -2.37104e-05 -0.00422587)
(0.0191757 5.35204e-05 -0.00256014)
(0.020332 0.000157012 -0.000804419)
(0.0218046 0.000230156 0.00044331)
(0.0237064 0.000216668 0.00120049)
(0.0258807 0.000190357 0.00203513)
(0.0465307 0.000477509 0.00478467)
(0.049445 0.000595868 0.00745119)
(0.0512278 0.000504931 0.00968849)
(0.0512944 0.000247082 0.0105959)
(0.0497849 -2.14457e-06 0.0100477)
(0.0478588 -0.000112652 0.00875726)
(0.0464435 -9.76103e-05 0.00745613)
(0.0455196 -4.40689e-05 0.00631192)
(0.0446257 -2.04422e-05 0.00525443)
(0.0432595 -2.08637e-05 0.00435809)
(0.0409274 -3.60545e-05 0.00382948)
(0.0375727 -0.00010899 0.00385407)
(0.0339792 -0.000257646 0.00428587)
(0.0311626 -0.000436681 0.00460481)
(0.0296608 -0.000575158 0.00435193)
(0.0291853 -0.000606317 0.00352395)
(0.0291145 -0.000481359 0.00251454)
(0.0292768 -0.000267894 0.00162033)
(0.0299162 -8.69808e-05 0.000864306)
(0.0311252 3.68648e-05 0.000211523)
(0.0326997 0.000137388 -0.000398615)
(0.0344592 0.00015309 -0.00110689)
(0.0364994 -1.82614e-05 -0.00208318)
(0.0389811 -0.000334997 -0.00352803)
(0.0418862 -0.000593998 -0.00556498)
(0.0447664 -0.000648189 -0.007786)
(0.0468379 -0.000504433 -0.00931932)
(0.0472381 -0.000249016 -0.0098243)
(0.0456486 3.0259e-05 -0.00968299)
(0.0426561 0.000189046 -0.00899893)
(0.0393552 7.77235e-05 -0.00802163)
(0.0363815 -0.000164806 -0.00765993)
(0.0337498 -0.000248297 -0.00804909)
(0.0317362 -0.000185716 -0.00811481)
(0.0310123 -8.39895e-05 -0.0068814)
(0.0317789 9.19458e-05 -0.00445633)
(0.0335398 0.000332846 -0.0018256)
(0.0360203 0.00049375 9.35147e-05)
(0.0392662 0.00045077 0.00132281)
(0.0429596 0.000387748 0.00267344)
(0.0641187 0.000600573 0.00445502)
(0.0688949 0.000789521 0.0079419)
(0.0724685 0.000630429 0.0111321)
(0.0736343 0.000238053 0.0128725)
(0.0719178 -0.000107619 0.0126651)
(0.0688402 -0.000237372 0.0111442)
(0.0663707 -0.000196748 0.00949768)
(0.0649428 -0.000113692 0.00823857)
(0.0638505 -7.05561e-05 0.00720028)
(0.062335 -5.62327e-05 0.00613251)
(0.0597799 -5.95617e-05 0.00511396)
(0.0558987 -0.000155895 0.00466691)
(0.0512271 -0.000401406 0.00508655)
(0.0467482 -0.000741418 0.00577233)
(0.0434553 -0.00102188 0.00574566)
(0.041632 -0.00109538 0.0048041)
(0.0407759 -0.000887569 0.00359127)
(0.0405986 -0.000526353 0.00258667)
(0.0412582 -0.000216419 0.00179622)
(0.0427502 1.37947e-06 0.00113678)
(0.0447951 0.000147461 0.000541314)
(0.0472095 0.000119668 -0.000110499)
(0.0501188 -0.000253778 -0.000999381)
(0.053708 -0.000888062 -0.00246006)
(0.0579815 -0.001391 -0.00488149)
(0.0624098 -0.0014777 -0.0079866)
(0.0659369 -0.00117694 -0.0106081)
(0.0673265 -0.000655513 -0.0119461)
(0.0660185 -9.06863e-05 -0.0121756)
(0.0626688 0.00022694 -0.0113583)
(0.0586226 5.3366e-05 -0.00985079)
(0.054632 -0.000335082 -0.00907297)
(0.050647 -0.00046625 -0.00967428)
(0.0468495 -0.000372452 -0.0104312)
(0.0442782 -0.000235468 -0.00972589)
(0.0439952 2.63405e-05 -0.00721243)
(0.0457856 0.000424399 -0.00403222)
(0.0490351 0.00068932 -0.0015502)
(0.0535367 0.000608227 5.79254e-05)
(0.058803 0.000459309 0.00177605)
(0.0789027 0.000302831 0.00140495)
(0.0859064 0.000684541 0.00561874)
(0.0920108 0.000511696 0.00998779)
(0.0953556 3.95864e-05 0.0132482)
(0.0943 -0.000324307 0.0143207)
(0.0901733 -0.000406297 0.0131341)
(0.0862942 -0.000314601 0.0111179)
(0.0841751 -0.000207226 0.00963437)
(0.0830167 -0.000149963 0.00883285)
(0.0816803 -0.000116996 0.00803308)
(0.0794377 -8.85787e-05 0.00668371)
(0.075772 -0.000153867 0.00540306)
(0.070756 -0.000426448 0.00532831)
(0.0648774 -0.000907986 0.00633856)
(0.059176 -0.0013947 0.00690829)
(0.0548957 -0.00161153 0.00611457)
(0.0523619 -0.00139624 0.00473344)
(0.0513061 -0.000913789 0.00367129)
(0.0516195 -0.000468187 0.00300798)
(0.0530934 -0.000136056 0.00257266)
(0.0553063 7.32593e-05 0.00227992)
(0.0579986 -2.51873e-05 0.00206557)
(0.0612587 -0.000704648 0.00179186)
(0.0653146 -0.00185522 0.00101409)
(0.0704711 -0.00282923 -0.00106198)
(0.0765844 -0.00302177 -0.00475438)
(0.082431 -0.00240072 -0.00896887)
(0.0860315 -0.00141871 -0.012121)
(0.0862841 -0.000432736 -0.0136693)
(0.0836372 0.000159576 -0.0133931)
(0.0794963 -1.14493e-05 -0.0115262)
(0.0748346 -0.000529416 -0.00995303)
(0.0698275 -0.000707415 -0.0102712)
(0.064441 -0.000579533 -0.011657)
(0.0593892 -0.000451905 -0.0120929)
(0.0565014 -0.000202346 -0.0104968)
(0.0568025 0.000286592 -0.00759851)
(0.059873 0.000625542 -0.00505074)
(0.0650923 0.000462696 -0.0034044)
(0.0717296 0.000139091 -0.00160732)
(0.0880436 -0.000895535 -0.00520449)
(0.0969296 -0.000374936 -0.000878498)
(0.106228 -0.000235599 0.00448709)
(0.113449 -0.000530545 0.00996533)
(0.114892 -0.000742476 0.0137702)
(0.110589 -0.000647115 0.0143654)
(0.105124 -0.000434177 0.0124573)
(0.102039 -0.000300113 0.0104324)
(0.100942 -0.000254982 0.00970532)
(0.100112 -0.000214517 0.00969155)
(0.0985764 -0.000150957 0.00871341)
(0.0957885 -0.000137209 0.00659638)
(0.0914695 -0.000311712 0.00534185)
(0.0853734 -0.000806136 0.00616951)
(0.0777126 -0.00147364 0.00753489)
(0.0701132 -0.0019462 0.00733704)
(0.0645054 -0.00188849 0.00588089)
(0.0615372 -0.00139127 0.00466191)
(0.0608718 -0.000843373 0.00412826)
(0.061866 -0.000383257 0.00404553)
(0.0637829 -6.80622e-05 0.00425322)
(0.0661114 -0.00026009 0.00473432)
(0.0687753 -0.00140801 0.00543821)
(0.0719659 -0.00333534 0.0059799)
(0.0762614 -0.0050968 0.00542928)
(0.0826237 -0.00576378 0.00271333)
(0.091273 -0.00497872 -0.00237768)
(0.0994817 -0.00311767 -0.00835152)
(0.103741 -0.00121989 -0.0129112)
(0.103664 -9.62364e-05 -0.0145796)
(0.100577 -0.000138758 -0.0132154)
(0.095777 -0.000733558 -0.0109142)
(0.090237 -0.000932741 -0.010367)
(0.0841326 -0.000738394 -0.0117278)
(0.0773605 -0.000605982 -0.0130804)
(0.0713609 -0.000451342 -0.0129392)
(0.0682423 -4.0313e-05 -0.0114561)
(0.0689062 0.000215262 -0.00999715)
(0.073104 -0.000179563 -0.00917847)
(0.0798879 -0.000870141 -0.00794324)
(0.0916974 -0.00297041 -0.0139292)
(0.0992362 -0.00254343 -0.0106088)
(0.109213 -0.00224024 -0.00582318)
(0.121576 -0.00219822 0.0010519)
(0.129326 -0.00178708 0.00869877)
(0.127565 -0.00116311 0.013362)
(0.121062 -0.000642293 0.0133486)
(0.116748 -0.000381433 0.01091)
(0.115886 -0.000352226 0.00953879)
(0.116052 -0.000365545 0.010267)
(0.115464 -0.000286353 0.010718)
(0.113779 -0.000161509 0.0086076)
(0.110998 -0.000164521 0.00576799)
(0.10644 -0.000484049 0.00546115)
(0.0988722 -0.00115163 0.00728301)
(0.0886726 -0.00183767 0.00813353)
(0.0788308 -0.00209494 0.0070113)
(0.0723163 -0.00179045 0.00557131)
(0.069611 -0.00124225 0.00494004)
(0.0695693 -0.000651166 0.00502202)
(0.0709027 -0.000181403 0.0055079)
(0.0727706 -0.00047719 0.00631629)
(0.074868 -0.00223314 0.00758559)
(0.0770067 -0.00511292 0.0092808)
(0.0791943 -0.00778574 0.0107257)
(0.0825437 -0.00910223 0.0106972)
(0.0897678 -0.00862353 0.00769442)
(0.101548 -0.0063775 0.000949196)
(0.113083 -0.0032123 -0.00746502)
(0.119133 -0.000904466 -0.0131433)
(0.119259 -0.000482061 -0.014095)
(0.115128 -0.00100287 -0.0121296)
(0.109391 -0.00109979 -0.0106654)
(0.103516 -0.000774334 -0.0112243)
(0.0968176 -0.000601586 -0.0125961)
(0.0894586 -0.000488205 -0.0133433)
(0.0832455 -0.00020988 -0.0134883)
(0.0799424 -0.000246001 -0.0141318)
(0.0805591 -0.00118744 -0.015385)
(0.0850416 -0.00252541 -0.0156498)
(0.0955082 -0.00530923 -0.0218317)
(0.0997549 -0.00497561 -0.0194231)
(0.105742 -0.00498722 -0.0155609)
(0.117653 -0.00520965 -0.00963716)
(0.132261 -0.00412196 -0.00064458)
(0.137288 -0.00228167 0.0083635)
(0.131476 -0.00112527 0.0125377)
(0.125425 -0.00071258 0.0112825)
(0.12506 -0.000540952 0.00871)
(0.127414 -0.000510783 0.0090105)
(0.128394 -0.000563065 0.0112277)
(0.127413 -0.000442579 0.0107952)
(0.126094 -0.000163203 0.00707344)
(0.124439 -0.000125455 0.00478177)
(0.119993 -0.000589484 0.00612467)
(0.110355 -0.00123533 0.00801497)
(0.0971716 -0.00172562 0.00784779)
(0.0856984 -0.00181596 0.00655905)
(0.0793014 -0.00149691 0.00574152)
(0.077367 -0.000848354 0.00568202)
(0.0780642 -0.000177182 0.00604412)
(0.0802053 -0.000429845 0.00662709)
(0.0830448 -0.00252214 0.0077599)
(0.0855658 -0.00608022 0.00981217)
(0.0867787 -0.00960311 0.0124158)
(0.08669 -0.0117607 0.0147956)
(0.0885588 -0.0118586 0.0153069)
(0.096973 -0.00987952 0.0113751)
(0.111481 -0.00624382 0.0024742)
(0.125409 -0.00269874 -0.00706788)
(0.131881 -0.00132669 -0.0122094)
(0.129629 -0.00153665 -0.0126587)
(0.123451 -0.00152973 -0.0111976)
(0.118249 -0.000937536 -0.0104752)
(0.113567 -0.000405055 -0.0109282)
(0.107713 -9.65482e-05 -0.0115891)
(0.101407 0.000213864 -0.0124302)
(0.096094 -0.000125249 -0.0147522)
(0.0926657 -0.00188869 -0.0187184)
(0.0924075 -0.00426308 -0.021803)
(0.103137 -0.00706506 -0.0263622)
(0.104001 -0.00696936 -0.0254968)
(0.106401 -0.0071982 -0.0216762)
(0.113057 -0.00845584 -0.0160923)
(0.127252 -0.0077984 -0.00827329)
(0.139609 -0.00447076 0.001552)
(0.138577 -0.00171155 0.00902881)
(0.129928 -0.00112782 0.010595)
(0.126602 -0.00130852 0.00783925)
(0.131586 -0.000993442 0.00639491)
(0.136726 -0.000666254 0.00893905)
(0.135908 -0.000741345 0.0109948)
(0.132808 -0.00077236 0.00834334)
(0.133127 -0.000570187 0.0044368)
(0.135034 -0.000407607 0.00438829)
(0.131311 -0.00052187 0.00678121)
(0.119119 -0.000812201 0.00783547)
(0.103648 -0.00115671 0.00732829)
(0.0920451 -0.00132375 0.00675086)
(0.0866247 -0.000917739 0.00664542)
(0.0859521 -0.000161854 0.00681217)
(0.0883044 -0.000289223 0.00701978)
(0.0922832 -0.00239693 0.00753652)
(0.096053 -0.00604962 0.00905047)
(0.0979631 -0.00981279 0.0115981)
(0.0969357 -0.0125787 0.0148999)
(0.0943549 -0.013623 0.0181324)
(0.0963059 -0.0125247 0.0179324)
(0.107299 -0.0093743 0.0113554)
(0.124205 -0.00541819 0.000914346)
(0.136525 -0.00267706 -0.00760102)
(0.134686 -0.00153699 -0.0111539)
(0.12354 -0.00116363 -0.0104896)
(0.11567 -0.00109538 -0.00828512)
(0.115073 -0.000896032 -0.00697575)
(0.116738 -0.00010316 -0.00700733)
(0.116176 0.000915802 -0.00803636)
(0.113682 0.000866014 -0.0109658)
(0.10996 -0.0013905 -0.016629)
(0.105471 -0.00493887 -0.0230132)
(0.11537 -0.00714586 -0.0255391)
(0.111391 -0.0077698 -0.0280719)
(0.111295 -0.0080299 -0.0255157)
(0.114112 -0.0101736 -0.0196672)
(0.122793 -0.0113092 -0.0124396)
(0.136545 -0.00820662 -0.00389288)
(0.143513 -0.00320672 0.00428336)
(0.138408 -0.00100877 0.00819661)
(0.129809 -0.00179096 0.00670136)
(0.129312 -0.00244327 0.00384712)
(0.137667 -0.00135646 0.00494537)
(0.142527 -7.26159e-05 0.00847712)
(0.137868 -0.000363268 0.00838637)
(0.132672 -0.00180058 0.00469564)
(0.136251 -0.00246405 0.00309808)
(0.14281 -0.00155248 0.00506394)
(0.139294 -0.000326169 0.00696803)
(0.12513 2.17921e-05 0.00732787)
(0.109455 -0.000345905 0.00739944)
(0.0989782 -0.00052097 0.00788073)
(0.0950026 -0.000162537 0.00843312)
(0.0965441 -0.000441702 0.00833384)
(0.101569 -0.00254704 0.00751727)
(0.106948 -0.0059614 0.00736248)
(0.109946 -0.00933557 0.00898388)
(0.109261 -0.0118793 0.0123814)
(0.105151 -0.0132544 0.0170829)
(0.101788 -0.0134567 0.0201032)
(0.106473 -0.0118564 0.0165536)
(0.120565 -0.00850002 0.00664672)
(0.133938 -0.00430204 -0.00374237)
(0.133052 -0.000749635 -0.00950602)
(0.119822 0.00066059 -0.00939761)
(0.108201 -0.000195932 -0.00551589)
(0.105926 -0.00141274 -0.00146939)
(0.111277 -0.000937771 0.000350994)
(0.118581 0.000820031 -0.000223178)
(0.123773 0.00179144 -0.00333756)
(0.125336 0.00017151 -0.00976744)
(0.121828 -0.00380122 -0.0183844)
(0.12942 -0.00530299 -0.0201734)
(0.121494 -0.00701249 -0.0266211)
(0.117331 -0.00757313 -0.0275185)
(0.118364 -0.00993835 -0.0229299)
(0.123294 -0.0128558 -0.0156889)
(0.132851 -0.0120535 -0.00800516)
(0.143263 -0.00676707 -0.000563841)
(0.145938 -0.00193232 0.00460221)
(0.139632 -0.00121459 0.00526722)
(0.131681 -0.0029213 0.00262277)
(0.132409 -0.00315167 0.00176596)
(0.140983 -0.000692567 0.004741)
(0.144815 0.00127733 0.0069668)
(0.13936 -0.000509123 0.00522463)
(0.134881 -0.00436851 0.0030175)
(0.141251 -0.00538244 0.00406039)
(0.148795 -0.00254105 0.00626312)
(0.143819 0.000388329 0.00698801)
(0.129623 0.00131264 0.00721382)
(0.115513 0.0010087 0.00839885)
(0.106685 0.000374891 0.0101712)
(0.105097 -0.00110961 0.0104558)
(0.11001 -0.00378628 0.0079688)
(0.117513 -0.00666934 0.00498288)
(0.122718 -0.00893054 0.00469622)
(0.122901 -0.0106109 0.00768607)
(0.11808 -0.0114742 0.0132438)
(0.111335 -0.0121253 0.0188437)
(0.109369 -0.012347 0.0188039)
(0.117319 -0.0105806 0.0107461)
(0.128679 -0.0058106 -0.000302725)
(0.130004 -7.34699e-05 -0.0077753)
(0.119842 0.00294913 -0.00889121)
(0.108698 0.00176782 -0.00494808)
(0.103758 -0.000992552 0.000792806)
(0.106138 -0.00173221 0.00521311)
(0.113527 -3.22166e-05 0.00697707)
(0.122753 0.00179262 0.00554873)
(0.131185 0.00148241 -0.000277376)
(0.134289 -0.00153416 -0.0101185)
(0.140348 -0.00221137 -0.0127202)
(0.133089 -0.00456231 -0.0218267)
(0.125294 -0.00616443 -0.0263307)
(0.123677 -0.00878092 -0.025074)
(0.12768 -0.0123591 -0.0191135)
(0.133613 -0.0139726 -0.0117928)
(0.141059 -0.0109683 -0.00493774)
(0.147314 -0.00525602 0.000652997)
(0.146883 -0.0017074 0.00333081)
(0.139364 -0.00195648 0.00226431)
(0.132465 -0.00332122 0.000570143)
(0.13488 -0.00244047 0.00204371)
(0.143296 0.000264199 0.00498156)
(0.146587 0.000720102 0.00527295)
(0.141576 -0.0032871 0.00331528)
(0.13883 -0.00774823 0.00308266)
(0.145802 -0.00695348 0.00530446)
(0.151403 -0.00197137 0.00670227)
(0.1459 0.00200138 0.00668723)
(0.133515 0.00336733 0.00785874)
(0.121841 0.00244888 0.0108666)
(0.11569 -0.000861059 0.0118348)
(0.116783 -0.00544182 0.00760239)
(0.123964 -0.00865305 0.00160664)
(0.132648 -0.00947818 -0.000691479)
(0.136194 -0.00938161 0.00180168)
(0.131998 -0.00922111 0.00757042)
(0.123042 -0.00936733 0.0149831)
(0.115552 -0.0104522 0.0187644)
(0.116563 -0.0106406 0.0139819)
(0.123976 -0.00674724 0.00361114)
(0.126997 4.57653e-05 -0.00516118)
(0.122173 0.00454445 -0.00850963)
(0.115319 0.00378511 -0.00704625)
(0.110541 0.000384798 -0.00250379)
(0.109276 -0.00138578 0.00316293)
(0.112036 -0.000458366 0.00777552)
(0.118289 0.0011679 0.00978734)
(0.128305 0.00156892 0.00725917)
(0.13859 0.000380675 -0.00131098)
(0.145955 0.000331152 -0.0062972)
(0.143167 -0.00100296 -0.0161661)
(0.135005 -0.00380522 -0.0226915)
(0.130605 -0.00745237 -0.0244976)
(0.133281 -0.0111165 -0.0212691)
(0.138387 -0.0137272 -0.0154499)
(0.141969 -0.0134835 -0.00913406)
(0.145396 -0.00942523 -0.00303558)
(0.147352 -0.0040433 0.00140464)
(0.143862 -0.00137176 0.00226987)
(0.136919 -0.00197932 0.000782642)
(0.134209 -0.00290867 0.000921054)
(0.139535 -0.00189041 0.00369808)
(0.146669 -0.000599554 0.00561597)
(0.147541 -0.00247075 0.00439147)
(0.142789 -0.00722898 0.00242372)
(0.141754 -0.00960005 0.00307634)
(0.147074 -0.0062329 0.00512492)
(0.149788 -0.000270369 0.00608626)
(0.144316 0.00403832 0.00742218)
(0.134326 0.00488025 0.0105615)
(0.126136 0.00185613 0.0111132)
(0.122403 -0.00417331 0.00507145)
(0.124522 -0.00970567 -0.0030851)
(0.13404 -0.011092 -0.00633802)
(0.143817 -0.00925751 -0.0035211)
(0.143838 -0.00749496 0.00225824)
(0.13459 -0.00657192 0.00973248)
(0.123637 -0.00715213 0.0163257)
(0.118814 -0.00826988 0.0158879)
(0.121729 -0.00602173 0.007766)
(0.124855 0.000293185 -0.00170104)
(0.124061 0.00528982 -0.00745004)
(0.121937 0.00512904 -0.00897556)
(0.119936 0.00188188 -0.00722621)
(0.117964 -0.000152603 -0.00312219)
(0.116883 0.000194042 0.0020134)
(0.118218 0.000662826 0.00649106)
(0.124816 0.000178088 0.00791735)
(0.137276 0.000141503 0.00339477)
(0.147474 0.000299948 -0.00291526)
(0.150757 0.00164096 -0.0113368)
(0.145271 -0.000963543 -0.0187663)
(0.13927 -0.00560745 -0.0225204)
(0.139311 -0.00951763 -0.0214662)
(0.143797 -0.0120774 -0.0178116)
(0.146291 -0.0134197 -0.0131677)
(0.145818 -0.011898 -0.00699634)
(0.145433 -0.00688337 -0.000764482)
(0.143945 -0.00178354 0.00219111)
(0.139912 -0.000390553 0.001488)
(0.136684 -0.00208806 0.000845472)
(0.138899 -0.00323393 0.00316283)
(0.145453 -0.00242615 0.00630007)
(0.149843 -0.00242003 0.00627539)
(0.148087 -0.00542361 0.00302645)
(0.143092 -0.0087771 0.000962392)
(0.140589 -0.00808884 0.00265918)
(0.140046 -0.00335328 0.0061016)
(0.137629 0.00192565 0.00921137)
(0.133324 0.005053 0.0106744)
(0.130097 0.00450463 0.00802119)
(0.128057 -0.000518481 0.000708222)
(0.126538 -0.0080396 -0.00663536)
(0.131542 -0.012343 -0.0087889)
(0.143848 -0.0109313 -0.00524623)
(0.150466 -0.00744597 0.0001826)
(0.143807 -0.00494189 0.00598369)
(0.131111 -0.00421059 0.0126505)
(0.122619 -0.00475867 0.015675)
(0.122213 -0.00341879 0.011094)
(0.125271 0.00144724 0.00234138)
(0.127099 0.00554708 -0.00509412)
(0.128211 0.00521588 -0.00919435)
(0.129198 0.00248006 -0.0103386)
(0.128936 0.00119415 -0.0091019)
(0.127174 0.0017667 -0.0057165)
(0.125716 0.00119784 -0.000807511)
(0.127572 -0.00141737 0.00327286)
(0.136161 -0.00225086 0.00289606)
(0.144311 -0.00121112 -0.00127548)
(0.15234 0.00229146 -0.00772657)
(0.15288 0.00132845 -0.0148747)
(0.148053 -0.00299546 -0.0198943)
(0.145858 -0.00696814 -0.0205128)
(0.149208 -0.00967964 -0.0183928)
(0.152481 -0.0119687 -0.0156264)
(0.150833 -0.0124684 -0.0108042)
(0.146968 -0.00884162 -0.00385111)
(0.143951 -0.00272484 0.00110465)
(0.141227 0.000916279 0.00208943)
(0.13909 -0.000104966 0.00181317)
(0.139956 -0.00298426 0.00351141)
(0.144863 -0.00390184 0.00676981)
(0.150271 -0.0032079 0.00774135)
(0.150795 -0.00394364 0.00446967)
(0.144771 -0.00603516 0.000599672)
(0.136038 -0.00657929 0.000944768)
(0.129211 -0.00445597 0.00475033)
(0.126255 -0.000780693 0.00760898)
(0.127479 0.00300455 0.00662626)
(0.131295 0.00505618 0.00193175)
(0.134115 0.00282273 -0.00418822)
(0.133696 -0.00412395 -0.00850267)
(0.13479 -0.0113572 -0.00825575)
(0.143425 -0.0130785 -0.00352222)
(0.152296 -0.00934564 0.00189686)
(0.149321 -0.00485825 0.00594053)
(0.136875 -0.00242093 0.0105034)
(0.126437 -0.00168191 0.0139092)
(0.124009 -0.000238729 0.0116079)
(0.12693 0.00314281 0.00448163)
(0.129707 0.00563847 -0.00235484)
(0.130529 0.00451165 -0.0062169)
(0.13126 0.00173747 -0.00836114)
(0.133148 0.000755362 -0.00981455)
(0.134989 0.00189761 -0.00896774)
(0.135335 0.00180907 -0.00448152)
(0.134421 -0.00140127 0.000723789)
(0.136301 -0.00370759 0.00216344)
(0.13787 -0.00143468 0.000349501)
(0.146431 0.0015649 -0.00505136)
(0.15359 0.00198032 -0.0110654)
(0.153846 -0.000580128 -0.0163671)
(0.151948 -0.00363336 -0.018541)
(0.154673 -0.00647854 -0.0177315)
(0.159128 -0.00969545 -0.0162978)
(0.158103 -0.0116094 -0.0136809)
(0.15195 -0.00935359 -0.00803576)
(0.146175 -0.00344964 -0.00165656)
(0.142853 0.00149201 0.00211872)
(0.141402 0.0019146 0.00350669)
(0.141791 -0.00105083 0.00462205)
(0.144538 -0.00343125 0.0064255)
(0.148453 -0.00363988 0.00766383)
(0.149697 -0.00357039 0.00631165)
(0.145551 -0.00403428 0.00249417)
(0.13753 -0.00378076 -0.000512)
(0.129902 -0.00259746 -0.000214647)
(0.126589 -0.00126875 0.00157323)
(0.128731 0.000597123 0.00157738)
(0.134116 0.00280289 -0.00131567)
(0.138547 0.00310879 -0.00565119)
(0.139584 -0.000725968 -0.00867437)
(0.139926 -0.00790574 -0.00783327)
(0.144871 -0.0131041 -0.00299672)
(0.152213 -0.0115972 0.00240425)
(0.151571 -0.00580283 0.00607768)
(0.141385 -0.00115188 0.00989188)
(0.131055 0.000694986 0.0129802)
(0.126841 0.00193141 0.0112105)
(0.127052 0.00449335 0.00549306)
(0.127036 0.0063977 0.000951481)
(0.125734 0.00491716 -0.000647677)
(0.125742 0.00151423 -0.00208981)
(0.128854 -0.000248883 -0.00454249)
(0.133811 0.000755336 -0.00501773)
(0.137064 0.00161571 -0.00127204)
(0.136581 -7.81995e-05 0.00331807)
(0.134914 -0.00232117 0.00395743)
(0.134648 0.000746363 0.00295184)
(0.140314 0.00206414 -0.00208936)
(0.148806 0.00234155 -0.0073224)
(0.154522 0.00108564 -0.0117803)
(0.156769 -0.000583103 -0.0143651)
(0.160493 -0.002909 -0.0149196)
(0.165518 -0.00665168 -0.0152685)
(0.165202 -0.00957409 -0.0151476)
(0.158009 -0.0083444 -0.0116066)
(0.149761 -0.00312071 -0.00500767)
(0.144813 0.0019527 0.000720732)
(0.143003 0.00311949 0.00380448)
(0.143152 0.000771088 0.00532024)
(0.144663 -0.00188569 0.0063317)
(0.146286 -0.00297895 0.00694628)
(0.145737 -0.0033256 0.00656083)
(0.14231 -0.00328348 0.00409229)
(0.137838 -0.00211073 5.02838e-05)
(0.134342 -0.000588205 -0.00237925)
(0.133266 -0.000457779 -0.00155044)
(0.134958 -0.000940138 0.00013626)
(0.138182 -4.74698e-05 -0.000439301)
(0.14026 0.00161677 -0.00308506)
(0.14006 0.000913133 -0.00504972)
(0.140141 -0.00417268 -0.00442625)
(0.14362 -0.0104938 -0.00122061)
(0.149792 -0.0118768 0.00291816)
(0.151924 -0.00690275 0.00605719)
(0.146216 -0.000597004 0.00889899)
(0.137712 0.00329011 0.0112757)
(0.131311 0.00511106 0.0104674)
(0.126916 0.00637281 0.00680916)
(0.123465 0.00669253 0.00390243)
(0.12182 0.00445637 0.0032772)
(0.123115 0.000262327 0.00281896)
(0.127062 -0.00287713 0.000866553)
(0.132274 -0.00280138 -0.000647116)
(0.136066 -0.000728873 0.000969368)
(0.136279 0.000585375 0.00456782)
(0.134326 0.00043763 0.00588139)
(0.134246 0.00447978 0.00556984)
(0.138098 0.00475742 0.00188024)
(0.144585 0.00353944 -0.002671)
(0.151162 0.00193225 -0.00721746)
(0.156872 0.00130307 -0.0104576)
(0.16317 0.000110418 -0.0117127)
(0.16894 -0.00325567 -0.0125424)
(0.169197 -0.00657851 -0.0140997)
(0.162609 -0.00603732 -0.0136938)
(0.154104 -0.00160927 -0.00890789)
(0.148015 0.00268215 -0.00238466)
(0.144744 0.0035205 0.00222557)
(0.143234 0.00163957 0.00456795)
(0.142835 -0.000335272 0.00579402)
(0.142761 -0.00110081 0.00646132)
(0.141607 -0.00136967 0.00624569)
(0.139415 -0.00156755 0.00439462)
(0.13828 -0.000780291 0.000957554)
(0.139467 0.000196468 -0.00174633)
(0.141936 -0.000912948 -0.00159146)
(0.143082 -0.00335191 0.000403245)
(0.141512 -0.00334965 0.00148497)
(0.138734 -0.000302052 0.00105901)
(0.137426 0.00162045 0.00111712)
(0.139244 -0.00130045 0.00246967)
(0.143555 -0.00758918 0.00436728)
(0.148554 -0.0112098 0.00588202)
(0.15073 -0.00782357 0.00653823)
(0.147151 -0.000501709 0.00780858)
(0.140106 0.00511599 0.0093499)
(0.132877 0.00710592 0.00880338)
(0.126316 0.00704399 0.00662915)
(0.121691 0.00658011 0.00583211)
(0.120668 0.00518121 0.00705293)
(0.123037 0.00213786 0.00760793)
(0.12724 -0.00128143 0.00593002)
(0.131626 -0.0026706 0.00388647)
(0.134541 -0.0010974 0.0039635)
(0.134919 0.00148108 0.00587435)
(0.133862 0.00330423 0.00706994)
(0.137128 0.00657106 0.00721891)
(0.138754 0.00675155 0.00518689)
(0.142629 0.00454334 0.000989831)
(0.147725 0.00105713 -0.0037039)
(0.153904 -0.000934071 -0.00707155)
(0.161201 -0.000732618 -0.00874626)
(0.167139 -0.000507017 -0.0100402)
(0.168116 -0.00176715 -0.0119226)
(0.164226 -0.00230616 -0.0131647)
(0.159263 -5.09828e-05 -0.0113361)
(0.155624 0.00291967 -0.00665195)
(0.152328 0.00370168 -0.00199415)
(0.14824 0.00241972 0.000972695)
(0.1439 0.000768207 0.00275407)
(0.140657 -0.000439364 0.00409136)
(0.139194 -0.00113379 0.00495097)
(0.139592 -0.00121389 0.00498333)
(0.142713 -0.000478106 0.00374385)
(0.148496 0.000229517 0.00142573)
(0.153392 -0.000878703 -0.000245648)
(0.153121 -0.00337114 0.0011109)
(0.147691 -0.00377898 0.00513258)
(0.141608 -0.000660055 0.0082538)
(0.139153 0.00274281 0.00748034)
(0.140748 0.00238205 0.00388833)
(0.144407 -0.0027402 0.00194906)
(0.148328 -0.00805678 0.00361771)
(0.14998 -0.00693453 0.00528152)
(0.146536 0.00039221 0.00553493)
(0.139171 0.00734912 0.00621427)
(0.131427 0.0100256 0.00696242)
(0.12547 0.00945972 0.00682719)
(0.12254 0.0079673 0.00633256)
(0.12274 0.00627569 0.00620433)
(0.124949 0.00404943 0.00616344)
(0.128069 0.00156588 0.00555135)
(0.131776 0.00022601 0.0045558)
(0.135553 0.00107533 0.00429831)
(0.137775 0.0031462 0.00533429)
(0.137627 0.00508925 0.00684427)
(0.136452 0.00595053 0.00669217)
(0.13777 0.00631398 0.00663081)
(0.141565 0.00442856 0.00429575)
(0.146385 0.000303169 -0.000130493)
(0.151351 -0.0035537 -0.00477464)
(0.157091 -0.00463687 -0.00767218)
(0.163103 -0.00328349 -0.00875149)
(0.166262 -0.00149256 -0.00937995)
(0.164433 -2.06767e-05 -0.0101992)
(0.159821 0.00186129 -0.0100813)
(0.156389 0.00378737 -0.00807414)
(0.155027 0.00448592 -0.00508769)
(0.153841 0.003885 -0.00257047)
(0.15126 0.0028281 -0.000931185)
(0.14739 0.00122671 0.000484173)
(0.143632 -0.00167428 0.00214743)
(0.141727 -0.00512264 0.00401716)
(0.14358 -0.00746732 0.005245)
(0.149397 -0.00798222 0.00468513)
(0.155225 -0.00716864 0.00268815)
(0.155899 -0.00583459 0.00195662)
(0.151117 -0.00375647 0.0043767)
(0.145157 0.000121364 0.00719659)
(0.141544 0.00482803 0.00591271)
(0.140229 0.00683357 0.0004836)
(0.140624 0.00346973 -0.0039376)
(0.143096 -0.00312323 -0.0029216)
(0.146003 -0.00632973 0.00109196)
(0.145623 -0.00189941 0.00365892)
(0.141049 0.00612676 0.0047117)
(0.135697 0.0116728 0.00538168)
(0.132776 0.0132124 0.00479454)
(0.132529 0.012219 0.00266297)
(0.133409 0.00995365 0.000488833)
(0.134152 0.00704267 -0.000242129)
(0.134648 0.00428802 0.000701151)
(0.135536 0.00279285 0.00239918)
(0.13694 0.00295834 0.00379327)
(0.137772 0.0039002 0.00471373)
(0.137193 0.00487847 0.00568681)
(0.136007 0.00334548 0.0101041)
(0.137028 0.00119911 0.0117661)
(0.141469 -0.00118911 0.0107357)
(0.148068 -0.00352421 0.00648867)
(0.154221 -0.00489224 0.000518553)
(0.157498 -0.00430863 -0.00489656)
(0.157202 -0.00186576 -0.00839665)
(0.154361 0.00117682 -0.00971004)
(0.150692 0.0035779 -0.00930251)
(0.147531 0.00479972 -0.00810752)
(0.145642 0.00478118 -0.00712935)
(0.145389 0.00373906 -0.00666415)
(0.146976 0.00229769 -0.00601071)
(0.150082 0.00119967 -0.004653)
(0.153269 0.000583982 -0.00309198)
(0.15472 -0.000230353 -0.00170355)
(0.153726 -0.0021405 0.000225007)
(0.151853 -0.00547227 0.00323213)
(0.151368 -0.00913819 0.00632987)
(0.152477 -0.0106401 0.00790905)
(0.153028 -0.00827802 0.00751262)
(0.15102 -0.00312542 0.00640474)
(0.146967 0.00198295 0.00530475)
(0.143106 0.00483464 0.00302035)
(0.140822 0.00447277 -0.00100548)
(0.140553 0.00125918 -0.00439153)
(0.142393 -0.00322101 -0.00373246)
(0.14504 -0.00604321 0.000681303)
(0.145965 -0.00391312 0.00516067)
(0.144517 0.0024772 0.00737694)
(0.143059 0.00876707 0.00693083)
(0.143498 0.0122539 0.00372169)
(0.144932 0.0128098 -0.00150682)
(0.145586 0.0109517 -0.00649275)
(0.144971 0.0074738 -0.00914514)
(0.143706 0.00413782 -0.00842084)
(0.142743 0.00292909 -0.00477152)
(0.142011 0.00396579 -5.91368e-05)
(0.140414 0.00521461 0.00403813)
(0.137825 0.00496065 0.00729886)
(0.148873 0.00324581 0.00405168)
(0.150879 7.25359e-05 0.00833189)
(0.151996 -0.00231138 0.0118319)
(0.152724 -0.00345236 0.0129002)
(0.154729 -0.00338309 0.0105725)
(0.158112 -0.00156858 0.00553235)
(0.160959 0.00216662 -0.000398538)