/*--------------------------------*- C++ -*----------------------------------*\
| =========                 |                                                 |
| \\      /  F ield         | OpenFOAM: The Open Source CFD Toolbox           |
|  \\    /   O peration     | Version:  2306                                  |
|   \\  /    A nd           | Website:  www.openfoam.com                      |
|    \\/     M anipulation  |                                                 |
\*---------------------------------------------------------------------------*/
FoamFile
{
    version     2.0;
    format      ascii;
    arch        "LSB;label=32;scalar=64";
    class       volVectorField;
    location    "4.5";
    object      U_0;
}
// * * * * * * * * * * * * * * * * * * * * * * * * * * * * * * * * * * * * * //

dimensions      [0 1 -1 0 0 0 0];

internalField   nonuniform List<vector> 
60000
(
(0.00940414 4.55258e-05 0.00123816)
(0.00982838 5.80046e-05 0.00193792)
(0.00989355 5.02064e-05 0.00253812)
(0.00965628 2.6554e-05 0.00277808)
(0.00931324 6.37326e-06 0.00264242)
(0.00905364 -5.1548e-06 0.0022944)
(0.00887985 -4.30148e-06 0.00188494)
(0.00871891 4.15254e-07 0.00148733)
(0.00852383 -9.11872e-07 0.00115002)
(0.00820522 -6.70051e-06 0.000956666)
(0.00762511 -1.11413e-05 0.000929407)
(0.00680034 -1.13629e-05 0.00100145)
(0.00601779 -7.10255e-06 0.00108287)
(0.00556045 -3.9207e-06 0.00112262)
(0.00548373 -9.44099e-06 0.00107586)
(0.00564427 -2.10541e-05 0.000875998)
(0.0058329 -2.38021e-05 0.000587866)
(0.00595416 -1.33143e-05 0.000314818)
(0.00609941 -1.64847e-06 8.23062e-05)
(0.00637191 7.91442e-06 -0.000106088)
(0.00671903 1.89854e-05 -0.000257735)
(0.00703214 2.71649e-05 -0.000427515)
(0.00730569 2.63747e-05 -0.000683659)
(0.00763011 1.18143e-05 -0.00106629)
(0.00807924 -4.89969e-06 -0.00159122)
(0.00858648 -1.38764e-05 -0.00213229)
(0.00895711 -1.59885e-05 -0.00245249)
(0.00898115 -1.4565e-05 -0.00250586)
(0.00857798 -6.23746e-06 -0.00249723)
(0.00783197 1.02728e-05 -0.00243399)
(0.00700717 1.36038e-05 -0.00222418)
(0.00640233 8.84627e-08 -0.00204795)
(0.0060873 -3.82561e-06 -0.00200559)
(0.00601071 2.15033e-06 -0.00192245)
(0.00615819 5.24817e-06 -0.00159056)
(0.00648081 1.48627e-05 -0.000975661)
(0.00687989 2.92131e-05 -0.000284279)
(0.00735013 4.27092e-05 0.000203118)
(0.00796952 4.30072e-05 0.000460089)
(0.00871186 3.80669e-05 0.000732583)
(0.0281548 0.000244896 0.00359404)
(0.0295893 0.000308315 0.00536704)
(0.0301738 0.000264279 0.00675044)
(0.0297941 0.000136412 0.00716881)
(0.0288123 1.54727e-05 0.00667119)
(0.0278704 -4.10461e-05 0.0057709)
(0.0272174 -3.29634e-05 0.00484513)
(0.0267061 -5.88603e-06 0.00397134)
(0.0261066 2.31063e-06 0.00318646)
(0.0251247 -1.72441e-06 0.00265507)
(0.0234406 -1.20902e-05 0.00249546)
(0.0211419 -4.55134e-05 0.00266221)
(0.018947 -0.000103396 0.00292615)
(0.0175517 -0.00016833 0.003028)
(0.0170972 -0.000223263 0.00279943)
(0.0172056 -0.000241449 0.00221628)
(0.0174196 -0.000191261 0.0014999)
(0.017645 -0.000100042 0.000849333)
(0.0180995 -2.53069e-05 0.000296676)
(0.0188955 2.75914e-05 -0.000172282)
(0.0198827 7.73521e-05 -0.000603059)
(0.0209045 9.79066e-05 -0.00112475)
(0.0220131 4.28049e-05 -0.00186351)
(0.0233541 -7.68243e-05 -0.00292096)
(0.0249548 -0.000176849 -0.00430275)
(0.0265302 -0.00019693 -0.00566419)
(0.0275713 -0.000145894 -0.00645365)
(0.0275483 -5.75307e-05 -0.00659442)
(0.0263038 4.21493e-05 -0.00646265)
(0.0242321 0.000105201 -0.00608384)
(0.0220629 5.25815e-05 -0.0055317)
(0.0202975 -5.77298e-05 -0.00531395)
(0.0190115 -9.29677e-05 -0.0054076)
(0.0183359 -6.33195e-05 -0.00516283)
(0.0184676 -1.91014e-05 -0.00411079)
(0.0192922 6.26157e-05 -0.00239634)
(0.0204909 0.000167599 -0.000653427)
(0.0220097 0.000235453 0.000549119)
(0.0239531 0.000215797 0.00128965)
(0.026138 0.000196469 0.00216776)
(0.0469315 0.000495856 0.00507406)
(0.0497736 0.000603615 0.00774265)
(0.0514265 0.000480541 0.00986967)
(0.0513382 0.000207404 0.0106007)
(0.0497556 -3.47177e-05 0.00990872)
(0.0478705 -0.000127215 0.00858129)
(0.0465225 -9.98041e-05 0.00731283)
(0.0456221 -4.42098e-05 0.00620818)
(0.0446943 -2.21203e-05 0.00517569)
(0.0432389 -2.20828e-05 0.00430008)
(0.0407858 -3.97608e-05 0.00380537)
(0.0373398 -0.000120794 0.00387485)
(0.0337443 -0.000276959 0.00432793)
(0.0310126 -0.000456934 0.00461983)
(0.0296173 -0.000588283 0.00431511)
(0.0292017 -0.00060387 0.00345272)
(0.0291455 -0.000462839 0.00244199)
(0.0293295 -0.000245909 0.00155653)
(0.0300167 -7.08183e-05 0.000810193)
(0.0312701 4.83679e-05 0.000162662)
(0.0328686 0.000140737 -0.000454983)
(0.0346532 0.000144481 -0.00119627)
(0.036736 -4.52582e-05 -0.00222668)
(0.0392705 -0.000361249 -0.00374162)
(0.0422081 -0.000600714 -0.00582485)
(0.0450565 -0.000630633 -0.00801023)
(0.0470174 -0.000476083 -0.00943656)
(0.0472553 -0.000219843 -0.00984923)
(0.0455117 5.0055e-05 -0.00964099)
(0.0424391 0.000185976 -0.00889241)
(0.0391299 5.02425e-05 -0.00792909)
(0.0361654 -0.000186674 -0.00766284)
(0.0335518 -0.000250008 -0.00809481)
(0.0316202 -0.000179158 -0.00808618)
(0.0310411 -7.25567e-05 -0.00672413)
(0.0319417 0.00011233 -0.00421854)
(0.0337982 0.0003559 -0.00160194)
(0.0363645 0.000505035 0.00025761)
(0.0396802 0.000448701 0.00147051)
(0.0433939 0.000401611 0.00288487)
(0.0647308 0.000631552 0.00483302)
(0.0694473 0.000800354 0.0083395)
(0.0728591 0.000590176 0.011421)
(0.0737618 0.000176784 0.0129533)
(0.0718497 -0.000156009 0.0125305)
(0.0687861 -0.000259472 0.0109186)
(0.0664393 -0.000201509 0.00930895)
(0.065085 -0.00011496 0.0081183)
(0.0639712 -7.25158e-05 0.00711463)
(0.06236 -5.6722e-05 0.006046)
(0.059666 -6.37129e-05 0.00504275)
(0.0556518 -0.000173651 0.00466138)
(0.0509087 -0.00043476 0.00514795)
(0.0464565 -0.000779596 0.00582169)
(0.0432766 -0.00104721 0.00571617)
(0.041564 -0.00109215 0.00471824)
(0.0407694 -0.000856315 0.00350549)
(0.0406473 -0.000488916 0.00251738)
(0.0413799 -0.000188907 0.00174197)
(0.0429351 1.94799e-05 0.00109213)
(0.0450205 0.000150018 0.000493983)
(0.0474777 9.69045e-05 -0.000187445)
(0.0504517 -0.000307853 -0.00113918)
(0.0541211 -0.000939614 -0.00270374)
(0.0584557 -0.00140239 -0.00522975)
(0.0628608 -0.00144155 -0.00834421)
(0.0662521 -0.00111994 -0.0108528)
(0.0674292 -0.000596161 -0.0120525)
(0.0659128 -5.06343e-05 -0.0121562)
(0.0624429 0.000223161 -0.011216)
(0.0583549 8.00787e-06 -0.00969862)
(0.0543335 -0.000369899 -0.00905505)
(0.0503142 -0.000468716 -0.00976265)
(0.0465559 -0.000363848 -0.0104701)
(0.0441628 -0.000220931 -0.00960145)
(0.0441192 5.6756e-05 -0.00695391)
(0.0461007 0.000460242 -0.00376362)
(0.0494983 0.000705159 -0.00134523)
(0.0541139 0.000603643 0.000246985)
(0.0594269 0.000477327 0.00204831)
(0.0797521 0.000364223 0.0018546)
(0.0867391 0.000707436 0.0061305)
(0.0926836 0.000460255 0.0104351)
(0.0956586 -3.66634e-05 0.0135044)
(0.0942116 -0.000381062 0.0142934)
(0.089995 -0.000431816 0.0128966)
(0.0862904 -0.000321742 0.0108684)
(0.084334 -0.000210519 0.00948767)
(0.0831987 -0.00015198 0.00876256)
(0.0817816 -0.000115436 0.00794493)
(0.0794069 -8.94355e-05 0.00655332)
(0.0755855 -0.000170628 0.00532429)
(0.0704174 -0.000467363 0.00537722)
(0.0644361 -0.000965657 0.00643879)
(0.0587699 -0.00144184 0.00691984)
(0.0546411 -0.00161775 0.00602549)
(0.0522554 -0.00135731 0.00463525)
(0.0513159 -0.000861108 0.0036034)
(0.051736 -0.000427286 0.00296803)
(0.0532915 -0.000110275 0.00255338)
(0.0555525 7.33338e-05 0.00227292)
(0.0582887 -7.11166e-05 0.00204885)
(0.0616155 -0.000802512 0.00172488)
(0.06578 -0.00195505 0.000823912)
(0.0710776 -0.00286035 -0.00143872)
(0.0772617 -0.00295417 -0.00526563)
(0.0829933 -0.0022887 -0.00943863)
(0.0863362 -0.00131173 -0.0124239)
(0.086315 -0.000358613 -0.0137689)
(0.0834787 0.000163819 -0.013269)
(0.07923 -7.12664e-05 -0.0113072)
(0.0744881 -0.000577292 -0.0098668)
(0.0693987 -0.000709736 -0.0103656)
(0.0639633 -0.000569894 -0.0117796)
(0.0590162 -0.000442284 -0.0120794)
(0.056419 -0.000172513 -0.0103134)
(0.057044 0.000327894 -0.00735828)
(0.0603742 0.000638557 -0.00485819)
(0.0657908 0.000446367 -0.00321676)
(0.0725436 0.000152517 -0.0013051)
(0.0890665 -0.000820475 -0.00475865)
(0.0980554 -0.000324275 -0.00029941)
(0.107313 -0.00026449 0.00512141)
(0.11411 -0.000598321 0.0105147)
(0.114896 -0.000792201 0.0140249)
(0.110255 -0.000664985 0.0142449)
(0.104956 -0.00044 0.0121602)
(0.102162 -0.000306393 0.0102231)
(0.101179 -0.000258318 0.00965485)
(0.100298 -0.000209913 0.00965999)
(0.0986529 -0.000146039 0.00855829)
(0.0957264 -0.000143494 0.00640388)
(0.0912199 -0.00034523 0.00531027)
(0.0848812 -0.000872373 0.00630096)
(0.0770593 -0.00154698 0.00762604)
(0.0695403 -0.00197902 0.00727473)
(0.0641745 -0.00185735 0.00576763)
(0.0614384 -0.00132918 0.0045886)
(0.0609432 -0.000788476 0.00410421)
(0.0620419 -0.000346322 0.00405923)
(0.0640006 -7.08175e-05 0.00429964)
(0.0663391 -0.000340013 0.00480158)
(0.0690191 -0.00157235 0.00549549)
(0.0722862 -0.00351263 0.00594905)
(0.076789 -0.00518298 0.00519618)
(0.0834632 -0.00569869 0.00219883)
(0.0922724 -0.00479234 -0.00309745)
(0.100244 -0.00290239 -0.00902271)
(0.1041 -0.00107313 -0.0133006)
(0.1037 -6.55525e-05 -0.0145992)
(0.100371 -0.000204944 -0.0129858)
(0.0954142 -0.00079183 -0.0107364)
(0.0897768 -0.000932214 -0.0104043)
(0.0835693 -0.000724216 -0.0118786)
(0.0767656 -0.000602792 -0.0131748)
(0.0709492 -0.000434582 -0.0129079)
(0.0681874 -1.24263e-05 -0.0113651)
(0.069235 0.000207759 -0.00993134)
(0.0737661 -0.000232316 -0.00908495)
(0.0807784 -0.000885193 -0.00769048)
(0.0925851 -0.00291629 -0.013605)
(0.100312 -0.00247914 -0.0101262)
(0.110645 -0.00224914 -0.00514989)
(0.122938 -0.00220906 0.00191707)
(0.129773 -0.00177846 0.00943063)
(0.12717 -0.00114293 0.0136085)
(0.120636 -0.000633079 0.0131318)
(0.116747 -0.000386522 0.0106082)
(0.116161 -0.000360152 0.00945621)
(0.116316 -0.000360828 0.0103395)
(0.115617 -0.00027334 0.0106419)
(0.113842 -0.000151701 0.00831983)
(0.110931 -0.000176697 0.00557575)
(0.106088 -0.000535441 0.00554938)
(0.0981293 -0.00123521 0.00745975)
(0.0877419 -0.00190342 0.00815134)
(0.0781012 -0.00209545 0.00690376)
(0.0719701 -0.00173617 0.00548041)
(0.0695723 -0.00117632 0.00491368)
(0.0697001 -0.000598018 0.00504561)
(0.0710909 -0.000182315 0.00556772)
(0.0729493 -0.000597689 0.00640902)
(0.074997 -0.00248305 0.0077191)
(0.0770826 -0.00538888 0.00942125)
(0.0793396 -0.00794804 0.0107688)
(0.0830525 -0.00907748 0.0104739)
(0.0908562 -0.00842426 0.00705985)
(0.102939 -0.00606144 -2.82311e-05)
(0.11414 -0.00291983 -0.00833418)
(0.119612 -0.000794783 -0.0135116)
(0.119215 -0.000535658 -0.0140098)
(0.114754 -0.00106169 -0.0119175)
(0.108932 -0.00108693 -0.0106063)
(0.102997 -0.000751192 -0.0113192)
(0.0961953 -0.000597336 -0.0127075)
(0.0888503 -0.000478751 -0.0134177)
(0.0828402 -0.000202721 -0.0135969)
(0.0798687 -0.000303814 -0.0143239)
(0.0809033 -0.0013108 -0.0155245)
(0.0857521 -0.00259725 -0.0155547)
(0.0960756 -0.00527602 -0.0216776)
(0.100461 -0.0049144 -0.0190492)
(0.106902 -0.00503866 -0.0150017)
(0.119464 -0.00520049 -0.00876459)
(0.133598 -0.0039778 0.000452738)
(0.137193 -0.00214569 0.0091442)
(0.130743 -0.00107478 0.012658)
(0.125161 -0.00070857 0.0109685)
(0.125375 -0.000541499 0.00850321)
(0.127806 -0.000508833 0.00913354)
(0.128561 -0.000555592 0.0113431)
(0.127477 -0.000420745 0.0105447)
(0.126192 -0.000140609 0.00669668)
(0.124404 -0.000143452 0.00472094)
(0.119483 -0.000652439 0.00633267)
(0.109283 -0.00130829 0.00814759)
(0.0959753 -0.00176492 0.0078064)
(0.0849042 -0.00179823 0.00647227)
(0.0790183 -0.00143659 0.00570323)
(0.0774179 -0.000778651 0.00568977)
(0.0782771 -0.000166302 0.00607332)
(0.0804785 -0.000570471 0.00667515)
(0.0832685 -0.00283027 0.00786873)
(0.0856062 -0.00644686 0.0100109)
(0.0866071 -0.00987333 0.0126651)
(0.0865881 -0.0118217 0.0149497)
(0.0890869 -0.0116965 0.0150699)
(0.0983207 -0.00955108 0.0105422)
(0.113179 -0.00584398 0.00130958)
(0.126645 -0.00246008 -0.00791434)
(0.132179 -0.00132429 -0.012483)
(0.129176 -0.00158945 -0.0125724)
(0.122886 -0.00150984 -0.0110551)
(0.11783 -0.000886776 -0.0104358)
(0.113129 -0.00037479 -0.0109582)
(0.107203 -7.11241e-05 -0.0116495)
(0.10093 0.000216577 -0.0126293)
(0.0957071 -0.000242823 -0.0151972)
(0.0924794 -0.00211871 -0.0192309)
(0.0926437 -0.00442524 -0.0220204)
(0.103206 -0.00709823 -0.0265349)
(0.104417 -0.00690271 -0.0252156)
(0.107107 -0.00731616 -0.0211161)
(0.114524 -0.00855546 -0.0153147)
(0.129164 -0.0075692 -0.00720525)
(0.140337 -0.00410593 0.00262441)
(0.137867 -0.00154005 0.00954947)
(0.129146 -0.00113778 0.0104522)
(0.126766 -0.00131665 0.00750849)
(0.132313 -0.000947158 0.0064198)
(0.137052 -0.000638208 0.00920639)
(0.135682 -0.000746611 0.0109391)
(0.132682 -0.000773697 0.00790068)
(0.133408 -0.000559517 0.00417362)
(0.135143 -0.000410123 0.00454081)
(0.130592 -0.000554144 0.00701146)
(0.117715 -0.00084978 0.00791046)
(0.102317 -0.00118417 0.00730723)
(0.0913095 -0.00130409 0.00673972)
(0.0864664 -0.000854935 0.00665365)
(0.0861613 -0.000142515 0.00681657)
(0.0887123 -0.000433527 0.00701027)
(0.0927111 -0.00271637 0.00756975)
(0.0962774 -0.00643737 0.00920413)
(0.0978215 -0.010145 0.011893)
(0.096478 -0.0127581 0.0152949)
(0.0941451 -0.0135886 0.0183342)
(0.0970562 -0.0122647 0.0174722)
(0.108986 -0.0089763 0.0102502)
(0.126023 -0.00505267 -0.000237525)
(0.137121 -0.00250823 -0.00827468)
(0.133736 -0.00148798 -0.011274)
(0.122297 -0.00116765 -0.010273)
(0.115164 -0.00111142 -0.00802798)
(0.115184 -0.000863904 -0.00684339)
(0.116878 -2.95365e-06 -0.00700296)
(0.11612 0.000981332 -0.008219)
(0.113445 0.000748107 -0.0115033)
(0.109489 -0.00171374 -0.0174558)
(0.105049 -0.00524128 -0.0236942)
(0.114804 -0.00731266 -0.0261854)
(0.111427 -0.00772383 -0.0280748)
(0.111743 -0.00817892 -0.0249753)
(0.11502 -0.0104561 -0.0188619)
(0.124458 -0.0112238 -0.0114929)
(0.138047 -0.00767816 -0.00285115)
(0.14358 -0.00275914 0.00502388)
(0.137467 -0.000946484 0.00829094)
(0.1292 -0.00190194 0.00636132)
(0.129847 -0.00240753 0.00369794)
(0.13855 -0.00117576 0.00522068)
(0.14251 5.76371e-06 0.00866088)
(0.137202 -0.000483632 0.00809713)
(0.132555 -0.00197567 0.00432609)
(0.136988 -0.00248546 0.0031218)
(0.14312 -0.00144177 0.0053228)
(0.138346 -0.000249463 0.00714122)
(0.123553 1.97882e-05 0.00739889)
(0.108181 -0.000373541 0.00747173)
(0.0983841 -0.00051427 0.00796488)
(0.095038 -0.000178545 0.00846643)
(0.0970243 -0.000606953 0.00825787)
(0.102211 -0.00286135 0.0074099)
(0.107393 -0.00631539 0.00740977)
(0.109944 -0.00963819 0.00927398)
(0.108765 -0.0120812 0.0128912)
(0.104483 -0.0133572 0.0176043)
(0.101765 -0.0133855 0.0200591)
(0.107646 -0.0115771 0.0156465)
(0.122336 -0.0080678 0.00536396)
(0.134685 -0.00387482 -0.00469769)
(0.131996 -0.000506308 -0.00979106)
(0.118209 0.000648478 -0.00910036)
(0.107356 -0.000364205 -0.00498836)
(0.106084 -0.00148554 -0.00106394)
(0.112027 -0.000811952 0.000495313)
(0.119364 0.000993912 -0.000367172)
(0.124243 0.00178915 -0.00389693)
(0.125219 -0.000131304 -0.0107576)
(0.121138 -0.00421807 -0.0194552)
(0.12861 -0.00559934 -0.0212294)
(0.120988 -0.00705324 -0.0270771)
(0.117502 -0.00771748 -0.027251)
(0.119021 -0.0103348 -0.0221253)
(0.1244 -0.0130578 -0.0147347)
(0.134356 -0.0116616 -0.0070643)
(0.144197 -0.00608031 0.000220299)
(0.145654 -0.00158346 0.00492606)
(0.138645 -0.00129762 0.00507344)
(0.13117 -0.00304543 0.00234951)
(0.133034 -0.00297774 0.00188272)
(0.14179 -0.000373001 0.00504982)
(0.144688 0.00128716 0.00694847)
(0.138674 -0.000935504 0.00492381)
(0.134999 -0.00475024 0.00292919)
(0.142267 -0.00528935 0.0042955)
(0.149003 -0.00220075 0.0064779)
(0.142702 0.000591505 0.00708156)
(0.12812 0.00133606 0.00733713)
(0.114416 0.000949234 0.00860771)
(0.106291 0.000238931 0.0103153)
(0.105422 -0.001384 0.0103291)
(0.110808 -0.00410345 0.00763996)
(0.118277 -0.00692344 0.00481824)
(0.122956 -0.00912278 0.00492852)
(0.122446 -0.0107459 0.00827098)
(0.117185 -0.0115981 0.0140036)
(0.110657 -0.0122295 0.0192077)
(0.109754 -0.0122879 0.018219)
(0.118631 -0.0102009 0.00949583)
(0.129489 -0.00517814 -0.00142352)
(0.129315 0.000410851 -0.00823982)
(0.118484 0.00300487 -0.00866863)
(0.107763 0.0014797 -0.00432758)
(0.103596 -0.00122873 0.00143953)
(0.106697 -0.00168245 0.00562323)
(0.114539 0.000195151 0.00704316)
(0.123903 0.0019304 0.0051145)
(0.131939 0.00133494 -0.00131629)
(0.134099 -0.00192488 -0.0114514)
(0.139946 -0.00250905 -0.0140176)
(0.132302 -0.00474422 -0.0226422)
(0.125047 -0.00636882 -0.0265084)
(0.124205 -0.00919032 -0.0245353)
(0.128553 -0.0127598 -0.0181841)
(0.134637 -0.0139122 -0.0108603)
(0.142116 -0.0103606 -0.00416153)
(0.147739 -0.00461269 0.00114264)
(0.1463 -0.00149481 0.00336969)
(0.138335 -0.00207361 0.00201826)
(0.132149 -0.00333896 0.000525277)
(0.135609 -0.00217392 0.00231076)
(0.144057 0.000477309 0.00515454)
(0.146443 0.000436271 0.00511811)
(0.140973 -0.00393088 0.00313169)
(0.139134 -0.00803908 0.00322996)
(0.146729 -0.00657127 0.00558115)
(0.151398 -0.00142416 0.00680549)
(0.144825 0.00227408 0.00677208)
(0.132236 0.00337012 0.00814773)
(0.120982 0.00220027 0.0111327)
(0.115506 -0.00130994 0.0116178)
(0.117328 -0.00589379 0.00698007)
(0.125018 -0.00882674 0.00118192)
(0.133444 -0.00945983 -0.000549947)
(0.136047 -0.00938373 0.00239637)
(0.131039 -0.00927695 0.00847137)
(0.121916 -0.00951581 0.0157264)
(0.115146 -0.0105943 0.0186268)
(0.117225 -0.0104322 0.0129362)
(0.124701 -0.00606313 0.00242037)
(0.126808 0.000729926 -0.00584377)
(0.121416 0.00471059 -0.00857449)
(0.114639 0.00347279 -0.00665471)
(0.110163 5.07623e-05 -0.00184916)
(0.10935 -0.00144645 0.00381416)
(0.112596 -0.000295215 0.00818119)
(0.119353 0.00132245 0.00973636)
(0.129717 0.00159361 0.00648392)
(0.139373 0.000202343 -0.00268261)
(0.146299 0.000267726 -0.0075772)
(0.142527 -0.00125635 -0.017158)
(0.134468 -0.0041699 -0.0231946)
(0.13087 -0.0078987 -0.0243488)
(0.134139 -0.0115523 -0.0205823)
(0.139142 -0.0139367 -0.0145927)
(0.14255 -0.0131944 -0.00831198)
(0.145853 -0.00873454 -0.00238621)
(0.147242 -0.0034709 0.00168624)
(0.143101 -0.00124237 0.00216048)
(0.136231 -0.00209116 0.000651892)
(0.134397 -0.00288676 0.00109259)
(0.140382 -0.00172659 0.00397898)
(0.147176 -0.000664881 0.00561553)
(0.147193 -0.00299038 0.00411784)
(0.142294 -0.00779093 0.00231785)
(0.142085 -0.0095483 0.00330338)
(0.147659 -0.00560641 0.00533777)
(0.14956 0.000337511 0.0062193)
(0.143297 0.00430781 0.00772828)
(0.133259 0.00474356 0.0108224)
(0.125479 0.00135591 0.0107052)
(0.122278 -0.00487559 0.00414252)
(0.12531 -0.010093 -0.00372391)
(0.135474 -0.0109679 -0.00624654)
(0.144484 -0.00902911 -0.00291816)
(0.143143 -0.00739454 0.00312625)
(0.133253 -0.00663717 0.010671)
(0.122652 -0.00733997 0.0166716)
(0.118825 -0.00823071 0.0152247)
(0.122228 -0.00544754 0.00662492)
(0.124986 0.00101721 -0.00258461)
(0.123857 0.00554325 -0.00784556)
(0.121683 0.00486462 -0.0089377)
(0.119656 0.00153353 -0.00683777)
(0.117755 -0.000262233 -0.00253268)
(0.116927 0.000248725 0.00260238)
(0.118755 0.000674291 0.00683474)
(0.126144 0.000203018 0.00766908)
(0.138769 0.000235355 0.0023872)
(0.148466 0.000565236 -0.0038747)
(0.150588 0.00151968 -0.0123458)
(0.144664 -0.00143104 -0.0194806)
(0.139206 -0.00614324 -0.0226437)
(0.140028 -0.00993905 -0.02105)
(0.144565 -0.0123693 -0.0171933)
(0.146521 -0.0134228 -0.012421)
(0.145805 -0.0113986 -0.00618305)
(0.14533 -0.00613291 -0.000212129)
(0.143533 -0.00134042 0.00227256)
(0.139385 -0.000431573 0.00135455)
(0.136612 -0.00228803 0.000929637)
(0.139521 -0.00324777 0.003497)
(0.146195 -0.00238072 0.00645986)
(0.149965 -0.00268326 0.00597797)
(0.147512 -0.005942 0.00260857)
(0.142522 -0.00900484 0.000958728)
(0.140424 -0.00771896 0.00302284)
(0.139811 -0.00271338 0.00652478)
(0.137046 0.00241789 0.00951181)
(0.132759 0.00520331 0.0105811)
(0.129809 0.00419654 0.00729737)
(0.127789 -0.00130032 -0.000283125)
(0.126647 -0.00881474 -0.00719271)
(0.132793 -0.0124708 -0.0086368)
(0.145266 -0.0105547 -0.00466795)
(0.150423 -0.00710671 0.00085884)
(0.142482 -0.00483362 0.00679247)
(0.129779 -0.00428413 0.0132771)
(0.122157 -0.00474973 0.0154689)
(0.122508 -0.00299176 0.0101752)
(0.125623 0.00205667 0.00136574)
(0.127296 0.00575734 -0.00576273)
(0.128347 0.00498877 -0.00949798)
(0.129217 0.00221497 -0.0103201)
(0.128784 0.00114796 -0.00880458)
(0.127 0.00176718 -0.00520574)
(0.125794 0.00100714 -0.000255032)
(0.128307 -0.00161256 0.00348462)
(0.137598 -0.00208081 0.00242978)
(0.145458 -0.000791881 -0.00194919)
(0.152876 0.00241658 -0.00862262)
(0.152608 0.000931688 -0.0156787)
(0.147792 -0.00355466 -0.020213)
(0.146325 -0.00740573 -0.0202858)
(0.150032 -0.0100125 -0.0179852)
(0.15274 -0.0121505 -0.0150939)
(0.150441 -0.0121963 -0.00999945)
(0.146495 -0.00809787 -0.00307441)
(0.14354 -0.0020373 0.00144214)
(0.140863 0.00107294 0.00209902)
(0.138992 -0.00039806 0.00188313)
(0.140366 -0.00324951 0.00380979)
(0.145591 -0.00391266 0.00700559)
(0.15066 -0.00324296 0.00750926)
(0.150339 -0.00420212 0.00390969)
(0.143677 -0.00626538 0.000342629)
(0.134975 -0.00647938 0.00123967)
(0.128542 -0.00406018 0.00517449)
(0.126058 -0.000313068 0.00768451)
(0.127734 0.00336571 0.00619431)
(0.131684 0.0050605 0.00115082)
(0.134181 0.00224744 -0.004904)
(0.133575 -0.00508256 -0.00873805)
(0.13539 -0.0119687 -0.00787254)
(0.144749 -0.0128991 -0.00284069)
(0.152731 -0.00881957 0.00246341)
(0.148224 -0.00450476 0.00649516)
(0.135392 -0.00231245 0.011061)
(0.125705 -0.00159077 0.0139334)
(0.124152 8.91356e-05 0.01093)
(0.12735 0.00355163 0.00359632)
(0.129925 0.00570852 -0.00298178)
(0.130591 0.00423838 -0.00655192)
(0.131402 0.00149315 -0.00857099)
(0.133365 0.00076341 -0.00983948)
(0.135125 0.00195691 -0.00860147)
(0.135326 0.00159783 -0.00382925)
(0.134518 -0.00176806 0.00115922)
(0.137046 -0.00367787 0.0019924)
(0.13869 -0.00116429 -0.000249537)
(0.14747 0.0017642 -0.00580078)
(0.154037 0.001763 -0.0118084)
(0.153781 -0.00101673 -0.0168062)
(0.152262 -0.00406043 -0.0184953)
(0.155522 -0.00688586 -0.0174698)
(0.159568 -0.0100139 -0.0159913)
(0.1576 -0.0115118 -0.0131088)
(0.151095 -0.00870913 -0.00721923)
(0.145537 -0.00266875 -0.00100777)
(0.1425 0.00183807 0.00244141)
(0.141311 0.001707 0.00367049)
(0.142003 -0.00144167 0.00478819)
(0.145007 -0.00360469 0.00658507)
(0.148813 -0.00365532 0.00760888)
(0.14947 -0.00363342 0.00591419)
(0.144668 -0.00408418 0.00200145)
(0.13644 -0.00368942 -0.000693927)
(0.129167 -0.00241488 -8.78818e-05)
(0.126497 -0.00105824 0.0016417)
(0.129193 0.00087171 0.00131912)
(0.134691 0.00298337 -0.00185518)
(0.138801 0.00292298 -0.00616862)
(0.139594 -0.00144737 -0.0088192)
(0.140273 -0.00878509 -0.00743417)
(0.14583 -0.0133597 -0.00228945)
(0.152764 -0.0110956 0.00296953)
(0.150798 -0.00517848 0.00655666)
(0.140013 -0.000828913 0.0103904)
(0.130177 0.000835185 0.0130665)
(0.126673 0.00218151 0.0106809)
(0.127094 0.00479463 0.0048499)
(0.126909 0.00640522 0.000629978)
(0.125611 0.00457735 -0.000774553)
(0.125924 0.00117198 -0.00230732)
(0.129363 -0.000298438 -0.00470646)
(0.134328 0.000873902 -0.00475941)
(0.137228 0.00154552 -0.000661884)
(0.13645 -0.000359623 0.00369324)
(0.135049 -0.00242476 0.00374912)
(0.135108 0.000849452 0.00240983)
(0.141276 0.00213905 -0.00276655)
(0.149722 0.00219655 -0.00794153)
(0.155 0.000804241 -0.0121942)
(0.157229 -0.000894367 -0.0144598)
(0.161307 -0.00333994 -0.0148673)
(0.166026 -0.0070783 -0.015233)
(0.164691 -0.00959589 -0.0148841)
(0.156896 -0.00780441 -0.010896)
(0.148829 -0.00236834 -0.0041901)
(0.144328 0.00236361 0.00128415)
(0.14287 0.00301203 0.00410522)
(0.143257 0.000400023 0.00547782)
(0.144879 -0.00214612 0.00640742)
(0.146363 -0.00308585 0.00693331)
(0.145461 -0.00336729 0.00635192)
(0.14176 -0.00321537 0.00364006)
(0.137284 -0.00192117 -0.000390808)
(0.134028 -0.000466712 -0.00248765)
(0.13329 -0.000481042 -0.00140459)
(0.135245 -0.000890952 0.000162832)
(0.138477 0.000167067 -0.000712581)
(0.14032 0.00172902 -0.00342734)
(0.140053 0.000546875 -0.00514787)
(0.14045 -0.0049738 -0.00421317)
(0.14438 -0.0110446 -0.000777004)
(0.150457 -0.011606 0.00335496)
(0.151672 -0.00615782 0.00643134)
(0.145238 -8.82066e-06 0.00926668)
(0.136782 0.00361091 0.0113882)
(0.130685 0.00529039 0.0101634)
(0.126439 0.00645765 0.00642747)
(0.123138 0.00653767 0.00375828)
(0.121819 0.00401808 0.00327593)
(0.123474 -0.000215267 0.00268774)
(0.127667 -0.00307301 0.000655827)
(0.132872 -0.00265642 -0.00061763)
(0.13632 -0.000523269 0.00136159)
(0.136177 0.000640707 0.00493747)
(0.134272 0.000420697 0.00577927)
(0.134632 0.00455441 0.00521063)
(0.138856 0.00465069 0.00131714)
(0.145486 0.00328065 -0.00329113)
(0.151978 0.00172068 -0.00771749)
(0.157667 0.00112685 -0.010686)
(0.164037 -0.000261452 -0.0117563)
(0.169411 -0.00372452 -0.0126463)
(0.168733 -0.00668891 -0.0141705)
(0.161517 -0.00557641 -0.0133264)
(0.153083 -0.000952615 -0.00813517)
(0.147369 0.00302475 -0.00165989)
(0.144399 0.00341427 0.00266666)
(0.143086 0.00135104 0.00479556)
(0.142803 -0.000542404 0.0059055)
(0.142681 -0.00118352 0.00648503)
(0.141378 -0.00142837 0.00610681)
(0.139191 -0.00154334 0.00403786)
(0.138294 -0.000650519 0.000542196)
(0.13972 0.000193694 -0.00191166)
(0.142137 -0.00115338 -0.00145429)
(0.142956 -0.00349781 0.000581347)
(0.14114 -0.00308438 0.00148422)
(0.138436 7.86064e-05 0.00101022)
(0.137502 0.00155317 0.00120146)
(0.139721 -0.00196696 0.00263262)
(0.144221 -0.00831537 0.00455776)
(0.149076 -0.0112148 0.00601043)
(0.150606 -0.00705333 0.00665905)
(0.146369 0.000348344 0.00802127)
(0.139146 0.00558746 0.00942854)
(0.13199 0.00719172 0.008626)
(0.125613 0.0069701 0.00648272)
(0.121375 0.00642161 0.00593608)
(0.120807 0.00487365 0.00720264)
(0.123479 0.00172559 0.0075081)
(0.127799 -0.00158482 0.00566196)
(0.132108 -0.00265091 0.00376524)
(0.134765 -0.000818372 0.00413516)
(0.134912 0.00175432 0.00612399)
(0.13391 0.0034739 0.00707383)
(0.137308 0.00664418 0.00712073)
(0.139215 0.00655367 0.00474859)
(0.143284 0.00407448 0.000363583)
(0.148519 0.000618734 -0.00425672)
(0.154859 -0.00109135 -0.00739345)
(0.162145 -0.000712246 -0.00891494)
(0.167592 -0.000591309 -0.0102193)
(0.167843 -0.00188827 -0.012106)
(0.163574 -0.00212394 -0.0131025)
(0.15869 0.000386533 -0.0108724)
(0.155165 0.00320827 -0.0060243)
(0.151798 0.00365564 -0.00150574)
(0.147622 0.00220392 0.00127069)
(0.14336 0.000536065 0.00296078)
(0.140334 -0.000606035 0.00424875)
(0.139122 -0.00121413 0.00503055)
(0.139843 -0.00118313 0.00491201)
(0.143361 -0.000380278 0.00350354)
(0.149275 0.000207899 0.00113138)
(0.153662 -0.00111563 -0.000287019)
(0.152593 -0.00353721 0.00149632)
(0.146801 -0.00353274 0.00562917)
(0.141028 -0.000168804 0.00839385)
(0.139164 0.00296468 0.00710755)
(0.141155 0.00199057 0.00341329)
(0.144937 -0.0035313 0.00192587)
(0.148736 -0.00837004 0.00392111)
(0.149848 -0.00630943 0.00542591)
(0.145747 0.00139874 0.00563309)
(0.138145 0.00796733 0.00634643)
(0.130574 0.0101349 0.00702278)
(0.124997 0.00931022 0.00681019)
(0.122501 0.00774986 0.00630132)
(0.123016 0.00601066 0.00615302)
(0.125358 0.0037425 0.00605023)
(0.128536 0.00132151 0.00538856)
(0.13228 0.000197805 0.00444671)
(0.13596 0.00127998 0.00435833)
(0.137926 0.00340128 0.00553079)
(0.13764 0.00529054 0.00700255)
(0.136552 0.00600027 0.00679729)
(0.138192 0.0061409 0.00648595)
(0.142209 0.00393219 0.00380876)
(0.147085 -0.000331916 -0.000798295)
(0.152124 -0.00394212 -0.00530842)
(0.157974 -0.00462308 -0.00791429)
(0.163778 -0.00304486 -0.0088186)
(0.166273 -0.00123802 -0.00944115)
(0.163829 0.000246188 -0.0102179)
(0.159153 0.00217218 -0.00990131)
(0.156018 0.00399777 -0.00771173)
(0.154835 0.00450534 -0.00471909)
(0.153557 0.00378105 -0.00230768)
(0.150781 0.00263785 -0.000728711)
(0.146829 0.00086404 0.000706518)
(0.143202 -0.00218025 0.00242487)
(0.141685 -0.00557433 0.0042577)
(0.144103 -0.00769382 0.00529808)
(0.150244 -0.00794906 0.00447649)
(0.155686 -0.00696199 0.00245397)
(0.155555 -0.00553037 0.00206473)
(0.150326 -0.00328814 0.00475677)
(0.144511 0.000761233 0.00726709)
(0.141246 0.00529657 0.00536396)
(0.140173 0.00669443 -0.000281356)
(0.140842 0.00271139 -0.00418385)
(0.143531 -0.00382405 -0.00251188)
(0.146212 -0.00619935 0.00157583)
(0.145259 -0.000982371 0.00389705)
(0.140383 0.00701736 0.00487066)
(0.135277 0.0120856 0.00541709)
(0.132798 0.0132084 0.00458811)
(0.132808 0.0119718 0.00231928)
(0.133691 0.00957982 0.000242568)
(0.134344 0.00664112 -0.000263191)
(0.134814 0.00399359 0.000860303)
(0.135744 0.00270116 0.00258843)
(0.137121 0.00302893 0.00393253)
(0.137802 0.00401192 0.00484638)
(0.137131 0.0049846 0.00585357)
(0.136038 0.00304673 0.0104474)
(0.137498 0.000846944 0.0118333)
(0.142315 -0.00155554 0.0103324)
(0.149013 -0.00381679 0.00568672)
(0.154893 -0.00496145 -0.00035601)
(0.157669 -0.00407329 -0.00553846)
(0.156904 -0.00142002 -0.00869821)
(0.153807 0.00162273 -0.00970885)
(0.150125 0.00387102 -0.00912594)
(0.147114 0.00488932 -0.00792362)
(0.145454 0.00469578 -0.0070386)
(0.145472 0.00355624 -0.00661598)
(0.147325 0.00212334 -0.0058908)
(0.150562 0.00109089 -0.00445707)
(0.153621 0.000486843 -0.00288293)
(0.154734 -0.000450254 -0.0014421)
(0.153461 -0.00257924 0.000616019)
(0.151611 -0.00604483 0.00370445)
(0.151366 -0.00954148 0.00667748)
(0.152585 -0.010561 0.00797099)
(0.152915 -0.0077062 0.00736008)
(0.15057 -0.00239355 0.00621094)
(0.146406 0.00252291 0.00503282)
(0.14269 0.00498066 0.00254887)
(0.140647 0.00418409 -0.00154243)
(0.140669 0.000694576 -0.00457478)
(0.142732 -0.00373516 -0.00334483)
(0.145312 -0.00604601 0.00129202)
(0.145924 -0.00325567 0.0055895)
(0.144342 0.00335117 0.00748904)
(0.143122 0.00935677 0.00668714)
(0.143813 0.0124359 0.00311434)
(0.145214 0.0126476 -0.00224535)
(0.145667 0.0105262 -0.00703409)
(0.144896 0.00695162 -0.00926678)
(0.143604 0.00379523 -0.00809024)
(0.142676 0.00291639 -0.00417198)
(0.141887 0.00412346 0.000548824)
(0.140155 0.00526497 0.00453405)
(0.137577 0.00480293 0.00772729)
(0.149175 0.00282277 0.0046567)
(0.151117 -0.00032096 0.00891712)
(0.152106 -0.00252813 0.0121641)
(0.152921 -0.00349192 0.0127534)
(0.155157 -0.00321136 0.00995111)
(0.158606 -0.00110354 0.00468751)