/*--------------------------------*- C++ -*----------------------------------*\
| =========                 |                                                 |
| \\      /  F ield         | OpenFOAM: The Open Source CFD Toolbox           |
|  \\    /   O peration     | Version:  2306                                  |
|   \\  /    A nd           | Website:  www.openfoam.com                      |
|    \\/     M anipulation  |                                                 |
\*---------------------------------------------------------------------------*/
FoamFile
{
    version     2.0;
    format      ascii;
    arch        "LSB;label=32;scalar=64";
    class       volVectorField;
    location    "4.5";
    object      UMean;
}
// * * * * * * * * * * * * * * * * * * * * * * * * * * * * * * * * * * * * * //

dimensions      [0 1 -1 0 0 0 0];

internalField   nonuniform List<vector> 
60000
(
(0.0102077 3.05399e-05 0.00222271)
(0.0102474 1.59498e-05 0.00233758)
(0.0101215 2.37784e-06 0.0022974)
(0.00992304 -6.12486e-06 0.00215743)
(0.00971804 -9.40452e-06 0.00195107)
(0.00946417 -9.24922e-06 0.00168443)
(0.00907875 -7.55101e-06 0.00139168)
(0.00851762 -7.16171e-06 0.00114699)
(0.00782157 -9.86838e-06 0.00101892)
(0.00709941 -1.43792e-05 0.00102297)
(0.00646293 -1.80661e-05 0.00110291)
(0.00601464 -1.85236e-05 0.00115671)
(0.00580769 -1.77022e-05 0.00110399)
(0.00580212 -1.71207e-05 0.000933169)
(0.00591536 -1.52598e-05 0.000684032)
(0.00606422 -1.00672e-05 0.000412201)
(0.00623006 -2.711e-07 0.000162739)
(0.00645182 9.05843e-06 -6.58934e-05)
(0.00674945 1.47923e-05 -0.000305147)
(0.00710469 1.76409e-05 -0.000587076)
(0.00750359 1.8249e-05 -0.000933029)
(0.0079401 1.48213e-05 -0.00133053)
(0.00839451 7.44918e-06 -0.00172898)
(0.00880066 -5.32165e-07 -0.00207195)
(0.00902986 -5.60555e-06 -0.00230723)
(0.00896481 -6.09172e-06 -0.0024051)
(0.008602 -4.78176e-06 -0.00238402)
(0.00803008 -2.94801e-06 -0.00230897)
(0.00737337 -5.65659e-07 -0.00222882)
(0.00678563 1.59954e-06 -0.00214068)
(0.00642052 1.67634e-06 -0.00202431)
(0.00633467 3.72732e-06 -0.00182294)
(0.00648783 1.1922e-05 -0.00145362)
(0.00682557 2.20763e-05 -0.000922496)
(0.00729783 3.28966e-05 -0.000328647)
(0.00784611 4.24482e-05 0.000232832)
(0.00841715 5.01096e-05 0.000715152)
(0.00898875 5.29609e-05 0.00114324)
(0.0095278 4.98048e-05 0.00156307)
(0.00995905 4.21442e-05 0.00194671)
(0.0311688 0.000102507 0.00583416)
(0.0314571 2.64509e-05 0.00600872)
(0.0311721 -4.07925e-05 0.00583244)
(0.0305663 -7.93473e-05 0.00548394)
(0.0298717 -8.00908e-05 0.00504371)
(0.0290346 -5.24187e-05 0.0044711)
(0.0278617 -2.08455e-05 0.00378926)
(0.0262332 -1.21787e-05 0.00317344)
(0.0242434 -4.10945e-05 0.00282541)
(0.0221543 -9.67781e-05 0.00280993)
(0.0202432 -0.000152747 0.00298874)
(0.0187883 -0.000191018 0.00308444)
(0.0179595 -0.000207807 0.00288593)
(0.0176868 -0.000198077 0.002393)
(0.0177847 -0.000157793 0.00174633)
(0.018063 -9.40719e-05 0.00108311)
(0.0184996 -2.63039e-05 0.000474694)
(0.0191914 2.05574e-05 -0.000109597)
(0.0201542 4.1166e-05 -0.0007554)
(0.021322 4.07489e-05 -0.0015433)
(0.0226679 2.3122e-05 -0.00251882)
(0.0241597 -1.14072e-05 -0.00362913)
(0.0256915 -5.38396e-05 -0.00471741)
(0.0270315 -8.1795e-05 -0.00560703)
(0.0278078 -8.1372e-05 -0.0061466)
(0.0277024 -6.14695e-05 -0.00628676)
(0.0267023 -4.32569e-05 -0.00613494)
(0.025031 -3.44211e-05 -0.00589047)
(0.0230434 -3.86806e-05 -0.00568082)
(0.0211916 -5.78191e-05 -0.005513)
(0.0199059 -7.38937e-05 -0.00530979)
(0.0193774 -5.00583e-05 -0.00483644)
(0.0195814 2.12068e-05 -0.00383557)
(0.0204266 0.000110089 -0.00236436)
(0.0217663 0.000197531 -0.000737715)
(0.0234077 0.000266648 0.000776251)
(0.0251766 0.000301503 0.00207086)
(0.0269972 0.000287258 0.00321303)
(0.0287604 0.000236877 0.00429881)
(0.0302304 0.000173781 0.00523234)
(0.0529569 0.000109812 0.00858399)
(0.0537192 -5.73749e-05 0.00882536)
(0.053401 -0.000191597 0.00852028)
(0.0523857 -0.00025572 0.00800296)
(0.0511362 -0.000236076 0.00745309)
(0.0497248 -0.000157647 0.00678408)
(0.047932 -7.86955e-05 0.00591307)
(0.0455151 -5.66737e-05 0.00501193)
(0.0424691 -0.000122818 0.00439958)
(0.0390719 -0.000253892 0.00425809)
(0.0357389 -0.000386233 0.00446521)
(0.0329634 -0.000480682 0.00462984)
(0.0311006 -0.000525731 0.00439228)
(0.030146 -0.00050107 0.00370826)
(0.0298986 -0.000397506 0.00280048)
(0.0300974 -0.000239244 0.00189138)
(0.0306953 -8.51032e-05 0.00107181)
(0.0318085 1.02681e-05 0.000281459)
(0.0334313 4.02809e-05 -0.000615191)
(0.0354494 1.54225e-05 -0.00174904)
(0.0378288 -5.56163e-05 -0.00320645)
(0.0405117 -0.000160458 -0.00493173)
(0.0433049 -0.000270317 -0.00669245)
(0.0458312 -0.000332635 -0.00818074)
(0.0475044 -0.000319624 -0.0091017)
(0.0477707 -0.000257842 -0.00933153)
(0.046503 -0.000195151 -0.00903896)
(0.0439649 -0.000152064 -0.00857565)
(0.0406881 -0.000147929 -0.00821079)
(0.0373842 -0.000190067 -0.00803872)
(0.0347628 -0.000224713 -0.00796776)
(0.0332465 -0.000162504 -0.00757401)
(0.0329724 7.75177e-06 -0.00633694)
(0.0339329 0.000220011 -0.00423784)
(0.0359428 0.000425935 -0.0017589)
(0.038665 0.000587396 0.000616491)
(0.0417505 0.00065911 0.00267045)
(0.0450255 0.000602233 0.00447445)
(0.0482701 0.000454502 0.00617946)
(0.0510573 0.000285051 0.00764908)
(0.074668 -6.44928e-06 0.0102261)
(0.0762009 -0.000265261 0.0107647)
(0.0760727 -0.000456095 0.0104478)
(0.0747387 -0.000526366 0.00977821)
(0.0729304 -0.000464484 0.00914915)
(0.0710135 -0.000314311 0.00853685)
(0.0688824 -0.000167533 0.00770818)
(0.0661566 -0.000109897 0.00666861)
(0.0625571 -0.000195688 0.00576809)
(0.0581421 -0.000402853 0.0053749)
(0.0533405 -0.000633214 0.00552302)
(0.0488988 -0.000815304 0.00579857)
(0.0454616 -0.000922322 0.00567391)
(0.0432191 -0.000908227 0.00496935)
(0.0420987 -0.000748384 0.003939)
(0.041844 -0.000485777 0.00292549)
(0.0423452 -0.000229714 0.00208163)
(0.0436726 -8.29093e-05 0.00132667)
(0.0457841 -5.77255e-05 0.00046703)
(0.0485264 -0.000138946 -0.000695548)
(0.0518807 -0.000312379 -0.00233054)
(0.0557857 -0.000540522 -0.00446369)
(0.0599811 -0.000756113 -0.00687604)
(0.0639945 -0.000862436 -0.00915562)
(0.0670771 -0.000810671 -0.0107978)
(0.068395 -0.000654832 -0.0114578)
(0.0675657 -0.000491993 -0.0112278)
(0.0647476 -0.000364521 -0.0105715)
(0.060545 -0.000316765 -0.00996332)
(0.0558253 -0.000374303 -0.00970995)
(0.0515108 -0.00044819 -0.00987007)
(0.0483209 -0.000379221 -0.00995386)
(0.0467288 -0.000131408 -0.0091125)
(0.0470164 0.000201039 -0.00701176)
(0.0491473 0.000540743 -0.00410015)
(0.0527319 0.000818364 -0.00105403)
(0.0571644 0.00094727 0.00170402)
(0.0620709 0.000845915 0.00416157)
(0.0670617 0.00057848 0.00653283)
(0.0714834 0.000280862 0.00870362)
(0.0945971 -0.000322597 0.010014)
(0.0972774 -0.000621061 0.0114284)
(0.0976953 -0.000832218 0.0115342)
(0.0963135 -0.000871189 0.0108771)
(0.094084 -0.000736405 0.0101539)
(0.0917781 -0.000501228 0.00963017)
(0.0895993 -0.000280852 0.00904961)
(0.0871302 -0.000169406 0.00811786)
(0.0837415 -0.000232427 0.00701498)
(0.0790185 -0.000471989 0.0062681)
(0.0730947 -0.000787133 0.00622265)
(0.066877 -0.00107834 0.00659572)
(0.0614113 -0.00129082 0.00670421)
(0.0572097 -0.00134365 0.00613767)
(0.0544857 -0.00118017 0.00509101)
(0.0531556 -0.000846599 0.00405588)
(0.0530622 -0.000499767 0.00334508)
(0.0541394 -0.000308065 0.00290364)
(0.0562511 -0.000309547 0.00247545)
(0.0592127 -0.000496354 0.00178441)
(0.063081 -0.000857854 0.000541787)
(0.0679042 -0.00131732 -0.00148264)
(0.0734361 -0.00172145 -0.00427159)
(0.0791731 -0.00189069 -0.00744752)
(0.0842882 -0.00174127 -0.0102991)
(0.0876303 -0.00137533 -0.0120923)
(0.0883517 -0.00099571 -0.0125663)
(0.0862891 -0.000699971 -0.0120803)
(0.082005 -0.00054189 -0.0112633)
(0.0764292 -0.000568254 -0.0107232)
(0.0705684 -0.000677282 -0.0109044)
(0.065338 -0.000650354 -0.011571)
(0.0615674 -0.000412197 -0.011693)
(0.0599858 -5.60747e-05 -0.0104534)
(0.0610166 0.000340241 -0.00795547)
(0.064588 0.000695307 -0.00483949)
(0.0699627 0.000880434 -0.00169069)
(0.0764412 0.0007592 0.00129157)
(0.0833454 0.00040092 0.00433437)
(0.0897353 1.3401e-05 0.00742849)
(0.109755 -0.00112668 0.006374)
(0.114173 -0.0012684 0.00951672)
(0.115743 -0.00136476 0.0110715)
(0.114914 -0.00129994 0.011137)
(0.112701 -0.00103716 0.0105369)
(0.110261 -0.000688017 0.0100523)
(0.108269 -0.00040188 0.00978389)
(0.106523 -0.000243158 0.00924115)
(0.104187 -0.00024165 0.00818856)
(0.100274 -0.00043133 0.00709814)
(0.09426 -0.000758087 0.00667345)
(0.0867904 -0.00113851 0.00701332)
(0.0792704 -0.00148786 0.00740368)
(0.0726671 -0.0016717 0.00711852)
(0.0675908 -0.00158708 0.00614132)
(0.0643529 -0.00125862 0.00505845)
(0.0629316 -0.000867959 0.00444868)
(0.0630758 -0.000649541 0.00440274)
(0.0644019 -0.000703726 0.00464778)
(0.0665834 -0.00106489 0.00486415)
(0.069743 -0.00175695 0.00469214)
(0.0742529 -0.0026589 0.0036756)
(0.080224 -0.00347687 0.0014322)
(0.08741 -0.00385349 -0.00205427)
(0.0950397 -0.00358773 -0.00614859)
(0.101646 -0.00283808 -0.00975444)
(0.105656 -0.00197883 -0.0120209)
(0.10605 -0.00128058 -0.0127314)
(0.10308 -0.000870766 -0.012269)
(0.0977941 -0.000767506 -0.0114515)
(0.0913183 -0.000841571 -0.0112578)
(0.0846225 -0.000841403 -0.0120909)
(0.0786342 -0.000678741 -0.013204)
(0.074355 -0.000439709 -0.0134535)
(0.0727143 -0.000184041 -0.0123937)
(0.0743981 6.21362e-05 -0.0103106)
(0.0790769 0.000181144 -0.00769198)
(0.0859932 -2.21198e-05 -0.00483797)
(0.0942907 -0.000485888 -0.00153997)
(0.102732 -0.000898203 0.00236666)
(0.11641 -0.00281261 -0.00145985)
(0.122904 -0.00254353 0.00358683)
(0.126332 -0.00226648 0.0075962)
(0.127017 -0.00195916 0.00974077)
(0.125859 -0.0014839 0.0101564)
(0.123994 -0.000925271 0.00989142)
(0.122514 -0.000521438 0.00981677)
(0.121694 -0.000348381 0.00979348)
(0.121001 -0.000303516 0.00915403)
(0.119109 -0.000343892 0.00795749)
(0.114657 -0.000536332 0.00705403)
(0.107483 -0.000906937 0.00708554)
(0.0988085 -0.00137558 0.00765576)
(0.0900219 -0.0017256 0.0077882)
(0.0822345 -0.00179145 0.00705384)
(0.0763346 -0.00156093 0.0059199)
(0.0728043 -0.00120217 0.00519064)
(0.0714399 -0.000983235 0.00521654)
(0.071512 -0.00109775 0.00580417)
(0.0723346 -0.00169171 0.00669302)
(0.0738703 -0.0028661 0.00763878)
(0.076749 -0.00442521 0.00815371)
(0.0814963 -0.00586719 0.00755286)
(0.0882734 -0.00663643 0.00526896)
(0.096981 -0.00640073 0.00129785)
(0.106503 -0.00527779 -0.00351922)
(0.114742 -0.00381622 -0.00796386)
(0.119563 -0.00248549 -0.0110689)
(0.120004 -0.00155534 -0.0122817)
(0.116715 -0.00110624 -0.0119234)
(0.111107 -0.000952442 -0.0113098)
(0.104426 -0.000836031 -0.0116664)
(0.097579 -0.000688772 -0.0130723)
(0.0913392 -0.00061287 -0.0146631)
(0.0867162 -0.000674744 -0.0156006)
(0.0850819 -0.000810472 -0.0155311)
(0.0869329 -0.0010118 -0.0145323)
(0.0917922 -0.00149845 -0.0128392)
(0.0989964 -0.00223506 -0.0102452)
(0.107746 -0.00277266 -0.00638698)
(0.116994 -0.0052557 -0.01024)
(0.124298 -0.00453955 -0.00417248)
(0.129158 -0.00365602 0.00171429)
(0.131212 -0.00289159 0.00618273)
(0.131268 -0.00215368 0.00849248)
(0.130509 -0.00137753 0.00904656)
(0.130059 -0.000772229 0.00910567)
(0.130186 -0.00051217 0.00935358)
(0.13064 -0.000520829 0.00935852)
(0.131212 -0.000531239 0.00852131)
(0.130159 -0.000442077 0.00738092)
(0.125853 -0.000504081 0.00693154)
(0.118404 -0.000887749 0.0073868)
(0.108934 -0.00137079 0.00794292)
(0.0989798 -0.00162897 0.00774575)
(0.0901733 -0.00157284 0.00682656)
(0.0839227 -0.00134488 0.00594026)
(0.0806951 -0.00118304 0.00565153)
(0.0797322 -0.00132968 0.00596767)
(0.0798893 -0.0020697 0.00680743)
(0.0805589 -0.0036493 0.00819879)
(0.0819927 -0.00584613 0.00992568)
(0.084828 -0.00793983 0.0112002)
(0.0895715 -0.00921382 0.0109518)
(0.0966968 -0.00923325 0.00856103)
(0.106089 -0.00799456 0.0042458)
(0.116019 -0.00608875 -0.00107324)
(0.123763 -0.00421609 -0.00617227)
(0.127463 -0.00276164 -0.00975949)
(0.127024 -0.00188786 -0.011065)
(0.123877 -0.00141401 -0.010739)
(0.119482 -0.000953819 -0.0104086)
(0.114471 -0.000499495 -0.011209)
(0.108919 -0.000291389 -0.0132205)
(0.10322 -0.000558298 -0.0158354)
(0.0989187 -0.00123755 -0.0181352)
(0.0974767 -0.0020517 -0.0194228)
(0.0990445 -0.00305452 -0.0195495)
(0.103036 -0.00426952 -0.0182957)
(0.109193 -0.00520193 -0.015199)
(0.118388 -0.00769989 -0.0164386)
(0.124678 -0.00687846 -0.0101772)
(0.129894 -0.00545585 -0.00351137)
(0.132734 -0.00409337 0.00207351)
(0.133288 -0.00295369 0.00565161)
(0.132745 -0.00197074 0.00713275)
(0.132618 -0.00119343 0.0074437)
(0.133372 -0.000793695 0.00765454)
(0.134261 -0.000831089 0.00796712)
(0.134997 -0.00108466 0.00782489)
(0.135934 -0.00107964 0.00702155)
(0.135824 -0.000799362 0.00638106)
(0.132981 -0.000677815 0.00658526)
(0.126595 -0.000839767 0.00738889)
(0.117091 -0.00105566 0.00792416)
(0.10641 -0.00115728 0.00769453)
(0.0972834 -0.0011692 0.00705609)
(0.09169 -0.00122254 0.00656416)
(0.0896468 -0.00146661 0.00640283)
(0.0897422 -0.00222145 0.00672472)
(0.090578 -0.00391156 0.00783888)
(0.0915647 -0.00644344 0.0098598)
(0.0929585 -0.00899942 0.012211)
(0.095423 -0.010743 0.0136512)
(0.0999092 -0.0111988 0.0129981)
(0.106938 -0.010228 0.00994999)
(0.115485 -0.0081718 0.00499804)
(0.122775 -0.00581391 -0.000696931)
(0.126284 -0.00379274 -0.00548547)
(0.125519 -0.00244715 -0.00795172)
(0.122062 -0.00170446 -0.0080598)
(0.118933 -0.00111637 -0.00714768)
(0.117825 -0.000491707 -0.0068976)
(0.117543 1.92478e-05 -0.00846246)
(0.116112 7.63115e-06 -0.0119294)
(0.113279 -0.000837233 -0.0162428)
(0.110652 -0.00224515 -0.0199703)
(0.109741 -0.00389852 -0.0222723)
(0.110701 -0.00570913 -0.0227289)
(0.113443 -0.0072318 -0.0208589)
(0.122457 -0.00927068 -0.0196415)
(0.126554 -0.00886618 -0.0140917)
(0.131389 -0.0073327 -0.00752117)
(0.134814 -0.00553729 -0.00161999)
(0.135961 -0.00393012 0.00248199)
(0.135323 -0.00264403 0.00451666)
(0.134575 -0.00171191 0.0050861)
(0.135065 -0.00115377 0.00525794)
(0.136213 -0.00108124 0.00561273)
(0.13704 -0.00150188 0.00597573)
(0.137543 -0.00199917 0.00592336)
(0.138396 -0.00209365 0.00562941)
(0.139011 -0.00182608 0.00575228)
(0.137588 -0.00140286 0.00651212)
(0.132517 -0.00090737 0.00749078)
(0.123515 -0.000546008 0.00807517)
(0.11302 -0.000571569 0.00815544)
(0.104822 -0.000969028 0.00803424)
(0.100881 -0.00156801 0.00780974)
(0.100503 -0.00244422 0.00760191)
(0.101778 -0.00408309 0.00787604)
(0.103072 -0.00661088 0.00916839)
(0.10382 -0.00929673 0.0114339)
(0.10454 -0.0112669 0.0136493)
(0.106387 -0.0120528 0.0143406)
(0.11031 -0.0114569 0.0126079)
(0.115871 -0.00954218 0.0084824)
(0.120953 -0.00690903 0.0029454)
(0.123277 -0.00425948 -0.00221917)
(0.121527 -0.00224633 -0.0050497)
(0.116677 -0.00119378 -0.00492422)
(0.112467 -0.000799002 -0.00298099)
(0.112361 -0.000486296 -0.00117343)
(0.115873 5.68571e-05 -0.00139447)
(0.119848 0.00046776 -0.00456935)
(0.121995 -3.31088e-06 -0.00992147)
(0.122106 -0.0015175 -0.0156276)
(0.121246 -0.0036098 -0.0202042)
(0.120564 -0.00595186 -0.0227654)
(0.120617 -0.00811359 -0.0226907)
(0.128148 -0.00952761 -0.0205644)
(0.129671 -0.00998068 -0.016562)
(0.133292 -0.00893177 -0.0109173)
(0.137039 -0.007135 -0.00523251)
(0.139055 -0.00521779 -0.000818105)
(0.138822 -0.00355718 0.00172748)
(0.137438 -0.00232257 0.00272261)
(0.136741 -0.00159554 0.00306613)
(0.137503 -0.0013478 0.00346833)
(0.138766 -0.0016846 0.00404472)
(0.139771 -0.00242649 0.00455977)
(0.14072 -0.00309631 0.00488548)
(0.141976 -0.0033765 0.00528501)
(0.142699 -0.0030892 0.00598298)
(0.141577 -0.00205765 0.0069582)
(0.137094 -0.000637995 0.00793163)
(0.128797 0.000175921 0.00861767)
(0.119595 -0.000179341 0.00908116)
(0.113413 -0.0013349 0.00926033)
(0.111653 -0.0027885 0.00892695)
(0.112963 -0.00461322 0.00828113)
(0.114994 -0.00697695 0.00814558)
(0.115995 -0.00934145 0.0093344)
(0.115713 -0.0110527 0.0115221)
(0.115174 -0.0118288 0.0131987)
(0.115716 -0.0114202 0.0128876)
(0.117717 -0.00968195 0.0100603)
(0.120187 -0.00706738 0.00524361)
(0.121504 -0.00415474 2.78039e-05)
(0.120268 -0.00156374 -0.00336812)
(0.116001 -5.61809e-05 -0.00352118)
(0.111277 0.000169812 -0.00103289)
(0.110111 -0.000111309 0.00207898)
(0.113531 5.3037e-05 0.00365471)
(0.119405 0.000666936 0.00218213)
(0.124992 0.000748679 -0.00235929)
(0.128814 -0.000382748 -0.0085332)
(0.130395 -0.00240859 -0.0146983)
(0.130102 -0.00492055 -0.0194899)
(0.128819 -0.00755674 -0.0216647)
(0.134881 -0.00842789 -0.0198422)
(0.134417 -0.00995935 -0.0176658)
(0.136227 -0.00993206 -0.0134731)
(0.139253 -0.0086498 -0.00851949)
(0.14146 -0.00676545 -0.00399643)
(0.141676 -0.00482505 -0.00084558)
(0.140229 -0.00318678 0.000761876)
(0.138607 -0.00215066 0.00151627)
(0.138265 -0.00179879 0.00209264)
(0.13935 -0.00208473 0.00274024)
(0.140807 -0.0029156 0.00342312)
(0.142224 -0.0039008 0.00404424)
(0.14373 -0.00455431 0.00466608)
(0.144927 -0.00458638 0.00535903)
(0.145162 -0.00367588 0.00615157)
(0.143902 -0.00172532 0.00716564)
(0.139838 0.000293383 0.00818463)
(0.13286 0.000865085 0.00888593)
(0.125974 -0.000369368 0.00912832)
(0.122656 -0.00260696 0.00867979)
(0.123424 -0.00509871 0.00734107)
(0.125937 -0.0075669 0.00579995)
(0.127628 -0.00952334 0.00568545)
(0.127414 -0.0105355 0.00759261)
(0.125512 -0.0107428 0.0101556)
(0.123083 -0.010176 0.0114338)
(0.121505 -0.00860645 0.0103466)
(0.121177 -0.00622874 0.006825)
(0.121419 -0.0035 0.00185125)
(0.12098 -0.000824806 -0.00238611)
(0.118654 0.0010444 -0.00382215)
(0.115291 0.00139708 -0.00224472)
(0.113617 0.000730017 0.000838612)
(0.115324 0.000359272 0.00353176)
(0.119983 0.000792808 0.00425161)
(0.126066 0.00120338 0.00208874)
(0.131886 0.000559483 -0.00256132)
(0.136029 -0.0010382 -0.00854407)
(0.137607 -0.00319457 -0.0145367)
(0.136722 -0.00583533 -0.0188078)
(0.141938 -0.0065694 -0.018125)
(0.140641 -0.0090388 -0.0176347)
(0.140773 -0.0102224 -0.0149049)
(0.142012 -0.00977397 -0.010985)
(0.143223 -0.00814711 -0.00667968)
(0.143248 -0.00608424 -0.00297411)
(0.141966 -0.00413918 -0.000560124)
(0.140299 -0.00276014 0.000749142)
(0.139501 -0.00225404 0.00156437)
(0.14008 -0.00262729 0.0022505)
(0.14142 -0.00361877 0.00290084)
(0.142701 -0.00484018 0.00345101)
(0.14391 -0.00571501 0.00394358)
(0.144822 -0.00586474 0.00441428)
(0.14481 -0.00504395 0.00497804)
(0.143759 -0.00306448 0.00593078)
(0.141716 -0.000436247 0.00710719)
(0.138071 0.00129881 0.00768916)
(0.133237 0.000867404 0.00719685)
(0.129817 -0.00151651 0.00583034)
(0.130172 -0.00455076 0.00369447)
(0.133101 -0.00729141 0.00130708)
(0.135568 -0.00925248 0.000575723)
(0.136111 -0.00989833 0.0026629)
(0.134482 -0.00936631 0.00625128)
(0.130828 -0.00817071 0.00903554)
(0.126677 -0.00646351 0.00963016)
(0.12385 -0.00426833 0.00770123)
(0.122807 -0.00191315 0.00351671)
(0.122717 0.00038405 -0.00140032)
(0.122178 0.00209984 -0.00461718)
(0.120891 0.00249128 -0.00494905)
(0.120027 0.00170793 -0.00314881)
(0.120596 0.000916476 -0.000584072)
(0.123165 0.000861561 0.00141362)
(0.127845 0.00107913 0.00156917)
(0.133722 0.000679355 -0.000689023)
(0.139103 -0.000406438 -0.00502807)
(0.142507 -0.00182723 -0.0105049)
(0.143254 -0.00386691 -0.0155144)
(0.148781 -0.00481969 -0.0162221)
(0.147771 -0.00744413 -0.0170168)
(0.146486 -0.00941012 -0.0157282)
(0.145582 -0.00978487 -0.0128656)
(0.145032 -0.00867887 -0.00893174)
(0.144235 -0.00678454 -0.00484972)
(0.142807 -0.00479622 -0.00165769)
(0.141327 -0.00319311 0.000343843)
(0.140742 -0.00246696 0.00153071)
(0.14139 -0.00276711 0.00237636)
(0.142715 -0.00382019 0.00303382)
(0.143787 -0.00511309 0.00339915)
(0.144044 -0.00605293 0.00353956)
(0.14323 -0.00620411 0.00371867)
(0.141117 -0.00549316 0.00419032)
(0.13809 -0.00386475 0.00516858)
(0.135334 -0.00145239 0.00630695)
(0.133394 0.000775592 0.00644647)
(0.131735 0.00129039 0.00489902)
(0.130657 -0.000491403 0.00223853)
(0.131973 -0.00361541 -0.000623243)
(0.13588 -0.00654981 -0.00291055)
(0.139503 -0.00862688 -0.00317344)
(0.140854 -0.00930529 -0.000540255)
(0.139909 -0.0083296 0.00371242)
(0.136567 -0.00631786 0.0073093)
(0.131685 -0.00405828 0.00881832)
(0.127625 -0.00187748 0.00796557)
(0.126039 8.31384e-05 0.00477082)
(0.126469 0.00177369 -0.000120039)
(0.127472 0.00296123 -0.00469995)
(0.128155 0.00315013 -0.0071987)
(0.128655 0.00241482 -0.00737742)
(0.129285 0.00153213 -0.00588749)
(0.130493 0.000982824 -0.00371509)
(0.133117 0.000555703 -0.00220256)
(0.13738 -9.00748e-05 -0.00241093)
(0.142142 -0.000916924 -0.00468506)
(0.146046 -0.00166468 -0.00868331)
(0.14838 -0.00276709 -0.0131185)
(0.153319 -0.00332829 -0.014016)
(0.154011 -0.00532981 -0.0156763)
(0.15274 -0.00741785 -0.015704)
(0.150578 -0.00849489 -0.013982)
(0.148577 -0.00815831 -0.0106247)
(0.146722 -0.00674577 -0.00650957)
(0.144632 -0.00490022 -0.00279256)
(0.142738 -0.00321825 -5.54442e-05)
(0.141971 -0.00228473 0.00173507)
(0.142585 -0.00241429 0.00291965)
(0.143872 -0.00333644 0.00369117)
(0.144673 -0.00449972 0.00383764)
(0.144023 -0.0052875 0.00343422)
(0.141484 -0.00529051 0.00294822)
(0.137316 -0.00461828 0.00274605)
(0.132576 -0.00344823 0.00293005)
(0.129031 -0.00175077 0.00322084)
(0.127877 7.83173e-05 0.00276238)
(0.128781 0.000936804 0.000938689)
(0.130775 -0.000121069 -0.00158179)
(0.133858 -0.00292388 -0.00353156)
(0.138353 -0.00605018 -0.00417474)
(0.142494 -0.00828528 -0.00305897)
(0.144124 -0.00909739 5.48358e-05)
(0.143102 -0.00807463 0.00420037)
(0.139923 -0.00549111 0.00752385)
(0.135152 -0.00247843 0.00880224)
(0.130537 -1.93924e-05 0.00806027)
(0.128143 0.00165792 0.0055893)
(0.128213 0.00270453 0.00165787)
(0.129581 0.00315001 -0.00256101)
(0.131238 0.00280617 -0.00562794)
(0.132816 0.00192095 -0.00685429)
(0.134374 0.00111609 -0.00635445)
(0.136031 0.000533922 -0.0048372)
(0.13803 -7.63408e-05 -0.00337437)
(0.140715 -0.000738229 -0.00292245)
(0.143996 -0.00131221 -0.00410079)
(0.147453 -0.0016853 -0.0070614)
(0.150783 -0.00217354 -0.0108645)
(0.153679 -0.00225561 -0.0113166)
(0.156996 -0.00346338 -0.0135564)
(0.157818 -0.00505771 -0.0146357)
(0.156261 -0.00634987 -0.0141987)
(0.153719 -0.00669892 -0.0119131)
(0.150984 -0.00591774 -0.00826258)
(0.148013 -0.00436805 -0.00426458)
(0.145246 -0.00271081 -0.0007292)
(0.14365 -0.00161587 0.00189274)
(0.143616 -0.00150091 0.00355632)
(0.144447 -0.00223557 0.00450407)
(0.145002 -0.00324556 0.00466913)
(0.144268 -0.00389753 0.00394309)
(0.141839 -0.00378118 0.00264164)
(0.138083 -0.00305375 0.00124991)
(0.134012 -0.00211559 5.87893e-05)
(0.131007 -0.00105896 -0.000843325)
(0.130118 2.29467e-05 -0.00158141)
(0.131617 0.000571678 -0.00260315)
(0.134739 -0.000239208 -0.0038366)
(0.138414 -0.00260102 -0.00448968)
(0.142325 -0.00561928 -0.00401304)
(0.145594 -0.00780515 -0.00231341)
(0.146763 -0.00859797 0.000683612)
(0.145483 -0.00768631 0.00452758)
(0.142257 -0.00500589 0.00779386)
(0.137493 -0.0015216 0.00926925)
(0.132219 0.00135548 0.00893081)
(0.128263 0.0030039 0.00729842)
(0.126522 0.00361645 0.00467579)
(0.12651 0.00347554 0.00173876)
(0.127615 0.00265882 -0.000530539)
(0.129519 0.00145281 -0.00162879)
(0.131988 0.00050327 -0.00148961)
(0.134583 2.98268e-05 -0.000622902)
(0.136846 -0.000265446 9.62361e-05)
(0.138911 -0.000586209 -4.29375e-05)
(0.141407 -0.000935373 -0.00146969)
(0.144854 -0.0012515 -0.00435934)
(0.149167 -0.00160395 -0.00803863)
(0.151877 -0.000789663 -0.00787291)
(0.157042 -0.00160882 -0.0105163)
(0.160489 -0.00270111 -0.0123431)
(0.161016 -0.00381044 -0.0130859)
(0.159041 -0.00445122 -0.0122165)
(0.155744 -0.00423687 -0.00965612)
(0.151805 -0.00316758 -0.00603634)
(0.147982 -0.00173014 -0.0021159)
(0.145332 -0.000661795 0.00128258)
(0.144294 -0.000472471 0.00357545)
(0.144241 -0.00115726 0.00481156)
(0.144127 -0.00211295 0.00513687)
(0.143169 -0.00267169 0.00452262)
(0.141205 -0.00252603 0.00307499)
(0.138766 -0.00189058 0.00126286)
(0.136596 -0.00115058 -0.000389866)
(0.135317 -0.000487189 -0.00158346)
(0.135241 3.00854e-05 -0.00221951)
(0.136523 0.000216422 -0.00257334)
(0.138836 -0.000376798 -0.00297727)
(0.141297 -0.00206568 -0.00314892)
(0.143634 -0.00443593 -0.0025871)
(0.145741 -0.0063551 -0.00106765)
(0.146929 -0.00707478 0.00144252)
(0.146545 -0.00624471 0.00456281)
(0.144385 -0.00369013 0.00731268)
(0.140477 -0.000183568 0.00885615)
(0.135248 0.00281745 0.00915597)
(0.130163 0.0042998 0.00848419)
(0.126682 0.0043086 0.00693106)
(0.125244 0.0032551 0.00492975)
(0.12572 0.00156219 0.00328221)
(0.127733 -0.00020249 0.00233326)
(0.130599 -0.00127196 0.00213379)
(0.133484 -0.00132728 0.00247044)
(0.135747 -0.00073818 0.00274371)
(0.137396 -7.73005e-05 0.00232317)
(0.139232 0.000255938 0.000941034)
(0.1422 0.000148127 -0.00145144)
(0.146572 -0.000232105 -0.0046241)
(0.150278 0.00108048 -0.00454707)
(0.155671 0.000113024 -0.00729888)
(0.160243 -0.000831576 -0.00959885)
(0.162589 -0.00154822 -0.0112494)
(0.162169 -0.00189153 -0.0117069)
(0.159515 -0.00181794 -0.0104952)
(0.155364 -0.001268 -0.00781429)
(0.15071 -0.000391402 -0.00421523)
(0.146838 0.000377039 -0.000481993)
(0.144437 0.000564374 0.00252141)
(0.143151 7.02463e-05 0.00436273)
(0.142271 -0.000704974 0.00504362)
(0.141354 -0.00116383 0.00466231)
(0.140445 -0.00111396 0.0034322)
(0.139857 -0.000865347 0.00182727)
(0.139673 -0.000804242 0.000395975)
(0.13974 -0.000952961 -0.0004803)
(0.139863 -0.00109397 -0.000597014)
(0.140114 -0.00116284 -8.18399e-05)
(0.140622 -0.00143019 0.000614251)
(0.141256 -0.00232688 0.00136778)
(0.142238 -0.00377987 0.00232737)
(0.143803 -0.00510157 0.00350032)
(0.145261 -0.00547001 0.00483084)
(0.145444 -0.00450275 0.00630325)
(0.1437 -0.00215952 0.00757176)
(0.140156 0.00101033 0.00826054)
(0.135396 0.00380218 0.00843585)
(0.130544 0.00518341 0.00829944)
(0.126841 0.00514454 0.00775592)
(0.124953 0.0041242 0.006913)
(0.125171 0.00253485 0.00621554)
(0.127241 0.000877969 0.00585777)
(0.130227 -0.000202025 0.00569664)
(0.13312 -0.000278221 0.00561362)
(0.135389 0.000479382 0.00541865)
(0.137103 0.00155362 0.0047444)
(0.138836 0.00231178 0.00334112)
(0.141397 0.00237069 0.00117069)
(0.145274 0.00188589 -0.00158169)
(0.149402 0.00151052 -0.00218703)
(0.154082 0.000480447 -0.0049555)
(0.15834 -0.000273248 -0.00731379)
(0.161315 -0.000539675 -0.00909079)
(0.162526 -0.000240124 -0.0101611)
(0.161866 0.000433147 -0.0102165)
(0.159401 0.00108793 -0.00901478)
(0.155643 0.0014387 -0.00664815)
(0.15158 0.00145895 -0.00358826)
(0.148011 0.00113309 -0.00055164)
(0.145153 0.000499749 0.00185925)
(0.143136 -0.000223679 0.00338107)
(0.142285 -0.000674088 0.00400249)
(0.1428 -0.000719048 0.00381672)
(0.144403 -0.000603354 0.00309503)
(0.146185 -0.000671527 0.00239808)
(0.147262 -0.000895763 0.0022489)
(0.147266 -0.000970512 0.00275471)
(0.146375 -0.000782842 0.00357886)
(0.145125 -0.000570834 0.00416558)
(0.144035 -0.000750141 0.00444421)
(0.14366 -0.00152698 0.00467618)
(0.144341 -0.00249414 0.00486636)
(0.145345 -0.002766 0.00488316)
(0.145353 -0.00183177 0.00512573)
(0.143635 0.000261033 0.00576899)
(0.140388 0.00324558 0.00634104)
(0.136217 0.00614236 0.00649301)
(0.131999 0.00764864 0.00640898)
(0.128775 0.00738848 0.00609942)
(0.127143 0.00604676 0.00555438)
(0.127298 0.00440557 0.00508467)
(0.12902 0.00299174 0.004919)
(0.131636 0.00211249 0.00502019)
(0.13448 0.00195358 0.00532328)
(0.136998 0.00244574 0.00568106)
(0.138989 0.00322276 0.00564715)
(0.140621 0.00367706 0.0047816)
(0.142482 0.00339374 0.00302092)
(0.14533 0.00256574 0.000597062)
(0.147994 -6.49983e-05 -0.000332919)
(0.15221 -0.00119715 -0.00286342)
(0.155925 -0.00170306 -0.00516636)
(0.15844 -0.00155771 -0.00701792)
(0.159567 -0.000755667 -0.00820803)
(0.159551 0.000561486 -0.00859266)
(0.158601 0.00194475 -0.00819135)
(0.156824 0.00288048 -0.0070726)
(0.154477 0.00306922 -0.00532828)
(0.151943 0.0024489 -0.00320139)
(0.149459 0.00110959 -0.00104639)
(0.147204 -0.000729552 0.000840395)
(0.145698 -0.00271648 0.00226925)
(0.145522 -0.00433822 0.00312891)
(0.146756 -0.00527067 0.00343247)
(0.148652 -0.00545218 0.00337591)
(0.150091 -0.00491366 0.00335561)
(0.150331 -0.00362172 0.00348898)
(0.149171 -0.00173033 0.00345581)
(0.147026 0.000164465 0.00291165)
(0.144718 0.00139839 0.00194694)
(0.143213 0.00164339 0.0010659)
(0.142971 0.00103955 0.000537916)
(0.14344 0.000230834 0.000454462)
(0.143725 5.18283e-05 0.0010706)
(0.143494 0.0010706 0.00237965)
(0.142749 0.00344853 0.00357962)
(0.141407 0.0066063 0.00377263)
(0.13948 0.00914962 0.00306251)
(0.137598 0.00987641 0.00213567)
(0.13643 0.00893033 0.00139167)
(0.136096 0.00719476 0.00104111)
(0.136333 0.00544325 0.00126918)
(0.136751 0.00412339 0.00209371)
(0.137226 0.00340521 0.00334098)
(0.1378 0.00325069 0.00466344)
(0.138584 0.00343868 0.00548538)
(0.139709 0.0034578 0.00530316)
(0.141472 0.00277416 0.00408522)
(0.144225 0.00142805 0.00209577)
(0.147725 -0.00214567 0.00372849)
(0.150573 -0.00222162 0.000656685)
(0.152364 -0.00140816 -0.00248794)
(0.152742 -0.000119802 -0.00515737)
(0.151773 0.00124566 -0.00696155)
(0.150022 0.0024455 -0.00784182)
(0.148333 0.00326495 -0.00798637)
(0.147436 0.00352834 -0.00755975)
(0.147617 0.00319157 -0.00666282)
(0.148649 0.00230788 -0.00540667)
(0.149955 0.00101846 -0.00392613)
(0.15095 -0.000597063 -0.00225553)
(0.151468 -0.00246756 -0.000396381)
(0.151652 -0.00434961 0.00152206)
(0.151713 -0.00583024 0.00326941)
(0.15168 -0.00658662 0.00461585)
(0.151332 -0.0064457 0.00540398)
(0.15045 -0.00526677 0.00554778)
(0.148927 -0.003138 0.00496785)
(0.146943 -0.000764296 0.0036226)
(0.144873 0.000840317 0.00178198)
(0.143331 0.0011423 0.000173016)
(0.14291 0.000382993 -0.000611448)
(0.143505 -0.000638974 -0.000404194)
(0.144459 -0.00102383 0.000735112)
(0.145389 -0.000194193 0.00238706)
(0.146157 0.00185702 0.00359776)
(0.14658 0.0046887 0.00334846)
(0.146521 0.00736743 0.00151389)
(0.146194 0.00872145 -0.00109932)
(0.145855 0.00839393 -0.00350694)
(0.145405 0.00705988 -0.00490497)
(0.144654 0.00558888 -0.00478518)
(0.143609 0.00446754 -0.00309849)
(0.142437 0.00375168 -0.000230057)
(0.141404 0.00326161 0.00318915)
(0.140798 0.00272154 0.00621181)
(0.140928 0.00181502 0.00786669)
(0.142177 0.000413628 0.00778197)
(0.144615 -0.00112501 0.00623622)
(0.154402 -0.000456183 0.0076581)
(0.156269 0.000106908 0.00629022)
(0.157646 0.00152567 0.00368709)