/*--------------------------------*- C++ -*----------------------------------*\
| =========                 |                                                 |
| \\      /  F ield         | OpenFOAM: The Open Source CFD Toolbox           |
|  \\    /   O peration     | Version:  2306                                  |
|   \\  /    A nd           | Website:  www.openfoam.com                      |
|    \\/     M anipulation  |                                                 |
\*---------------------------------------------------------------------------*/
FoamFile
{
    version     2.0;
    format      ascii;
    arch        "LSB;label=32;scalar=64";
    class       surfaceScalarField;
    location    "5";
    object      phi;
}
// * * * * * * * * * * * * * * * * * * * * * * * * * * * * * * * * * * * * * //

dimensions      [0 3 -1 0 0 0 0];

oriented        oriented;

internalField   nonuniform List<scalar> 
175300
(
5.90705e-06
6.29219e-07
2.19182e-07
6.19816e-06
8.7094e-07
6.05832e-07
6.23956e-06
1.04037e-06
1.14337e-06
6.07842e-06
8.59999e-07
1.74059e-06
5.85988e-06
4.21013e-07
2.18123e-06
5.68708e-06
6.94285e-08
2.28371e-06
5.56405e-06
-5.83479e-08
2.0871e-06
5.45137e-06
-1.69924e-08
1.70784e-06
5.32519e-06
3.55146e-08
1.31512e-06
5.13683e-06
1.33311e-08
1.0926e-06
4.80218e-06
-2.7948e-08
1.09644e-06
4.32534e-06
-8.17566e-08
1.22495e-06
3.85321e-06
-1.93783e-07
1.32923e-06
3.55869e-06
-3.63751e-07
1.3514e-06
3.48269e-06
-5.50763e-07
1.3078e-06
3.57323e-06
-7.13529e-07
1.18935e-06
3.71177e-06
-7.35896e-07
9.71375e-07
3.80163e-06
-5.27167e-07
6.53654e-07
3.88747e-06
-2.51802e-07
2.93105e-07
4.05758e-06
-4.22516e-08
-3.16708e-08
4.29254e-06
1.57259e-07
-3.02509e-07
4.49672e-06
3.42098e-07
-4.87191e-07
4.6639e-06
3.43765e-07
-5.77316e-07
4.84421e-06
5.09598e-08
-6.09155e-07
5.09745e-06
-3.8072e-07
-7.29234e-07
5.40298e-06
-6.64468e-07
-1.05366e-06
5.63497e-06
-6.46297e-07
-1.45683e-06
5.66375e-06
-4.13328e-07
-1.71815e-06
5.44072e-06
-5.4578e-08
-1.88881e-06
5.00392e-06
2.98677e-07
-2.07244e-06
4.47509e-06
4.07838e-07
-2.1029e-06
4.08258e-06
1.06234e-07
-1.92247e-06
3.89452e-06
-2.14652e-07
-1.79652e-06
3.84957e-06
-2.58243e-07
-1.81561e-06
3.93509e-06
-1.52644e-07
-1.77952e-06
4.12357e-06
3.93023e-08
-1.52337e-06
4.36065e-06
3.48969e-07
-1.10449e-06
4.63696e-06
6.57984e-07
-6.95662e-07
4.99917e-06
7.42233e-07
-3.71397e-07
6.07268e-07
-5.90166e-08
1.95497e-05
1.86615e-06
9.81049e-07
2.05684e-05
2.54764e-06
2.30857e-06
2.09496e-05
2.88163e-06
3.95119e-06
2.06657e-05
2.19735e-06
5.53651e-06
1.9999e-05
9.33408e-07
6.48598e-06
1.93281e-05
1.13842e-08
6.56722e-06
1.88271e-05
-2.85941e-07
5.97708e-06
1.84361e-05
-1.56687e-07
5.00133e-06
1.80219e-05
-9.70225e-09
4.00194e-06
1.73782e-05
-2.73843e-08
3.37812e-06
1.62832e-05
-9.65554e-08
3.29094e-06
1.48009e-05
-2.74045e-07
3.57266e-06
1.33541e-05
-7.40094e-07
3.91117e-06
1.23892e-05
-1.46064e-06
4.09009e-06
1.20185e-05
-2.19277e-06
4.00086e-06
1.207e-05
-2.65598e-06
3.58311e-06
1.22571e-05
-2.51027e-06
2.83768e-06
1.24405e-05
-1.7109e-06
1.87279e-06
1.27455e-05
-7.96893e-07
8.66573e-07
1.32968e-05
-1.1367e-07
-2.00372e-08
1.40068e-05
4.83407e-07
-7.36006e-07
1.47222e-05
8.76808e-07
-1.24029e-06
1.54715e-05
6.31493e-07
-1.50635e-06
1.6353e-05
-5.99023e-07
-1.66297e-06
1.7409e-05
-2.09702e-06
-2.09538e-06
1.84788e-05
-2.9449e-06
-3.02734e-06
1.91862e-05
-2.71357e-06
-4.1008e-06
1.91851e-05
-1.70867e-06
-4.83e-06
1.83884e-05
-3.30285e-07
-5.30027e-06
1.70247e-05
8.12527e-07
-5.61717e-06
1.55214e-05
9.70641e-07
-5.51315e-06
1.43034e-05
-1.60395e-08
-5.15283e-06
1.34583e-05
-8.79713e-07
-5.11191e-06
1.29996e-05
-9.18046e-07
-5.33114e-06
1.30459e-05
-5.80505e-07
-5.16368e-06
1.3544e-05
4.63875e-08
-4.29134e-06
1.43172e-05
1.08349e-06
-3.03413e-06
1.5323e-05
2.05752e-06
-1.86533e-06
1.6617e-05
2.22299e-06
-9.13068e-07
1.75127e-06
3.34148e-08
3.59763e-05
2.75232e-06
1.44925e-06
3.81589e-05
3.97394e-06
3.82713e-06
3.93602e-05
4.49659e-06
6.68823e-06
3.92708e-05
3.21867e-06
9.34269e-06
3.81299e-05
1.1049e-06
1.08568e-05
3.66934e-05
-3.01363e-07
1.09531e-05
3.55688e-05
-6.89598e-07
1.00489e-05
3.47925e-05
-4.63095e-07
8.62465e-06
3.40788e-05
-2.20632e-07
7.13132e-06
3.30244e-05
-1.98e-07
6.04596e-06
3.12432e-05
-2.31628e-07
5.6223e-06
2.87693e-05
-4.79672e-07
5.79281e-06
2.61723e-05
-1.35758e-06
6.30346e-06
2.41523e-05
-2.8706e-06
6.80409e-06
2.30331e-05
-4.48313e-06
6.87783e-06
2.26669e-05
-5.47108e-06
6.29761e-06
2.26637e-05
-5.13931e-06
5.12067e-06
2.28388e-05
-3.55446e-06
3.5884e-06
2.33467e-05
-1.77473e-06
1.9841e-06
2.42999e-05
-4.29119e-07
5.41225e-07
2.55517e-05
6.94797e-07
-6.41354e-07
2.69248e-05
1.22995e-06
-1.46829e-06
2.8484e-05
3.31592e-07
-1.85865e-06
3.03566e-05
-2.57693e-06
-2.01998e-06
3.25332e-05
-5.87704e-06
-2.63012e-06
3.46844e-05
-7.63607e-06
-4.13547e-06
3.61524e-05
-6.96733e-06
-6.02194e-06
3.6332e-05
-4.53021e-06
-7.45311e-06
3.50802e-05
-1.35163e-06
-8.36052e-06
3.28399e-05
1.11615e-06
-8.79447e-06
3.03352e-05
1.41559e-06
-8.47988e-06
2.81082e-05
-4.34973e-07
-7.89534e-06
2.62148e-05
-1.96064e-06
-7.99728e-06
2.47911e-05
-1.97077e-06
-8.64148e-06
2.42803e-05
-1.38662e-06
-8.69791e-06
2.48054e-05
-3.24157e-07
-7.48557e-06
2.60883e-05
1.60624e-06
-5.47829e-06
2.79616e-05
3.38252e-06
-3.54394e-06
3.04118e-05
3.66951e-06
-1.94541e-06
2.59484e-06
-2.85262e-07
5.4758e-05
1.73504e-06
6.69333e-07
5.87225e-05
3.69654e-06
4.09341e-06
6.14888e-05
4.7242e-06
8.35674e-06
6.22334e-05
3.10084e-06
1.24916e-05
6.08094e-05
4.74288e-07
1.5029e-05
5.83291e-05
-1.02617e-06
1.54163e-05
5.62102e-05
-1.26681e-06
1.42913e-05
5.48754e-05
-9.10698e-07
1.25309e-05
5.38933e-05
-6.13322e-07
1.07283e-05
5.26072e-05
-5.53359e-07
9.25904e-06
5.04209e-05
-4.83881e-07
8.2765e-06
4.71976e-05
-6.2279e-07
7.87847e-06
4.34173e-05
-1.67323e-06
8.20855e-06
3.98695e-05
-3.8679e-06
9.09072e-06
3.72278e-05
-6.54885e-06
9.7219e-06
3.57191e-05
-8.49285e-06
9.38179e-06
3.50493e-05
-8.38011e-06
8.05576e-06
3.49594e-05
-6.1714e-06
6.15841e-06
3.55445e-05
-3.47253e-06
4.0793e-06
3.68503e-05
-1.29197e-06
2.10252e-06
3.86481e-05
4.51583e-07
5.29134e-07
4.0734e-05
1.08416e-06
-5.32436e-07
4.31942e-05
-1.01971e-06
-8.92697e-07
4.6204e-05
-6.41423e-06
-7.17445e-07
4.97647e-05
-1.25946e-05
-1.0868e-06
5.34402e-05
-1.59727e-05
-3.0265e-06
5.62551e-05
-1.47655e-05
-6.0735e-06
5.72268e-05
-1.00878e-05
-8.82481e-06
5.60242e-05
-4.02504e-06
-1.07259e-05
5.3227e-05
6.63528e-07
-1.16278e-05
4.98377e-05
1.55111e-06
-1.11339e-05
4.65459e-05
-1.11105e-06
-1.00346e-05
4.33283e-05
-3.34526e-06
-9.9966e-06
4.02884e-05
-3.30059e-06
-1.11735e-05
3.82663e-05
-2.53103e-06
-1.20518e-05
3.79961e-05
-1.35561e-06
-1.12752e-05
3.93859e-05
1.1753e-06
-9.0159e-06
4.20647e-05
3.73474e-06
-6.49935e-06
4.58086e-05
3.87484e-06
-4.34387e-06
2.02469e-06
-2.14858e-06
7.44132e-05
-3.46812e-06
-3.11838e-06
8.08711e-05
-7.72506e-07
1.65492e-06
8.62434e-05
1.71206e-06
7.39782e-06
8.90012e-05
5.1355e-07
1.36987e-05
8.80453e-05
-1.79699e-06
1.82356e-05
8.44772e-05
-2.53883e-06
1.97008e-05
8.09049e-05
-2.09413e-06
1.85979e-05
7.87196e-05
-1.44032e-06
1.64735e-05
7.74994e-05
-1.12535e-06
1.45166e-05
7.62427e-05
-1.10656e-06
1.30374e-05
7.40861e-05
-9.49481e-07
1.16563e-05
7.06357e-05
-7.89004e-07
1.02677e-05
6.60522e-05
-1.5319e-06
9.6614e-06
6.0843e-05
-3.83233e-06
1.05291e-05
5.58419e-05
-7.32614e-06
1.2036e-05
5.20159e-05
-1.05717e-05
1.25624e-05
4.97119e-05
-1.14948e-05
1.15496e-05
4.87598e-05
-9.36746e-06
9.59562e-06
4.90796e-05
-6.02902e-06
7.30018e-06
5.05226e-05
-2.94013e-06
4.98669e-06
5.26872e-05
-3.20572e-07
3.06938e-06
5.52685e-05
4.7562e-07
1.97827e-06
5.83217e-05
-3.19797e-06
2.11728e-06
6.21002e-05
-1.22132e-05
3.42055e-06
6.68731e-05
-2.29008e-05
4.22514e-06
7.24877e-05
-2.95005e-05
2.48614e-06
7.77147e-05
-2.82334e-05
-2.07506e-06
8.08214e-05
-2.04494e-05
-7.32067e-06
8.08815e-05
-9.92486e-06
-1.15171e-05
7.8384e-05
-1.49454e-06
-1.3917e-05
7.4547e-05
9.97989e-07
-1.37012e-05
7.03479e-05
-2.05365e-06
-1.18003e-05
6.58539e-05
-4.88882e-06
-1.10083e-05
6.09537e-05
-4.67625e-06
-1.23913e-05
5.64788e-05
-3.63026e-06
-1.43779e-05
5.3927e-05
-2.67509e-06
-1.49648e-05
5.41061e-05
-2.90621e-07
-1.35755e-05
5.68219e-05
2.42473e-06
-1.12948e-05
6.157e-05
1.94987e-06
-9.10816e-06
-1.63873e-06
-6.70899e-06
9.1735e-05
-1.38583e-05
-1.14613e-05
0.000100822
-1.20123e-05
-5.91442e-06
0.000110041
-8.10559e-06
1.42889e-06
0.000116946
-7.22846e-06
1.03335e-05
0.000118424
-7.5793e-06
1.84726e-05
0.000114544
-5.84903e-06
2.28448e-05
0.000109225
-3.56819e-06
2.27959e-05
0.000105788
-2.16125e-06
2.02803e-05
0.000104338
-1.74314e-06
1.79444e-05
0.000103408
-1.84214e-06
1.68771e-05
0.000101743
-1.74406e-06
1.59666e-05
9.8744e-05
-1.27103e-06
1.38143e-05
9.42502e-05
-1.24326e-06
1.13886e-05
8.81254e-05
-2.76785e-06
1.11136e-05
8.06451e-05
-6.20499e-06
1.32176e-05
7.3256e-05
-1.04058e-05
1.5228e-05
6.76622e-05
-1.29878e-05
1.51974e-05
6.45708e-05
-1.2136e-05
1.3535e-05
6.38569e-05
-8.99891e-06
1.12846e-05
6.49527e-05
-5.18857e-06
8.90587e-06
6.70441e-05
-1.40066e-06
6.90225e-06
6.95576e-05
-1.30187e-07
6.02039e-06
7.23898e-05
-5.62407e-06
7.18269e-06
7.57349e-05
-1.92633e-05
1.04128e-05
8.01652e-05
-3.58405e-05
1.34999e-05
8.6705e-05
-4.75008e-05
1.33441e-05
9.52649e-05
-4.88105e-05
8.42285e-06
0.000103219
-3.87685e-05
1.00214e-07
0.000107382
-2.18747e-05
-8.64503e-06
0.000107211
-7.1732e-06
-1.46366e-05
0.000104044
-1.13025e-06
-1.61085e-05
9.93993e-05
-3.53706e-06
-1.36985e-05
9.39646e-05
-6.55306e-06
-1.1497e-05
8.76748e-05
-5.93221e-06
-1.22785e-05
8.08276e-05
-4.27847e-06
-1.49369e-05
7.4935e-05
-3.31374e-06
-1.71204e-05
7.18352e-05
-1.42788e-06
-1.76576e-05
7.24205e-05
4.68428e-07
-1.71094e-05
7.65473e-05
-1.97039e-06
-1.62868e-05
-8.97038e-06
-1.47628e-05
0.000105464
-2.74012e-05
-2.29267e-05
0.000114105
-2.75077e-05
-1.85112e-05
0.000125437
-2.40611e-05
-1.12943e-05
0.000138553
-2.37314e-05
-8.39411e-07
0.000146928
-2.09858e-05
1.18987e-05
0.000145866
-1.37122e-05
2.21334e-05
0.000139484
-6.89361e-06
2.598e-05
0.000134486
-3.66519e-06
2.4063e-05
0.000132878
-2.86311e-06
2.06761e-05
0.000132728
-2.91616e-06
1.96119e-05
0.00013196
-2.93082e-06
2.03404e-05
0.000129916
-2.41115e-06
1.90344e-05
0.000126573
-1.55461e-06
1.47688e-05
0.000121267
-1.65761e-06
1.17843e-05
0.000112859
-3.88108e-06
1.31474e-05
0.0001019
-7.75397e-06
1.66859e-05
9.12692e-05
-1.13763e-05
1.84503e-05
8.38733e-05
-1.26443e-05
1.75758e-05
8.06135e-05
-1.11166e-05
1.55011e-05
8.05515e-05
-7.31795e-06
1.31263e-05
8.21761e-05
-2.2559e-06
1.10406e-05
8.44782e-05
-1.40863e-07
1.02205e-05
8.70909e-05
-7.32311e-06
1.20449e-05
8.97253e-05
-2.54324e-05
1.67086e-05
9.22751e-05
-4.76225e-05
2.20321e-05
9.62074e-05
-6.49032e-05
2.48326e-05
0.000104343
-7.08783e-05
2.2293e-05
0.000117023
-6.23535e-05
1.38114e-05
0.000129255
-4.21787e-05
1.00266e-06
0.000135866
-1.93214e-05
-1.13412e-05
0.000136062
-6.63642e-06
-1.71401e-05
0.00013197
-6.1879e-06
-1.58129e-05
0.000125975
-8.28132e-06
-1.22487e-05
0.000119166
-6.9231e-06
-1.14663e-05
0.000111382
-4.49497e-06
-1.37541e-05
0.000103183
-2.9273e-06
-1.68231e-05
9.63896e-05
-7.02962e-07
-1.91831e-05
9.28141e-05
5.4728e-07
-2.11487e-05
9.34712e-05
-4.89858e-06
-2.32432e-05
-1.73679e-05
-2.442e-05
0.000121496
-3.84546e-05
-3.40776e-05
0.000126388
-4.18892e-05
-3.22546e-05
0.000134325
-3.91309e-05
-2.63427e-05
0.000148949
-4.23631e-05
-1.64519e-05
0.000165698
-4.25681e-05
-2.23714e-06
0.00017258
-2.99379e-05
1.45053e-05
0.000167657
-1.41009e-05
2.55691e-05
0.000161051
-6.64528e-06
2.73567e-05
0.000159624
-5.60739e-06
2.3047e-05
0.000161506
-5.4442e-06
2.0181e-05
0.000162456
-4.77501e-06
2.2264e-05
0.000161379
-4.12717e-06
2.42851e-05
0.000159602
-3.18613e-06
2.05362e-05
0.000157076
-2.36756e-06
1.42965e-05
0.000151093
-2.91949e-06
1.28173e-05
0.000139358
-4.87448e-06
1.67815e-05
0.000123798
-7.18332e-06
2.07598e-05
0.000109859
-9.42412e-06
2.14132e-05
0.000101566
-1.04837e-05
1.97531e-05
9.89116e-05
-8.24247e-06
1.73636e-05
9.98126e-05
-2.69982e-06
1.50531e-05
0.000102615
3.78818e-07
1.36193e-05
0.000106342
-7.64101e-06
1.47156e-05
0.000109831
-2.84164e-05
1.90196e-05
0.000111655
-5.37613e-05
2.48905e-05
0.000111866
-7.45755e-05
3.03791e-05
0.000114405
-8.51674e-05
3.26391e-05
0.000124558
-8.18595e-05
2.81235e-05
0.00014162
-6.40363e-05
1.55987e-05
0.000157876
-3.78125e-05
-1.62968e-06
0.000165777
-1.74538e-05
-1.4186e-05
0.000164199
-1.05223e-05
-1.68753e-05
0.00015773
-9.25873e-06
-1.3624e-05
0.000150997
-7.27768e-06
-1.07538e-05
0.000144396
-4.81529e-06
-1.1179e-05
0.000136833
-2.14338e-06
-1.39347e-05
0.000129101
1.86033e-06
-1.71862e-05
0.000122735
4.25522e-06
-2.10256e-05
0.000118801
-2.89992e-06
-2.61324e-05
-2.1123e-05
-3.14849e-05
0.000145769
-4.07738e-05
-4.06648e-05
0.000145602
-5.04562e-05
-4.44911e-05
0.000148571
-4.84245e-05
-4.1305e-05
0.000158375
-5.43529e-05
-3.14453e-05
0.000176891
-6.31781e-05
-1.65581e-05
0.000192838
-5.39672e-05
2.5522e-06
0.000193646
-2.80305e-05
2.02546e-05
0.000184655
-1.03601e-05
2.81979e-05
0.000180557
-8.43703e-06
2.51435e-05
0.000185421
-1.11571e-05
1.89343e-05
0.00019086
-9.34892e-06
1.92775e-05
0.000190381
-4.98611e-06
2.45208e-05
0.000187439
-3.03508e-06
2.47047e-05
0.000187584
-4.87249e-06
1.79906e-05
0.000188583
-7.68578e-06
1.33219e-05
0.000182635
-7.82185e-06
1.61974e-05
0.000166627
-5.18955e-06
2.19644e-05
0.000146379
-3.89244e-06
2.46213e-05
0.000130448
-5.57708e-06
2.37893e-05
0.000122541
-6.04886e-06
2.16359e-05
0.000121352
-2.18415e-06
1.94453e-05
0.000124491
6.88267e-07
1.7381e-05
0.000129898
-7.64796e-06
1.67241e-05
0.000135385
-2.88758e-05
1.86684e-05
0.000138601
-5.4173e-05
2.30728e-05
0.000137781
-7.52174e-05
2.94847e-05
0.000134821
-8.74964e-05
3.6349e-05
0.000137448
-8.96196e-05
3.85455e-05
0.000151681
-7.96883e-05
2.98674e-05
0.000173254
-5.81542e-05
1.1703e-05
0.000188909
-3.30899e-05
-6.5508e-06
0.000188247
-1.41218e-05
-1.50135e-05
0.000175927
-3.30495e-06
-1.44217e-05
0.000165666
-2.21741e-06
-1.01962e-05
0.00016322
-6.16918e-06
-7.21311e-06
0.000163892
-5.7316e-06
-7.72884e-06
0.000162809
1.93244e-06
-1.09259e-05
0.00015967
8.98175e-06
-1.58045e-05
0.000155005
3.9341e-06
-2.28315e-05
-1.62909e-05
-3.20386e-05
0.000180353
-3.16139e-05
-3.91633e-05
0.000173269
-4.86078e-05
-5.13679e-05
0.000171472
-5.05088e-05
-5.50708e-05
0.000175847
-5.67154e-05
-4.74171e-05
0.000189332
-7.2971e-05
-3.13511e-05
0.000208809
-7.58473e-05
-1.11557e-05
0.000219906
-5.17513e-05
1.10264e-05
0.000214941
-2.05313e-05
2.53367e-05
0.000204406
-9.27633e-06
2.63264e-05
0.000203772
-1.50911e-05
1.81945e-05
0.000213492
-1.85087e-05
1.36503e-05
0.000219155
-9.67715e-06
1.79387e-05
0.000214004
1.48637e-06
2.18403e-05
0.000208514
2.9894e-08
1.80524e-05
0.000212891
-1.33557e-05
1.24881e-05
0.000219779
-2.18194e-05
1.41472e-05
0.000214061
-1.50547e-05
2.15039e-05
0.000194034
-3.17627e-06
2.65536e-05
0.000171047
1.78346e-06
2.68081e-05
0.000154904
1.57088e-06
2.51961e-05
0.000148426
1.88014e-06
2.42463e-05
0.000150326
6.00779e-07
2.27814e-05
0.000157471
-1.0687e-05
1.99772e-05
0.000165678
-3.18459e-05
1.72453e-05
0.000171018
-5.35507e-05
1.74036e-05
0.000170972
-7.04818e-05
2.29188e-05
0.000165532
-8.04171e-05
3.31644e-05
0.000160825
-8.44438e-05
4.23105e-05
0.000167238
-8.357e-05
4.00308e-05
0.000186534
-7.32165e-05
2.31225e-05
0.000204604
-4.97075e-05
2.2111e-06
0.000204894
-1.76299e-05
-1.20747e-05
0.000188276
7.54732e-06
-1.48169e-05
0.000171824
1.09869e-05
-1.02382e-05
0.000167437
-1.35796e-06
-3.10794e-06
0.000173692
-9.57686e-06
1.26384e-06
0.000183398
-3.05083e-06
4.6992e-07
0.000191181
8.27738e-06
-4.09144e-06
0.000194032
9.81003e-06
-1.24696e-05
-5.42959e-06
-2.46031e-05
0.000222013
-1.53124e-05
-2.8916e-05
0.000209059
-3.42306e-05
-4.96258e-05
0.000200664
-4.32653e-05
-6.35306e-05
0.000201173
-5.23021e-05
-6.30293e-05
0.000209689
-7.14255e-05
-4.82662e-05
0.000225429
-8.64916e-05
-2.63895e-05
0.000242383
-7.53811e-05
-3.05538e-06
0.000248492
-4.2575e-05
1.76928e-05
0.000240329
-1.64993e-05
2.52055e-05
0.00022922
-1.35858e-05
1.90648e-05
0.000229903
-2.17985e-05
9.82853e-06
0.00024092
-1.90806e-05
9.22934e-06
0.000245975
-2.09332e-06
1.4677e-05
0.000239171
7.18028e-06
1.58663e-05
0.000234439
-8.25026e-06
1.16516e-05
0.000243023
-3.36162e-05
1.10408e-05
0.000252404
-3.74608e-05
1.8322e-05
0.00024485
-1.71279e-05
2.60338e-05
0.000222658
3.49432e-06
2.77748e-05
0.000199325
1.2888e-05
2.64757e-05
0.000184369
1.30222e-05
2.76699e-05
0.000181269
4.1067e-06
2.92182e-05
0.000188594
-1.65017e-05
2.54005e-05
0.000200494
-4.13519e-05
1.59953e-05
0.000209738
-5.77943e-05
7.90261e-06
0.000211442
-6.53688e-05
9.4981e-06
0.000204679
-6.87221e-05
2.25332e-05
0.00019399
-7.01416e-05
3.92957e-05
0.000190408
-7.43021e-05
4.55443e-05
0.000201563
-7.62694e-05
3.24788e-05
0.000217758
-6.06655e-05
9.77666e-06
0.000220877
-2.18389e-05
-8.36783e-06
0.000206888
1.6247e-05
-1.49851e-05
0.000189334
2.54941e-05
-1.22869e-05
0.000180813
8.66181e-06
-3.19574e-06
0.000183751
-7.67805e-06
6.62292e-06
0.000194563
-6.48405e-06
1.23616e-05
0.00020924
4.112e-06
1.22589e-05
0.000223267
9.21983e-06
5.59948e-06
2.51823e-06
-8.84256e-06
0.000263585
-2.28107e-06
-1.20143e-05
0.000251814
-1.21584e-05
-4.00941e-05
0.000237351
-2.59544e-05
-6.36532e-05
0.000232971
-4.27669e-05
-7.33434e-05
0.000239216
-6.42137e-05
-6.49982e-05
0.000250395
-8.44371e-05
-4.44451e-05
0.000264455
-8.88948e-05
-1.93661e-05
0.000276634
-6.85987e-05
5.03488e-06
0.000277538
-3.55992e-05
1.99543e-05
0.000265844
-1.52977e-05
1.89804e-05
0.000254586
-1.58441e-05
8.37314e-06
0.000257485
-2.09221e-05
3.08936e-06
0.000270034
-1.28744e-05
8.45084e-06
0.000275299
9.16792e-07
1.47408e-05
0.000268927
-3.35456e-06
1.35294e-05
0.000266051
-3.1328e-05
9.68031e-06
0.000276032
-5.36434e-05
1.3353e-05
0.000284214
-4.25475e-05
2.21537e-05
0.000275332
-1.00493e-05
2.60803e-05
0.000253596
1.77347e-05
2.52422e-05
0.000232325
2.71524e-05
2.85046e-05
0.000220701
1.62317e-05
3.37361e-05
0.000221971
-1.3849e-05
2.89805e-05
0.000233969
-4.85591e-05
1.23249e-05
0.000249103
-6.7189e-05
-3.93924e-06
0.000256756
-6.61605e-05
-8.45033e-06
0.000251218
-5.82099e-05
5.06672e-06
0.000235957
-5.25824e-05
2.92947e-05
0.000222368
-5.5136e-05
4.63864e-05
0.00022233
-6.4644e-05
4.08353e-05
0.000232897
-5.98215e-05
1.8284e-05
0.000238514
-2.37497e-05
-2.88645e-06
0.000231985
1.9869e-05
-1.39759e-05
0.000220184
3.51419e-05
-1.64326e-05
0.000211366
1.93591e-05
-1.09403e-05
0.000208731
2.66438e-07
1.10235e-07
0.000212593
-2.84298e-06
1.17657e-05
0.000223304
3.23273e-06
1.95699e-05
0.000241412
4.49361e-06
2.06111e-05
1.46985e-06
1.10307e-05
0.000300911
-3.44819e-06
4.13617e-06
0.000297579
5.25381e-06
-2.75042e-05
0.000282191
-4.44959e-06
-5.78804e-05
0.000272513
-2.89467e-05
-7.5916e-05
0.000276007
-5.51554e-05
-7.58802e-05
0.000285523
-7.5848e-05
-6.10476e-05
0.000294125
-8.8668e-05
-3.78018e-05
0.000302605
-8.49079e-05
-1.19352e-05
0.000307392
-5.87791e-05
1.00265e-05
0.000301609
-2.48111e-05
1.57652e-05
0.00028895
-8.95779e-06
7.55797e-06
0.000283414
-1.34852e-05
2.56422e-08
0.000292116
-1.8553e-05
4.1478e-06
0.000304839
-1.23311e-05
1.40777e-05
0.000307393
-8.27687e-06
1.70056e-05
0.00030064
-2.47043e-05
1.126e-05
0.000299052
-5.19227e-05
8.08703e-06
0.000307256
-5.79741e-05
1.39058e-05
0.000311868
-3.22104e-05
2.07935e-05
0.000302257
5.35964e-06
2.43251e-05
0.000283138
2.97617e-05
3.03805e-05
0.000265998
3.03657e-05
3.56589e-05
0.000257355
5.45033e-06
2.59414e-05
0.00026122
-3.57819e-05
2.19454e-06
0.000278307
-7.01076e-05
-1.68768e-05
0.000296833
-7.44249e-05
-2.25794e-05
0.000299446
-5.77704e-05
-1.03056e-05
0.00028366
-4.11532e-05
1.70183e-05
0.000262388
-3.52376e-05
4.30549e-05
0.000251231
-4.26e-05
4.77271e-05
0.000253897
-4.47654e-05
2.88059e-05
0.000259438
-1.78527e-05
5.19215e-06
0.000259518
2.22809e-05
-1.13738e-05
0.00025597
3.82349e-05
-2.01721e-05
0.000251966
2.50009e-05
-2.09511e-05
0.000247878
8.07153e-06
-1.31162e-05
0.000244921
5.66892e-06
-8.1667e-07
0.000247116
8.68047e-06
1.08172e-05
0.000260688
4.25698e-07
1.96257e-05
-9.05519e-06
1.9804e-05
0.000336259
-1.41446e-05
6.76998e-06
0.000344691
8.64902e-06
-1.79391e-05
0.000334484
1.14921e-05
-4.97579e-05
0.000321148
-1.22855e-05
-7.39132e-05
0.000319362
-4.12034e-05
-8.13626e-05
0.000327441
-6.21766e-05
-7.32687e-05
0.000334033
-7.8453e-05
-5.5138e-05
0.000336032
-8.75797e-05
-2.97574e-05
0.000336591
-7.40986e-05
-4.24464e-06
0.000333352
-3.79375e-05
1.01316e-05
0.000324643
-6.39371e-06
6.81409e-06
0.00031759
-2.00559e-06
-8.66948e-07
0.000321538
-1.47029e-05
9.76497e-07
0.000334631
-2.08328e-05
1.23684e-05
0.000344331
-1.67747e-05
2.05834e-05
0.00034235
-2.10951e-05
1.66435e-05
0.000333385
-4.00413e-05
6.89298e-06
0.000327053
-5.29549e-05
5.4648e-06
0.000324512
-4.22359e-05
1.48375e-05
0.000319856
-1.3501e-05
2.68392e-05
0.000310769
1.59004e-05
3.4868e-05
0.000302115
3.21133e-05
3.23805e-05
0.000295904
2.41803e-05
1.42007e-05
0.000293607
-1.16176e-05
-1.05204e-05
0.000304432
-5.84006e-05
-2.87081e-05
0.00032821
-8.15974e-05
-2.98741e-05
0.000342936
-6.94286e-05
-1.5134e-05
0.000332418
-4.27657e-05
1.11566e-05
0.000306788
-2.40773e-05
3.93877e-05
0.000286988
-2.13379e-05
5.28156e-05
0.000282913
-2.16838e-05
4.01399e-05
0.000287816
-2.78349e-06
1.52573e-05
0.000292626
2.68798e-05
-6.21755e-06
0.000296105
3.7076e-05
-2.08682e-05
0.0002986
2.31355e-05
-2.82823e-05
0.000298053
9.44887e-06
-2.6525e-05
0.000293882
1.10257e-05
-1.82114e-05
0.000290131
1.44601e-05
-7.41747e-06
0.000294962
1.54351e-06
4.08791e-06
-1.78955e-05
1.18826e-05
0.000366115
-1.80785e-05
1.4973e-06
0.000384673
3.78891e-06
-1.52954e-05
0.000387214
1.68182e-05
-4.24127e-05
0.000376466
2.74112e-06
-6.81373e-05
0.000370177
-2.19772e-05
-8.19966e-05
0.000375977
-4.21148e-05
-8.11676e-05
0.000383799
-6.17872e-05
-6.90374e-05
0.000383373
-8.01669e-05
-4.74884e-05
0.000376898
-7.85118e-05
-2.03078e-05
0.000369552
-4.66435e-05
2.44392e-08
0.000361891
-7.01044e-06
4.6258e-06
0.000355956
9.06839e-06
-2.04792e-07
0.000357468
-3.06957e-06
4.57523e-07
0.000368523
-1.93019e-05
1.09515e-05
0.000381261
-2.19548e-05
2.32074e-05
0.000383758
-2.09082e-05
2.46182e-05
0.0003715
-2.82034e-05
1.3298e-05
0.000351188
-3.58638e-05
3.63001e-06
0.000333507
-3.25927e-05
7.64768e-06
0.000325601
-1.83422e-05
1.87752e-05
0.000327489
8.99782e-07
2.27713e-05
0.000335011
1.99452e-05
1.3572e-05
0.000340599
2.65731e-05
-5.10627e-06
0.000340995
7.09147e-06
-2.62396e-05
0.00034558
-3.66174e-05
-3.91759e-05
0.000364136
-7.63399e-05
-3.49173e-05
0.00038324
-8.08982e-05
-1.49986e-05
0.000379253
-5.28094e-05
1.1512e-05
0.000352774
-2.16027e-05
3.77678e-05
0.000327022
-7.00619e-06
5.40745e-05
0.00031819
-1.78778e-06
4.74108e-05
0.000322741
1.28687e-05
2.42254e-05
0.00032924
3.39572e-05
8.80571e-07
0.000332616
3.88139e-05
-1.53875e-05
0.000335389
2.21797e-05
-2.62513e-05
0.000339944
5.68301e-06
-3.21749e-05
0.000343924
5.98382e-06
-3.14399e-05
0.000343995
1.29448e-05
-2.30427e-05
0.000342309
5.3563e-06
-9.39406e-06
-1.45454e-05
1.68076e-06
0.000388665
-6.90852e-06
8.56951e-07
0.000410144
4.58507e-06
-1.46801e-05
0.00042839
1.67878e-05
-3.65548e-05
0.000430321
1.20737e-05
-5.9567e-05
0.000426208
-2.08475e-06
-7.76874e-05
0.000431605
-1.83398e-05
-8.46844e-05
0.000442001
-4.06757e-05
-7.96268e-05
0.000442382
-6.5996e-05
-6.39112e-05
0.000430387
-7.32453e-05
-3.95103e-05
0.000415776
-4.7956e-05
-1.50156e-05
0.000405132
-7.43924e-06
-1.44395e-06
0.000399481
1.56165e-05
2.27302e-06
0.000399601
1.0197e-05
3.96974e-06
0.000406587
-8.6181e-06
1.06363e-05
0.000416594
-1.89975e-05
2.13184e-05
0.000420364
-2.09125e-05
2.86053e-05
0.000411046
-2.29197e-05
2.35188e-05
0.000390982
-2.21777e-05
8.46649e-06
0.000370135
-1.551e-05
-2.31879e-06
0.000359855
-9.16586e-06
-1.96788e-06
0.000364163
-5.36215e-06
1.79549e-06
0.000377382
2.08442e-06
-4.21658e-07
0.000388344
1.26881e-05
-1.11718e-05
0.000391523
1.23502e-05
-2.66724e-05
0.000394285
-1.55227e-05
-3.69382e-05
0.000406924
-5.89057e-05
-3.31706e-05
0.000424015
-8.22046e-05
-1.4259e-05
0.000424363
-6.2807e-05
1.03949e-05
0.000401279
-2.33544e-05
3.48356e-05
0.000373884
3.6058e-06
5.31816e-05
0.000359889
1.50925e-05
5.22084e-05
0.000357851
2.73657e-05
3.19155e-05
0.000357309
4.19792e-05
1.10415e-05
0.000354749
4.15189e-05
3.71933e-07
0.000355212
2.07474e-05
-7.46741e-06
0.00036325
-2.20423e-06
-1.92241e-05
0.000375822
-8.35169e-06
-2.80792e-05
0.000384006
1.68428e-07
-2.29086e-05
0.000383102
4.33045e-06
-6.70249e-06
-3.30554e-06
4.40088e-06
0.000418967
1.41216e-05
1.12644e-05
0.000435125
2.12294e-05
-6.09416e-06
0.000459162
2.4121e-05
-3.00016e-05
0.000476491
1.81885e-05
-5.01143e-05
0.000484988
1.03003e-05
-6.65405e-05
0.000495609
1.93443e-06
-7.81203e-05
0.000508668
-1.75438e-05
-8.252e-05
0.000509863
-4.52354e-05
-7.63196e-05
0.000493662
-5.80477e-05
-5.80756e-05
0.000471244
-3.88583e-05
-3.33472e-05
0.000454601
-2.76757e-06
-1.28653e-05
0.000446703
2.00506e-05
-1.47021e-06
0.000445526
1.68316e-05
6.41043e-06
0.000449543
1.0951e-06
1.35219e-05
0.000453992
-1.0034e-05
2.14846e-05
0.00045268
-1.42072e-05
2.79467e-05
0.000443755
-1.72928e-05
2.6712e-05
0.000431238
-1.50209e-05
1.23619e-05
0.000420396
-5.36081e-06
-6.43733e-06
0.000415968
-1.32979e-06
-1.35717e-05
0.000420375
-9.56037e-06
-7.15352e-06
0.000429527
-1.52825e-05
-3.00223e-07
0.000434819
-4.82996e-06
-2.32379e-06
0.00043413
9.72013e-06
-1.127e-05
0.000434979
8.747e-07
-1.93245e-05
0.000445208
-3.66373e-05
-2.01831e-05
0.000461732
-7.25649e-05
-7.98536e-06
0.000469135
-6.92676e-05
1.25364e-05
0.000455923
-2.90996e-05
3.38028e-05
0.000431886
1.19855e-05
4.90391e-05
0.000411061
3.37699e-05
5.10185e-05
0.00039616
4.2176e-05
3.90685e-05
0.000385172
4.67147e-05
2.36256e-05
0.000379779
4.24975e-05
1.35735e-05
0.000382914
2.27943e-05
8.04835e-06
0.000394248
-3.79051e-06
5.42724e-08
0.000409459
-1.86569e-05
-1.08641e-05
0.000420545
-1.33496e-05
-1.41436e-05
0.000421772
-5.47328e-08
-3.01724e-06
9.18052e-06
1.10047e-05
0.000459758
3.27513e-05
2.2244e-05
0.000471791
4.02494e-05
1.184e-05
0.000492651
3.67441e-05
-9.21815e-06
0.00051473
2.16494e-05
-3.02366e-05
0.00053516
8.73519e-06
-4.89352e-05
0.00055662
4.31101e-06
-6.42836e-05
0.00057491
-3.69081e-06
-7.50982e-05
0.000577609
-2.22026e-05
-7.83411e-05
0.000560476
-3.52541e-05
-6.98557e-05
0.00053462
-2.35233e-05
-4.95429e-05
0.000513073
4.58265e-06
-2.54186e-05
0.000499776
2.3053e-05
-7.5242e-06
0.000492974
2.07199e-05
3.23825e-06
0.000491039
9.06214e-06
1.21181e-05
0.000490134
-7.8919e-08
2.22317e-05
0.000486169
-5.22499e-06
2.92419e-05
0.000479618
-8.91797e-06
2.54205e-05
0.000476119
-7.81646e-06
8.41509e-06
0.000479337
-4.37255e-07
-1.17868e-05
0.000486565
-2.95206e-07
-1.77483e-05
0.000490865
-1.5533e-05
-5.34816e-06
0.000487106
-2.82956e-05
1.10029e-05
0.000477755
-1.79612e-05
1.60119e-05
0.000472088
6.1845e-06
1.10157e-05
0.000476791
1.39613e-05
4.83912e-06
0.000490598
-1.10493e-05
1.71506e-06
0.000506796
-5.14192e-05
4.41519e-06
0.000515061
-6.48065e-05
1.57172e-05
0.000506345
-3.17195e-05
3.27023e-05
0.000484788
1.75139e-05
4.66657e-05
0.000459734
4.88024e-05
4.72665e-05
0.000436419
5.61105e-05
3.56226e-05
0.00041986
5.26633e-05
2.60921e-05
0.000415046
4.55095e-05
2.6302e-05
0.000421789
3.16465e-05
2.78115e-05
0.000435335
1.13067e-05
2.02257e-05
0.000449873
-5.47353e-06
7.13061e-06
0.000459307
-6.64958e-06
5.96531e-07
0.000461138
5.70643e-06
6.12303e-06
2.05316e-05
1.85285e-05
0.000518339
3.85213e-05
3.54957e-05
0.000523662
4.64777e-05
3.57536e-05
0.000537236
4.3333e-05
1.72882e-05
0.000555938
2.35418e-05
-9.6846e-06
0.000578904
-1.69985e-06
-2.93819e-05
0.000605832
-1.44459e-05
-4.16475e-05
0.000628503
-1.30438e-05
-5.43598e-05
0.000634958
-1.06211e-05
-6.88242e-05
0.000624051
-1.18851e-05
-7.61716e-05
0.00060694
-5.7937e-06
-6.81246e-05
0.000592469
1.00734e-05
-4.63626e-05
0.00057931
2.30139e-05
-2.20093e-05
0.00056412
2.35391e-05
-4.55942e-06
0.000548344
1.72914e-05
6.55499e-06
0.00053589
1.00617e-05
1.67326e-05
0.000528972
5.36101e-07
2.64812e-05
0.000529174
-1.11185e-05
3.08659e-05
0.000539662
-2.01451e-05
2.46266e-05
0.000559612
-2.27029e-05
1.02286e-05
0.000577724
-2.43947e-05
-5.4701e-07
0.000579538
-3.06725e-05
5.79341e-06
0.000563238
-3.38251e-05
2.87007e-05
0.000541147
-2.02127e-05
5.06259e-05
0.000528998
8.79902e-06
5.27405e-05
0.000532083
3.13278e-05
3.15069e-05
0.000545201
2.35756e-05
3.40803e-06
0.000559284
-1.41079e-05
-7.05199e-06
0.000566149
-4.52626e-05
4.30352e-06
0.000556462
-3.19899e-05
2.50211e-05
0.000531627
1.56175e-05
4.0455e-05
0.000502115
5.67642e-05
4.4058e-05
0.00047763
7.29019e-05
3.65897e-05
0.000464479
7.17962e-05
2.79582e-05
0.000463654
6.31187e-05
2.58328e-05
0.000471312
4.86727e-05
2.72127e-05
0.000483281
3.03058e-05
2.42149e-05
0.000497628
1.48397e-05
1.42761e-05
0.000511377
1.11753e-05
4.56593e-06
0.000519376
1.84889e-05
5.90289e-06
2.85517e-05
2.04236e-05
0.000570212
3.26747e-05
4.23846e-05
0.000574778
3.20546e-05
4.81236e-05
0.000588801
2.44253e-05
4.00682e-05
0.000607804
6.318e-06
1.69807e-05
0.000628317
-1.43185e-05
-1.37317e-05
0.000651856
-2.77772e-05
-3.70684e-05
0.000676669
-2.56749e-05
-4.98976e-05
0.00069216
-1.31567e-05
-5.70987e-05
0.000689407
1.11669e-06
-6.39362e-05
0.00067381
1.41581e-05
-6.72083e-05
0.00065891
2.45662e-05
-6.02575e-05
0.000650646
2.85084e-05
-4.39157e-05
0.000644379
2.44544e-05
-2.64409e-05
0.000634223
1.76547e-05
-1.29211e-05
0.000619467
1.2035e-05
-2.05272e-06
0.000604336
3.81916e-06
9.41947e-06
0.000595625
-1.00573e-05
2.27276e-05
0.00060137
-2.85181e-05
3.25669e-05
0.000622201
-4.64675e-05
3.27192e-05
0.000644159
-5.79e-05
2.49098e-05
0.000649324
-5.65044e-05
2.07957e-05
0.000634373
-4.05445e-05
3.20632e-05
0.00061177
-1.38716e-05
5.35519e-05
0.000594718
1.74539e-05
5.9888e-05
0.00058702
3.84308e-05
3.69877e-05
0.000587934
3.38784e-05
-1.63789e-06
0.000597042
2.28361e-06
-2.67271e-05
0.000607795
-3.42068e-05
-1.93907e-05
0.000608051
-3.86598e-05
6.56317e-06
0.000591852
-4.84617e-07
3.10685e-05
0.000569451
4.85914e-05
4.23227e-05
0.00055405
7.9673e-05
3.77802e-05
0.000550191
8.90382e-05
2.19375e-05
0.000553304
8.19365e-05
5.61878e-06
0.000557468
6.37042e-05
-3.08248e-06
0.00056081
4.08791e-05
-9.24646e-07
0.000565606