/*--------------------------------*- C++ -*----------------------------------*\
| =========                 |                                                 |
| \\      /  F ield         | OpenFOAM: The Open Source CFD Toolbox           |
|  \\    /   O peration     | Version:  2306                                  |
|   \\  /    A nd           | Website:  www.openfoam.com                      |
|    \\/     M anipulation  |                                                 |
\*---------------------------------------------------------------------------*/
FoamFile
{
    version     2.0;
    format      ascii;
    arch        "LSB;label=32;scalar=64";
    class       volScalarField;
    location    "5";
    object      pMean;
}
// * * * * * * * * * * * * * * * * * * * * * * * * * * * * * * * * * * * * * //

dimensions      [0 2 -2 0 0 0 0];

internalField   nonuniform List<scalar> 
60000
(
3.35043e-05
3.19986e-05
4.60901e-05
7.19263e-05
9.99792e-05
0.000118724
0.000122535
0.000114007
0.000102879
0.000101766
0.000116226
0.000142183
0.000170058
0.000189485
0.000193057
0.000177667
0.000145068
0.000104152
6.56327e-05
3.41792e-05
1.32347e-05
9.37039e-06
2.69539e-05
6.11032e-05
9.98333e-05
0.000129834
0.00014714
0.000158343
0.00016903
0.000182682
0.000202313
0.000223203
0.000233632
0.000228481
0.000210198
0.000183139
0.000149935
0.000112394
7.64694e-05
4.88555e-05
3.27841e-05
3.05643e-05
4.4291e-05
7.01667e-05
9.85121e-05
0.000117525
0.000121373
0.000112647
0.000101256
9.99812e-05
0.000114565
0.000140826
0.000169038
0.000188818
0.00019278
0.000177809
0.000145518
0.00010471
6.61543e-05
3.45924e-05
1.3418e-05
9.25142e-06
2.64565e-05
6.01893e-05
9.85537e-05
0.000128229
0.000145339
0.000156595
0.000167557
0.000181576
0.000201641
0.000223191
0.000234377
0.000229829
0.000211942
0.000185156
0.000151999
0.000114137
7.75006e-05
4.90056e-05
3.02034e-05
2.73955e-05
4.10063e-05
6.73033e-05
9.64363e-05
0.00011625
0.000120526
0.000111624
9.9606e-05
9.77933e-05
0.000112349
0.000138975
0.000167688
0.000188062
0.000192692
0.00017832
0.000146314
0.000105363
6.64542e-05
3.45297e-05
1.29934e-05
8.48852e-06
2.53939e-05
5.89679e-05
9.71932e-05
0.000126505
0.000142995
0.000153911
0.000164975
0.000179298
0.000199935
0.00022248
0.000234761
0.000230937
0.000213352
0.000186539
0.000153053
0.000114481
7.6833e-05
4.73189e-05
2.5655e-05
2.23041e-05
3.60225e-05
6.31233e-05
9.35504e-05
0.000114713
0.000119875
0.000110973
9.81173e-05
9.53378e-05
0.000109605
0.000136658
0.000166093
0.000187313
0.00019289
0.000179338
0.000147624
0.000106243
6.6591e-05
3.40489e-05
1.20389e-05
7.23428e-06
2.40126e-05
5.77397e-05
9.60841e-05
0.000124987
0.000140393
0.000150363
0.000161202
0.000175785
0.0001971
0.000220985
0.00023471
0.000231754
0.000214396
0.000187236
0.000152947
0.000113277
7.43605e-05
4.37359e-05
1.9894e-05
1.56446e-05
2.93607e-05
5.74363e-05
8.94429e-05
0.00011238
0.000119079
0.000110832
9.74604e-05
9.3414e-05
0.000106858
0.000134099
0.000164308
0.000186487
0.000193191
0.000180758
0.000149499
0.000107566
6.68321e-05
3.33498e-05
1.06984e-05
5.45706e-06
2.19924e-05
5.5849e-05
9.44888e-05
0.000123145
0.00013741
0.000146235
0.000156723
0.000171651
0.000193738
0.000219054
0.000234454
0.000232613
0.000215678
0.000188311
0.000152947
0.000111741
7.12799e-05
3.9281e-05
1.33137e-05
7.16248e-06
2.05708e-05
4.96548e-05
8.343e-05
0.000108521
0.000117393
0.000110866
9.79327e-05
9.29513e-05
0.000105172
0.00013207
0.000162843
0.000185846
0.000193581
0.000182447
0.000151998
0.00010954
6.72769e-05
3.21987e-05
8.2591e-06
2.0607e-06
1.74981e-05
5.0408e-05
8.89024e-05
0.000117649
0.000131239
0.000139874
0.000151372
0.000167802
0.000191094
0.000217796
0.000234799
0.000234275
0.000218122
0.000191241
0.000155308
0.000111834
6.8677e-05
3.45816e-05
7.64338e-06
-1.77649e-06
9.00516e-06
3.77563e-05
7.35928e-05
0.000101747
0.000113881
0.000109895
9.86119e-05
9.39449e-05
0.000105372
0.000131756
0.000162698
0.000186194
0.000194508
0.000184432
0.000155004
0.000112213
6.80364e-05
3.0344e-05
4.0102e-06
-3.86649e-06
1.02343e-05
4.15409e-05
7.87021e-05
0.000106808
0.000119561
0.000127981
0.00014186
0.000162555
0.000189683
0.000218753
0.000237141
0.00023742
0.000222126
0.000196654
0.000161805
0.000117157
7.02455e-05
3.21538e-05
4.05314e-06
-1.01002e-05
-3.5626e-06
2.3082e-05
5.93288e-05
9.07388e-05
0.000107292
0.000107018
9.77303e-05
9.35036e-05
0.000105557
0.000132945
0.000165008
0.000188881
0.000197051
0.000187213
0.000158443
0.00011543
6.92181e-05
2.81893e-05
-1.21875e-06
-1.0066e-05
4.88068e-06
3.64936e-05
7.23074e-05
9.79193e-05
0.000107546
0.00011308
0.000127535
0.000152157
0.000184561
0.000218937
0.000240514
0.000241951
0.000226991
0.000202518
0.000170111
0.000126259
7.65483e-05
3.3337e-05
2.99167e-06
-1.72381e-05
-1.68541e-05
6.1651e-06
4.1771e-05
7.59809e-05
9.77388e-05
0.000102209
9.5562e-05
9.11717e-05
0.000101933
0.000130495
0.000165728
0.000192356
0.000201714
0.00019167
0.00016267
0.000119078
7.09806e-05
2.72714e-05
-3.73064e-06
-1.07266e-05
9.05722e-06
4.45591e-05
7.96662e-05
0.000100159
0.000102393
0.000100601
0.000111533
0.000137457
0.000174193
0.00021359
0.000238771
0.000241348
0.000226469
0.000203707
0.000175787
0.000136318
8.63218e-05
3.82421e-05
6.9012e-06
-2.07103e-05
-2.89066e-05
-1.18644e-05
2.17425e-05
5.82185e-05
8.53003e-05
9.56595e-05
9.21163e-05
8.75208e-05
9.55862e-05
0.00012243
0.00015901
0.000188668
0.000201169
0.000194304
0.000167204
0.000123099
7.31505e-05
2.76966e-05
-2.65894e-06
-4.34748e-06
2.48199e-05
6.85435e-05
0.000105121
0.000119582
0.000110618
9.58002e-05
9.71058e-05
0.000119708
0.000158426
0.000203348
0.000232572
0.000236828
0.000222409
0.000200476
0.000177505
0.000145826
9.98825e-05
4.87728e-05
1.94072e-05
-1.60554e-05
-3.39328e-05
-2.62529e-05
2.55996e-06
3.89414e-05
7.16144e-05
8.86494e-05
8.94488e-05
8.45683e-05
8.86731e-05
0.00011061
0.000144517
0.000174462
0.000189397
0.000186926
0.000166078
0.000126336
7.59458e-05
2.91155e-05
4.97226e-07
5.21807e-06
4.66181e-05
0.000102513
0.000144108
0.000155091
0.000135688
0.000104757
8.95191e-05
0.000101664
0.000137809
0.000185915
0.00022053
0.000229752
0.000219705
0.000200924
0.000182162
0.000159099
0.000119361
6.7363e-05
4.06929e-05
-1.85701e-06
-2.83373e-05
-3.11712e-05
-1.0679e-05
2.17914e-05
5.62978e-05
8.08682e-05
8.80992e-05
8.47197e-05
8.59189e-05
0.000102325
0.000130189
0.000154956
0.000167532
0.00016636
0.000151344
0.000120505
7.71934e-05
3.37076e-05
8.23496e-06
1.78709e-05
6.88015e-05
0.000136094
0.000184488
0.000196378
0.000173068
0.000130662
9.65964e-05
9.17465e-05
0.00011879
0.000165703
0.00020611
0.000223162
0.000220912
0.000208468
0.000194532
0.000178865
0.000146889
9.50297e-05
6.63302e-05
1.92497e-05
-1.26194e-05
-2.42053e-05
-1.42515e-05
1.00856e-05
4.21259e-05
7.19501e-05
8.56342e-05
8.50319e-05
8.52286e-05
9.8058e-05
0.000121109
0.000139716
0.000145095
0.000140095
0.000127109
0.00010349
7.13465e-05
4.07859e-05
2.40533e-05
3.70292e-05
8.83567e-05
0.000159989
0.000212871
0.000228498
0.000208793
0.000165825
0.000120438
9.76766e-05
0.000110543
0.000150619
0.00019281
0.000217777
0.000224782
0.000219471
0.000209801
0.000199089
0.000174802
0.000125628
9.21518e-05
4.5323e-05
1.32418e-05
-3.67489e-06
-4.48088e-06
8.69558e-06
3.40378e-05
6.41815e-05
8.26883e-05
8.44561e-05
8.4399e-05
9.53622e-05
0.000115927
0.000131731
0.000132695
0.000123961
0.000110014
8.861e-05
6.40193e-05
4.53525e-05
3.6729e-05
5.01222e-05
9.58487e-05
0.000163957
0.000220738
0.000242647
0.000230332
0.000193786
0.000146628
0.000113427
0.000113929
0.00014395
0.000183327
0.000213318
0.000227035
0.000227631
0.000220394
0.000210435
0.000191868
0.000148723
0.000117273
7.80315e-05
4.9933e-05
2.93504e-05
1.86091e-05
1.94777e-05
3.47728e-05
6.05376e-05
8.01856e-05
8.40234e-05
8.32952e-05
9.28119e-05
0.000112341
0.000129535
0.000133358
0.000125803
0.000111675
9.02856e-05
6.56663e-05
4.95331e-05
4.38079e-05
5.43595e-05
9.12309e-05
0.000153285
0.000212753
0.000241478
0.000236851
0.000207789
0.000163035
0.000125685
0.000117582
0.000138238
0.000173062
0.000205372
0.000224254
0.000229053
0.000223118
0.000211876
0.000195777
0.000163743
0.000139495
0.00010917
8.63868e-05
6.64822e-05
4.88544e-05
3.87976e-05
4.24347e-05
5.99351e-05
7.71568e-05
8.17485e-05
8.13195e-05
8.9914e-05
0.000108666
0.000127451
0.000135567
0.000131746
0.000119199
9.84469e-05
7.25186e-05
5.51279e-05
5.2321e-05
6.30174e-05
9.22025e-05
0.000144027
0.000199901
0.000230372
0.000231845
0.000211344
0.000172089
0.000133471
0.000118157
0.000129495
0.000157738
0.0001896
0.000213269
0.000223924
0.00022178
0.000210984
0.000196244
0.000173376
0.000154124
0.000130006
0.000110777
9.38468e-05
7.68596e-05
6.25542e-05
5.68381e-05
6.28968e-05
7.33925e-05
7.659e-05
7.63997e-05
8.49711e-05
0.000103408
0.000124439
0.000135759
0.000134488
0.000123088
0.000103959
8.02043e-05
6.45774e-05
6.72685e-05
8.14741e-05
0.00010461
0.000143505
0.000187777
0.000214933
0.000218417
0.000205055
0.000175013
0.00014162
0.00012301
0.00012623
0.000146631
0.000174555
0.00019955
0.000213827
0.000215071
0.000207473
0.00019664
0.000179923
0.000152278
0.000135001
0.000123057
0.000113046
0.000101865
8.83989e-05
7.49616e-05
6.79791e-05
6.69439e-05
6.60932e-05
6.73445e-05
7.78634e-05
9.92815e-05
0.000123523
0.000137234
0.00013792
0.000128516
0.00011087
8.84042e-05
7.32841e-05
7.64693e-05
9.14651e-05
0.000111527
0.000141833
0.000177212
0.000200967
0.000204751
0.000192615
0.000168083
0.000141344
0.000125203
0.000126985
0.000145768
0.000173399
0.000199001
0.000213031
0.000211504
0.000199742
0.000187345
0.000171646
0.000138577
0.000126009
0.000120427
0.000117367
0.000112707
0.000105339
9.42397e-05
7.98064e-05
6.437e-05
5.23304e-05
4.91262e-05
5.89809e-05
8.19635e-05
0.000109732
0.000129708
0.000137304
0.000135433
0.000126048
0.000110291
9.60245e-05
9.38871e-05
0.000103671
0.000117361
0.000138881
0.000168761
0.000192828
0.000196515
0.000185866
0.000164617
0.00013952
0.000122134
0.000122416
0.000142034
0.000170842
0.000195883
0.000208965
0.000206747
0.000191849
0.000173404
0.000155669
0.000120026
0.000109296
0.000104474
0.000103794
0.000103678
0.00010138
9.49547e-05
8.38789e-05
6.96781e-05
5.51259e-05
4.49316e-05
4.52698e-05
5.8013e-05
7.81772e-05
9.70502e-05
0.000109603
0.000116863
0.000121062
0.00011955
0.000112647
0.00010884
0.000111729
0.000117837
0.000130665
0.000153374
0.000175449
0.000182438
0.000172407
0.000153625
0.000130135
0.000111769
0.000108949
0.000126053
0.000153925
0.000179078
0.000192791
0.000192362
0.000177815
0.00015611
0.000135542
0.000110846
9.66107e-05
8.88339e-05
8.70997e-05
8.99252e-05
9.37561e-05
9.38523e-05
8.63809e-05
7.20838e-05
5.54119e-05
4.26008e-05
3.86156e-05
4.37038e-05
5.47942e-05
6.88358e-05
8.21881e-05
9.37418e-05
0.000104039
0.000111466
0.0001123
0.000109625
0.000110807
0.000115732
0.000126114
0.00014545
0.000167413
0.000175111
0.00016132
0.000134965
0.000104342
8.12829e-05
7.62457e-05
9.40096e-05
0.000127478
0.000160884
0.000182025
0.000186583
0.000176616
0.000155881
0.000131964
0.000132271
0.000118641
0.000107149
9.78212e-05
9.17505e-05
8.96721e-05
8.86639e-05
8.48987e-05
7.50963e-05
6.14446e-05
4.95013e-05
4.35417e-05
4.42183e-05
4.97437e-05
5.81792e-05
6.92003e-05
7.99563e-05
9.03085e-05
0.000101212
0.000109285
0.000113811
0.000117333
0.000122632
0.00013164
0.000147385
0.000166678
0.000176129
0.000164265
0.000136872
0.000100443
6.86419e-05
5.63749e-05
7.02414e-05
0.000103891
0.000142812
0.000171941
0.000185789
0.000183664
0.000169988
0.000150865
0.000138354
0.000124167
0.000113117
0.000103633
9.48739e-05
8.76768e-05
8.30307e-05
7.84647e-05
7.23945e-05
6.49004e-05
5.92555e-05
5.74058e-05
5.88485e-05
6.27415e-05
6.96257e-05
7.95505e-05
8.98628e-05
9.88423e-05
0.000106568
0.000113928
0.000120549
0.000125482
0.000130314
0.000136447
0.000146329
0.000159686
0.000167272
0.000159145
0.000137388
0.000110169
8.63388e-05
7.52642e-05
8.24348e-05
0.00010521
0.000133526
0.000156778
0.000169899
0.000172557
0.000166278
0.000153556
0.000134624
0.000115013
9.75117e-05
8.32762e-05
7.29845e-05
6.85392e-05
7.02935e-05
7.43185e-05
7.77608e-05
7.86972e-05
7.83074e-05
7.72993e-05
7.52933e-05
7.3568e-05
7.54842e-05
8.18434e-05
9.31836e-05
0.000106039
0.000117988
0.000127397
0.000132422
0.000133361
0.000132773
0.000132645
0.000134024
0.000138811
0.000143902
0.000141921
0.00012987
0.000111443
9.34026e-05
8.2212e-05
8.3645e-05
9.77659e-05
0.000118331
0.000137602
0.0001524
0.000159947
0.000159444
0.00015037
0.000127844
0.000106819
8.56222e-05
6.84623e-05
5.77516e-05
5.4465e-05
5.71123e-05
6.38128e-05
7.10149e-05
7.57743e-05
7.89927e-05
8.15061e-05
8.30418e-05
8.40493e-05
8.67294e-05
9.41235e-05
0.000106349
0.000121048
0.000135061
0.000146562
0.000151863
0.000148234
0.000138109
0.000125096
0.000114252
0.000110881
0.000114324
0.000118478
0.000116539
0.000109108
0.000100286
9.14511e-05
8.85349e-05
9.53171e-05
0.000109747
0.000127148
0.000142644
0.000152462
0.000153244
0.00014435
4.58653e-05
1.79452e-08
-2.20163e-05
-1.44275e-05
1.40556e-05
4.74734e-05
7.14313e-05
7.98971e-05
7.74596e-05
7.63952e-05
8.66868e-05
0.000108214
0.000131613
0.000147051
0.000150367
0.000141153
0.000121192
9.56912e-05
7.01983e-05
4.75089e-05
3.18194e-05
3.13656e-05
5.40421e-05
9.93e-05
0.000156949
0.000210302
0.000243433
0.000255198
0.000258402
0.000262188
0.000268561
0.000279542
0.000291133
0.000293011
0.000281042
0.000259218
0.000231253
0.000196408
0.000152759
0.000101051
4.75874e-05
8.1585e-07
-2.23152e-05
-1.55645e-05
1.2501e-05
4.58557e-05
6.99371e-05
7.84901e-05
7.60437e-05
7.49755e-05
8.53475e-05
0.000107023
0.000130648
0.000146321
0.000149846
0.000140847
0.000121099
9.57399e-05
7.02684e-05
4.73996e-05
3.12265e-05
3.00162e-05
5.1786e-05
9.61886e-05
0.000153298
0.000206666
0.000240286
0.000252631
0.00025623
0.000260282
0.000266861
0.000278072
0.000290122
0.000292722
0.000281543
0.000260404
0.000233044
0.000198645
0.000155184
0.000103287
4.81876e-05
5.51531e-08
-2.44056e-05
-1.83649e-05
9.75268e-06
4.36579e-05
6.82804e-05
7.70383e-05
7.44114e-05
7.30786e-05
8.33808e-05
0.000105232
0.000129172
0.000145173
0.000149028
0.000140375
0.000120936
9.5771e-05
7.03319e-05
4.72516e-05
3.05244e-05
2.85533e-05
4.95448e-05
9.33384e-05
0.00015016
0.000203728
0.000237859
0.000250596
0.00025425
0.00025828
0.000264823
0.000276144
0.000288791
0.000292337
0.000282161
0.000261919
0.000235204
0.000201062
0.000157429
0.00010493
4.69982e-05
-3.02082e-06
-2.90105e-05
-2.34756e-05
5.24782e-06
4.04272e-05
6.62401e-05
7.55513e-05
7.27047e-05
7.08281e-05
8.08235e-05
0.000102789
0.000127107
0.000143535
0.000147847
0.000139679
0.000120629
9.57088e-05
7.0354e-05
4.71607e-05
3.00379e-05
2.75633e-05
4.82075e-05
9.19302e-05
0.000148827
0.000202607
0.000236954
0.00024958
0.000252749
0.000256392
0.000262592
0.000273762
0.000286986
0.000291598
0.000282528
0.000263412
0.000237467
0.000203361
0.00015911
0.000105372
4.41691e-05
-8.40818e-06
-3.63584e-05
-3.13563e-05
-1.62889e-06
3.5591e-05
6.35431e-05
7.42818e-05
7.16442e-05
6.89961e-05
7.82303e-05
0.000100037
0.000124636
0.000141436
0.000146188
0.000138583
0.000120026
9.53785e-05
7.01773e-05
4.69948e-05
2.96205e-05
2.68502e-05
4.74756e-05
9.15601e-05
0.000148771
0.000202764
0.000237129
0.000249264
0.000251705
0.000254884
0.000260609
0.000271211
0.000284562
0.000289969
0.000281882
0.000264059
0.000239348
0.000205489
0.000160441
0.000104905
4.07644e-05
-1.52026e-05
-4.60791e-05
-4.24112e-05
-1.18563e-05
2.79441e-05
5.91651e-05
7.27621e-05
7.15526e-05
6.86578e-05
7.68487e-05
9.80111e-05
0.000122622
0.000139535
0.000144411
0.000137202
0.000119181
9.4887e-05
6.98368e-05
4.65412e-05
2.86273e-05
2.50372e-05
4.50355e-05
8.86899e-05
0.000145673
0.000199903
0.000234894
0.000247292
0.000249905
0.000253618
0.000259528
0.000269377
0.000282033
0.00028725
0.00027956
0.000263076
0.000240287
0.000207647
0.000162277
0.000104742
4.06303e-05
-2.02578e-05
-5.55894e-05
-5.52753e-05
-2.56563e-05
1.63346e-05
5.14695e-05
6.91608e-05
7.08872e-05
6.91409e-05
7.70199e-05
9.7557e-05
0.000122075
0.000138986
0.00014356
0.00013619
0.000118427
9.44179e-05
6.9335e-05
4.52098e-05
2.53027e-05
1.90571e-05
3.6553e-05
7.80761e-05
0.000133638
0.000187818
0.000224128
0.000238146
0.00024278
0.000249706
0.000258379
0.000268535
0.000280123
0.000283853
0.000275039
0.000259643
0.00023994
0.00021033
0.000166681
0.000108329
4.88331e-05
-1.81008e-05
-6.01881e-05
-6.5837e-05
-4.03235e-05
1.90738e-06
4.05909e-05
6.2923e-05
6.82382e-05
6.76586e-05
7.54094e-05
9.60656e-05
0.000121298
0.000139314
0.000144208
0.000136386
0.000118265
9.40567e-05
6.8485e-05
4.24327e-05
1.83694e-05
6.92024e-06
1.99225e-05
5.82042e-05
0.000111984
0.000166169
0.000204029
0.000219842
0.000226812
0.000238478
0.000252883
0.000265974
0.000277471
0.000279753
0.000268984
0.000253786
0.000238208
0.000214168
0.000175267
0.000119055
6.66057e-05
-6.33683e-06
-5.70432e-05
-7.14522e-05
-5.28384e-05
-1.35579e-05
2.77817e-05
5.50066e-05
6.43661e-05
6.517e-05
7.19727e-05
9.16616e-05
0.000117089
0.000136476
0.000143375
0.000136989
0.000118981
9.39073e-05
6.71367e-05
3.86355e-05
9.69901e-06
-7.55968e-06
1.33618e-06
3.73355e-05
8.92882e-05
0.000142166
0.00017969
0.000196024
0.000204307
0.000220311
0.000241087
0.000258551
0.000271342
0.000272893
0.000260815
0.000246795
0.000237357
0.000221068
0.000188758
0.000137105
9.08744e-05
1.29958e-05
-4.72447e-05
-7.24564e-05
-6.26396e-05
-2.85641e-05
1.37769e-05
4.56524e-05
5.92442e-05
6.1825e-05
6.77209e-05
8.557e-05
0.000109887
0.000129266
0.000137601
0.000133968
0.00011861
9.37936e-05
6.55798e-05
3.5693e-05
4.10448e-06
-1.67914e-05
-9.70596e-06
2.64804e-05
7.75553e-05
0.000126672
0.000159296
0.00017145
0.00017843
0.000197027
0.00022434
0.000247946
0.000264438
0.000267339
0.00025488
0.000241415
0.000238156
0.000232273
0.000207434
0.000160063
0.000117448
3.6475e-05
-3.22437e-05
-6.8904e-05
-6.93536e-05
-4.13483e-05
3.27846e-07
3.67297e-05
5.48589e-05
5.92444e-05
6.38895e-05
7.9116e-05
0.000100874
0.000118266
0.000126143
0.000124554
0.000112875
9.04596e-05
6.24546e-05
3.30178e-05
2.62245e-06
-1.78016e-05
-9.07472e-06
3.04754e-05
8.22776e-05
0.00012596
0.000150235
0.000153758
0.000154536
0.00017174
0.000203102
0.000234176
0.000257619
0.000266851
0.000258851
0.000246943
0.000247239
0.000249458
0.000231112
0.00018616
0.000144376
6.24299e-05
-1.14381e-05
-5.86344e-05
-7.05239e-05
-5.05994e-05
-1.13924e-05
2.79501e-05
5.05986e-05
5.68063e-05
5.99748e-05
7.26559e-05
9.16996e-05
0.000106108
0.0001114
0.000109816
0.000101177
8.21924e-05
5.58972e-05
2.87118e-05
2.79773e-06
-1.2795e-05
7.52576e-08
4.42093e-05
9.85788e-05
0.00013705
0.000153258
0.000148654
0.000140428
0.000150689
0.000180336
0.000215778
0.000246075
0.000263204
0.000263958
0.000257998
0.000262091
0.000269935
0.000256937
0.000213126
0.000168671
8.90294e-05
1.43615e-05
-3.97741e-05
-6.25512e-05
-5.30847e-05
-2.07584e-05
1.74175e-05
4.38823e-05
5.26657e-05
5.61262e-05
6.78098e-05
8.55829e-05
9.81668e-05
0.000100036
9.56094e-05
8.75703e-05
7.16236e-05
4.79414e-05
2.36446e-05
4.10681e-06
-5.89908e-06
9.03875e-06
5.49176e-05
0.000111395
0.000147682
0.000159856
0.000153035
0.000139247
0.000139945
0.000161802
0.000195684
0.000229105
0.000253108
0.000263649
0.000265911
0.000273341
0.00028398
0.000275127
0.000234116
0.000185279
0.000114619
4.47753e-05
-1.18058e-05
-4.36597e-05
-4.61299e-05
-2.3659e-05
1.01061e-05
3.6837e-05
4.90645e-05
5.4267e-05
6.66751e-05
8.47459e-05
9.74636e-05
9.80897e-05
9.114e-05
8.18135e-05
6.75669e-05
4.77763e-05
2.85583e-05
1.44017e-05
7.09698e-06
1.94594e-05
6.24369e-05
0.000116986
0.000153634
0.000165707
0.000160923
0.000146281
0.000139476
0.000150941
0.00017717
0.000208012
0.000234928
0.000252997
0.000262967
0.000273432
0.000283887
0.000277589
0.000242177
0.000194436
0.00013829
7.80265e-05
2.27305e-05
-1.59194e-05
-3.0122e-05
-1.92331e-05
7.35321e-06
3.31336e-05
4.76082e-05
5.56311e-05
6.91884e-05
8.77738e-05
0.000102848
0.000107694
0.000102006
9.02192e-05
7.34991e-05
5.30415e-05
3.57589e-05
2.48036e-05
2.02778e-05
3.18482e-05
6.97952e-05
0.000121806
0.000160477
0.000174983
0.000171278
0.000155746
0.000142417
0.000144922
0.000162814
0.000188712
0.00021505
0.000236597
0.000250553
0.000260638
0.000269426
0.000265612
0.000239087
0.000200072
0.00015873
0.000111278
6.20653e-05
1.97168e-05
-4.98861e-06
-7.1662e-06
8.2741e-06
2.98372e-05
4.64504e-05
5.70078e-05
7.19132e-05
9.22002e-05
0.000109725
0.000117959
0.000114384
0.000100008
7.71367e-05
5.26897e-05
3.51472e-05
2.8879e-05
3.06259e-05
4.49261e-05
8.01443e-05
0.000129217
0.000168497
0.00018435
0.000180654
0.000164545
0.000146263
0.000140212
0.000151478
0.000173901
0.000200775
0.000225102
0.000242514
0.000251852
0.000256067
0.000252208
0.000232711
0.00020181
0.000172427
0.000137245
9.81862e-05
6.08445e-05
3.33643e-05
2.08511e-05
1.98466e-05
2.72628e-05
3.83091e-05
5.10135e-05
6.87436e-05
9.31646e-05
0.000115277
0.000126708
0.000124905
0.00011035
8.73106e-05
6.2145e-05
4.43302e-05
4.07952e-05
4.76292e-05
6.39834e-05
9.55926e-05
0.000138518
0.000174142
0.000187955
0.00018369
0.00016753
0.000149014
0.000139387
0.000146165
0.000166116
0.000192352
0.000218262
0.000236617
0.000244573
0.000246338
0.000242447
0.000226593
0.000193792
0.000175203
0.000152513
0.000126085
9.86219e-05
7.55208e-05
5.80984e-05
4.4829e-05
3.48649e-05
3.32243e-05
4.29741e-05
6.28785e-05
9.14593e-05
0.000118374
0.0001344
0.000133573
0.000119117
9.74037e-05
7.40187e-05
5.66392e-05
5.37343e-05
6.36018e-05
8.03168e-05
0.000107505
0.000145273
0.000178449
0.000191451
0.00018529
0.000167867
0.000148714
0.000137566
0.00014253
0.000162242
0.000187981
0.000212618
0.000229575
0.000234693
0.000231587
0.0002242
0.000211433
0.0001731
0.00016227
0.00015352
0.000141684
0.000125938
0.000109894
9.45672e-05
7.53575e-05
5.18578e-05
3.46291e-05
3.24113e-05
4.71077e-05
7.52208e-05
0.000106737
0.000128747
0.000134595
0.000127009
0.000112196
9.28864e-05
7.4407e-05
6.79238e-05
7.56832e-05
9.06701e-05
0.000113324
0.000145612
0.000176339
0.000190711
0.000185801
0.000168576
0.000148499
0.000135051
0.000136901
0.000154438
0.000179379
0.000202249
0.000216327
0.000217971
0.000209731
0.000197782
0.000185679
0.000149824
0.000142923
0.000138458
0.000134834
0.000127702
0.000117057
0.00010301
8.47479e-05
6.38119e-05
4.40319e-05
3.20679e-05
3.33618e-05
4.89704e-05
7.32592e-05
9.67226e-05
0.000111274
0.000115897
0.000114842
0.000108509
9.63909e-05
8.42181e-05
8.1432e-05
8.9623e-05
0.0001058
0.000131401
0.000159729
0.000177039
0.000176766
0.000162983
0.000144554
0.000130929
0.000131102
0.000146681
0.000169649
0.000189483
0.000200195
0.000199061
0.000188153
0.000172735
0.000159571
0.000135776
0.000127492
0.000122711
0.000120943
0.000119397
0.000115483
0.000106947
9.18114e-05
7.06666e-05
4.72813e-05
2.86808e-05
2.12764e-05
2.49575e-05
3.7566e-05
5.5258e-05
7.27458e-05
8.6684e-05
9.6975e-05
0.000103293
0.000102343
9.48305e-05
9.01197e-05
9.53016e-05
0.000109117
0.000130082
0.00015368
0.000166891
0.000163449
0.000147346
0.000127068
0.000113453
0.000113746
0.000130692
0.000155391
0.000178552
0.000191973
0.000193011
0.000183251
0.0001662
0.000148724
0.000146839
0.000140738
0.000133989
0.000127221
0.000120636
0.000113351
0.000105484
9.4391e-05
7.87935e-05
6.01405e-05
4.27058e-05
3.1058e-05
2.67989e-05
2.83839e-05
3.41753e-05
4.34287e-05
5.51678e-05
6.7384e-05
7.94114e-05
9.0348e-05
9.69433e-05
0.000101603
0.00010923
0.000121174
0.000137361
0.000154881
0.000164728
0.0001604
0.000142173
0.000119187
0.000101387
9.87177e-05
0.000113102
0.000137968
0.00016371
0.000181806
0.000189191
0.000185583
0.000173101
0.000157546
0.000146221
0.00013733
0.000130956
0.000123096
0.000114479
0.000106761
9.99481e-05
9.23811e-05
8.23904e-05
7.12773e-05
6.29751e-05
5.95853e-05
5.98065e-05
6.16196e-05
6.42733e-05
6.80443e-05
7.2311e-05
7.65306e-05
8.12166e-05
8.75419e-05
9.48185e-05
0.000102023
0.000108316
0.000116734
0.000129237
0.000143993
0.000153821
0.000150624
0.000134285
0.000114026
9.85394e-05
9.43522e-05
0.000103864
0.000123545
0.000145955
0.000163673
0.000173007
0.000174666
0.000168863
0.000157745
0.000141511
0.000127318
0.000114537
0.000101738
9.10508e-05
8.43974e-05
8.17601e-05
8.16768e-05
8.04077e-05
7.76234e-05
7.48884e-05
7.36972e-05
7.3723e-05
7.3669e-05
7.50244e-05
7.95344e-05
8.74345e-05
9.65083e-05
0.000104161
0.000109656
0.000112912
0.000114387
0.000115507
0.00011864
0.000123926
0.000130826
0.00013697
0.000136369
0.000126104
0.00011081
9.77844e-05
9.17786e-05
9.57771e-05
0.000109542
0.000128309
0.000145332
0.000156913
0.000162496
0.000161693
0.000154161
0.000134773
0.000114382
9.28901e-05
7.43024e-05
6.2164e-05
5.75829e-05
5.91382e-05
6.46052e-05
7.10806e-05
7.53708e-05
7.85474e-05
8.18142e-05
8.428e-05
8.59777e-05
8.8634e-05
9.4755e-05
0.000104871
0.000116638
0.00012754
0.000136191
0.000139852
0.00013607
0.000127563
0.000119218
0.000113707
0.000113339
0.000118107
0.000121612
0.000120114
0.000114784
0.000108975
0.000103441
0.000101732
0.00010773
0.000119833
0.000133579
0.000145969
0.000154404
0.000156379
0.000150009
9.79465e-05
5.34265e-05
2.07599e-05
4.82803e-06
8.69408e-06
2.83655e-05
5.23309e-05
6.90327e-05
7.34841e-05
6.99438e-05
6.76967e-05
7.36533e-05
8.64705e-05
9.92391e-05
0.000106189
0.000104735
9.54123e-05
8.24477e-05
7.03415e-05
6.00469e-05
5.36999e-05
5.89505e-05
8.14069e-05
0.000117818
0.00016055
0.000201665
0.000233028
0.000253579
0.000267516
0.000279294
0.000294239
0.000315201
0.000333361
0.000337677
0.000327662
0.000306777
0.000277565
0.000241268
0.000197734
0.000148577
0.00010012
5.51762e-05
2.1987e-05
5.48743e-06
8.83216e-06
2.82112e-05
5.2091e-05
6.88751e-05
7.34736e-05
7.00609e-05
6.78666e-05
7.38041e-05
8.65699e-05
9.92707e-05
0.000106111
0.000104588
9.51674e-05
8.20498e-05
6.97806e-05
5.93347e-05
5.28133e-05
5.78417e-05
8.00747e-05
0.000116182
0.000158529
0.000199293
0.000230323
0.000250463
0.000263992
0.000275397
0.000290114
0.000311345
0.000330364
0.000335781
0.000326945
0.000307178
0.000278824
0.000243129
0.000199931
0.000150888
0.000101546
5.57201e-05
2.17304e-05
4.56545e-06
7.49158e-06
2.68802e-05
5.11101e-05
6.83179e-05
7.31581e-05
6.97572e-05
6.74351e-05
7.32237e-05
8.59213e-05
9.86688e-05
0.000105661
0.000104261
9.49072e-05
8.17114e-05
6.93161e-05
5.87056e-05
5.19264e-05
5.65962e-05
7.86182e-05
0.000114608
0.000156805
0.000197497
0.000228379
0.000247987
0.000260772
0.000271321
0.000285407
0.000306928
0.000327154
0.000334121
0.000327017
0.000308811
0.000281414
0.000246042
0.000202724
0.000153123
0.000101896
5.44626e-05
1.91894e-05
1.14859e-06
3.73531e-06
2.35164e-05
4.86741e-05
6.67728e-05
7.1986e-05
6.84051e-05
6.56825e-05
7.11794e-05
8.38415e-05
9.68228e-05
0.000104257
0.000103403
9.44894e-05
8.14495e-05
6.90563e-05
5.83593e-05
5.13431e-05
5.57043e-05
7.76827e-05
0.000113879
0.000156245
0.000197155
0.000228075
0.000247079
0.000258897
0.00026814
0.000281015
0.000302568
0.000324199
0.000333013
0.000328043
0.000311893
0.000285633
0.000250319
0.000206262
0.000155225
0.000101586
5.16526e-05
1.45136e-05
-4.808e-06
-2.72799e-06
1.76281e-05
4.4256e-05
6.38119e-05
6.96369e-05
6.56658e-05
6.21456e-05
6.70875e-05
7.96476e-05
9.29483e-05
0.000101054
0.000101212
9.33135e-05
8.08911e-05
6.86977e-05
5.80013e-05
5.08206e-05
5.50236e-05
7.73016e-05
0.000114132
0.000157045
0.000198373
0.000229472
0.000247977
0.000258908
0.000266812
0.000277919
0.000298845
0.000321722
0.000332403
0.000329726
0.000316129
0.000291475
0.000256276
0.000210977
0.000157644
0.000101423
4.79656e-05
8.15028e-06
-1.30139e-05
-1.19463e-05
8.88978e-06
3.74657e-05
5.92338e-05
6.62155e-05
6.1825e-05
5.70403e-05
6.09401e-05
7.3054e-05
8.63424e-05
9.51993e-05
9.68152e-05
9.06679e-05
7.95507e-05
6.79228e-05
5.72065e-05
4.94813e-05
5.29742e-05
7.53547e-05
0.000113243
0.000157258
0.000199539
0.00023128
0.000249678
0.00026042
0.000267809
0.000277192
0.000296683
0.000320144
0.000332359
0.000331829
0.000321225
0.000298899
0.00026435
0.000217662
0.000161259
0.000102887
4.45913e-05
1.1031e-06
-2.28612e-05
-2.38399e-05
-3.25135e-06
2.74663e-05
5.2493e-05
6.19034e-05
5.78136e-05
5.17123e-05
5.40447e-05
6.5045e-05
7.77e-05
8.67683e-05
8.99562e-05
8.63251e-05
7.74148e-05
6.68989e-05
5.60541e-05
4.68292e-05
4.78285e-05
6.82589e-05
0.000105619
0.000150374
0.00019456
0.000228487
0.00024803
0.000260087
0.000269186
0.000278132
0.000295993
0.000319373
0.000332643
0.000333958
0.000326882
0.000308103
0.000275143
0.000227583
0.00016759
0.000108177
4.3683e-05
-4.6945e-06
-3.25495e-05
-3.71414e-05
-1.86158e-05
1.3319e-05
4.1795e-05
5.50379e-05
5.32703e-05
4.68716e-05
4.78178e-05
5.73242e-05
6.87668e-05
7.73277e-05
8.20674e-05
8.12839e-05
7.51057e-05
6.61062e-05
5.48646e-05
4.27445e-05
3.8881e-05
5.45765e-05
8.8744e-05
0.000132519
0.000178653
0.000216113
0.000238147
0.00025226
0.000264775
0.000275702
0.000292485
0.00031573
0.000330915
0.000334866
0.000332312
0.000318907
0.000289237
0.000242145
0.000178601
0.000119306
4.78185e-05
-6.66288e-06
-3.9282e-05
-4.85047e-05
-3.36029e-05
-2.86357e-06
2.72905e-05
4.36879e-05
4.45097e-05
3.88343e-05
3.88614e-05
4.68184e-05
5.68226e-05
6.47342e-05
7.09882e-05
7.46248e-05
7.25296e-05
6.54244e-05
5.34644e-05
3.70009e-05
2.58164e-05
3.48836e-05
6.48167e-05
0.000106725
0.000153941
0.000195037
0.000220114
0.000236164
0.000251526
0.000264769
0.000280479
0.000302761
0.000320216
0.000329484
0.000335112
0.000330282
0.000306354
0.000261068
0.000195445
0.000137428
5.90545e-05
-2.1878e-06
-4.04109e-05
-5.46683e-05
-4.4671e-05
-1.66758e-05
1.30569e-05
3.01682e-05
3.19755e-05
2.65298e-05
2.48157e-05
2.9953e-05
3.77005e-05
4.48731e-05
5.34393e-05
6.20622e-05
6.55703e-05
6.21756e-05
5.10039e-05
3.1063e-05
1.26656e-05
1.45467e-05
4.03864e-05
8.06339e-05
0.000128132
0.000171327
0.000198612
0.000215099
0.000231936
0.000246854
0.000260692
0.000281139
0.000299792
0.0003141
0.000330183
0.000339078
0.000324856
0.000283204
0.000217334
0.00016169
7.86174e-05
9.92882e-06
-3.46858e-05
-5.38447e-05
-4.79367e-05
-2.26772e-05
5.54472e-06
2.11831e-05
2.14051e-05
1.39779e-05
9.60275e-06
1.19031e-05
1.74223e-05
2.41598e-05
3.47126e-05
4.7432e-05
5.49635e-05
5.52746e-05
4.73491e-05
2.83463e-05
6.75535e-06
3.15955e-06
2.55661e-05
6.37386e-05
0.000110502
0.000153565
0.000181426
0.000196721
0.000212114
0.000227445
0.000239541
0.00025642
0.00027628
0.000294146
0.00031793
0.000341167