/*--------------------------------*- C++ -*----------------------------------*\
| =========                 |                                                 |
| \\      /  F ield         | OpenFOAM: The Open Source CFD Toolbox           |
|  \\    /   O peration     | Version:  2306                                  |
|   \\  /    A nd           | Website:  www.openfoam.com                      |
|    \\/     M anipulation  |                                                 |
\*---------------------------------------------------------------------------*/
FoamFile
{
    version     2.0;
    format      ascii;
    arch        "LSB;label=32;scalar=64";
    class       volVectorField;
    location    "5";
    object      U_0;
}
// * * * * * * * * * * * * * * * * * * * * * * * * * * * * * * * * * * * * * //

dimensions      [0 1 -1 0 0 0 0];

internalField   nonuniform List<vector> 
60000
(
(0.00899374 3.74707e-05 0.000924151)
(0.00956948 4.79703e-05 0.00154571)
(0.00981529 5.36822e-05 0.00223727)
(0.00969003 4.10179e-05 0.00269229)
(0.00933742 1.75844e-05 0.00276335)
(0.00900309 2.59014e-06 0.00252097)
(0.0087848 -3.0571e-06 0.00212381)
(0.00862264 -2.51034e-07 0.00168947)
(0.00845573 8.3569e-07 0.00129412)
(0.00822405 -3.32346e-06 0.00102647)
(0.00779531 -9.41724e-06 0.00093784)
(0.00709323 -1.14424e-05 0.000983416)
(0.00628884 -8.37389e-06 0.00106381)
(0.00568495 -3.10548e-06 0.00111518)
(0.0054477 -3.76928e-06 0.00110216)
(0.00551786 -1.3817e-05 0.000956881)
(0.00571363 -2.31537e-05 0.000689509)
(0.00587286 -1.88119e-05 0.000412583)
(0.00600072 -7.09405e-06 0.000167776)
(0.00621835 7.38026e-07 -3.60569e-05)
(0.0065511 1.26137e-05 -0.000196169)
(0.00688613 2.41097e-05 -0.000332771)
(0.00716204 2.93964e-05 -0.000519359)
(0.00743866 2.00741e-05 -0.000816479)
(0.00781035 1.96181e-06 -0.00128055)
(0.00829312 -1.28303e-05 -0.00185977)
(0.00874622 -1.824e-05 -0.00232809)
(0.00894151 -1.91141e-05 -0.00249315)
(0.00873117 -1.02644e-05 -0.00249329)
(0.00812945 2.72309e-06 -0.00248591)
(0.00732176 1.51769e-05 -0.00235483)
(0.00660779 9.98143e-06 -0.00213081)
(0.00616789 -2.42918e-06 -0.00201734)
(0.00598661 1.082e-07 -0.00196139)
(0.00603951 4.58778e-06 -0.00175138)
(0.00629375 9.20459e-06 -0.00126431)
(0.00664414 2.12747e-05 -0.000597323)
(0.00704817 3.61874e-05 -1.9169e-05)
(0.00757641 4.33377e-05 0.00032035)
(0.00825783 3.70751e-05 0.000540186)
(0.026979 0.000195909 0.00271284)
(0.0287145 0.000266531 0.00438593)
(0.0297174 0.000295815 0.00607407)
(0.0297278 0.000223778 0.00706207)
(0.0288704 9.54987e-05 0.00706149)
(0.027783 4.64262e-06 0.00635303)
(0.0269661 -2.27089e-05 0.00538962)
(0.0264112 -6.96606e-06 0.00440849)
(0.0259057 6.32699e-06 0.00350701)
(0.0251922 3.07899e-06 0.00283811)
(0.0239113 -6.09038e-06 0.00253594)
(0.0219148 -2.61957e-05 0.00259456)
(0.0196744 -6.97795e-05 0.0028339)
(0.0179349 -0.000128848 0.00300407)
(0.0171048 -0.000188551 0.00290554)
(0.0170177 -0.000230691 0.00244384)
(0.0172256 -0.000219167 0.00175603)
(0.0174563 -0.000144928 0.00108526)
(0.0178032 -6.2098e-05 0.000501791)
(0.0184583 -3.3965e-06 6.70676e-06)
(0.0193865 5.43711e-05 -0.000415018)
(0.0203842 9.80995e-05 -0.000835025)
(0.0214116 8.41402e-05 -0.00139756)
(0.0226039 -1.94436e-05 -0.00224007)
(0.0240665 -0.000146799 -0.00348361)
(0.0256773 -0.000217254 -0.00496009)
(0.0270126 -0.000195571 -0.00611219)
(0.0274855 -0.000114692 -0.00654319)
(0.0267502 -1.48339e-06 -0.00653584)
(0.0249872 9.37707e-05 -0.00633296)
(0.0228372 0.000101124 -0.00583971)
(0.0209261 4.68085e-06 -0.00540075)
(0.0194562 -7.71304e-05 -0.00535898)
(0.018491 -7.473e-05 -0.00529994)
(0.0182491 -4.04708e-05 -0.00461771)
(0.0187693 1.98385e-05 -0.00318023)
(0.0197521 0.000117221 -0.00142836)
(0.0210457 0.000204541 -1.11201e-05)
(0.0227626 0.000217927 0.000855401)
(0.0248471 0.000178124 0.00156475)
(0.044879 0.000393021 0.00370682)
(0.0480577 0.000533163 0.00625135)
(0.0503122 0.000567915 0.00881217)
(0.0510033 0.000397709 0.0103722)
(0.0498997 0.000137028 0.0104583)
(0.0479018 -3.42867e-05 0.0094435)
(0.046206 -7.49316e-05 0.00808629)
(0.0451287 -4.10842e-05 0.00679034)
(0.0443054 -1.25435e-05 0.00561395)
(0.0432377 -1.38902e-05 0.00462274)
(0.0413701 -2.53513e-05 0.0039657)
(0.0384216 -7.06139e-05 0.00381747)
(0.0349227 -0.000187409 0.00413797)
(0.0318434 -0.000355568 0.0045233)
(0.0299209 -0.000512311 0.00446194)
(0.0291553 -0.000595936 0.00378845)
(0.0289954 -0.000538675 0.00280426)
(0.0290885 -0.000352525 0.00187818)
(0.0295578 -0.000157274 0.00108666)
(0.0305791 -1.37433e-05 0.000406673)
(0.0320453 0.000107046 -0.000192464)
(0.033721 0.000169426 -0.000798872)
(0.0356095 7.79387e-05 -0.00157723)
(0.0378863 -0.000218988 -0.00274452)
(0.0406271 -0.000539798 -0.00454535)
(0.0435642 -0.000696121 -0.00681285)
(0.04601 -0.000615604 -0.00873469)
(0.0470359 -0.000374855 -0.0096401)
(0.0460871 -6.30294e-05 -0.00976009)
(0.0434803 0.000173786 -0.00935412)
(0.0402547 0.000168457 -0.00844048)
(0.0372424 -6.02035e-05 -0.00775127)
(0.0345613 -0.00022172 -0.00788594)
(0.0322972 -0.000206547 -0.00814236)
(0.0310432 -0.00012403 -0.00739664)
(0.0312588 1.81269e-05 -0.00535123)
(0.0326154 0.000243328 -0.00274272)
(0.0347466 0.00043823 -0.000597976)
(0.0376797 0.000454936 0.000758569)
(0.0412283 0.000352339 0.00191517)
(0.06165 0.000457323 0.00305123)
(0.0666245 0.000688766 0.00632884)
(0.0707322 0.000737452 0.00982063)
(0.0728796 0.000471977 0.0122981)
(0.0720894 9.91391e-05 0.0129699)
(0.0691659 -0.000119658 0.0119756)
(0.0662469 -0.000157089 0.0103179)
(0.0644384 -0.000103608 0.0088125)
(0.06333 -5.92939e-05 0.00759477)
(0.0621242 -5.04393e-05 0.00649261)
(0.0600938 -4.96768e-05 0.00543136)
(0.0567582 -0.000100175 0.00476389)
(0.0524281 -0.0002837 0.00489998)
(0.0479424 -0.00059079 0.0055567)
(0.0442725 -0.000901628 0.00580143)
(0.0419885 -0.00107276 0.00511559)
(0.0408465 -0.00098394 0.00393692)
(0.0404537 -0.000671002 0.00287115)
(0.0408349 -0.000337103 0.00202394)
(0.0420595 -8.29345e-05 0.00132081)
(0.0439293 0.000115653 0.000717323)
(0.0461905 0.000181005 0.000147525)
(0.0488674 -5.75447e-05 -0.000527683)
(0.0521519 -0.000658468 -0.00160595)
(0.0561447 -0.00129073 -0.00357282)
(0.0605651 -0.00158058 -0.00651136)
(0.0645367 -0.00140068 -0.00948836)
(0.0667429 -0.000909814 -0.0113792)
(0.0662994 -0.000278344 -0.0120925)
(0.0635032 0.000190819 -0.0117943)
(0.0596578 0.000205075 -0.0104983)
(0.0557749 -0.000166857 -0.0092979)
(0.0519374 -0.00042548 -0.00939684)
(0.04809 -0.000401178 -0.0102007)
(0.0449457 -0.000286003 -0.0100723)
(0.0437373 -8.17796e-05 -0.00814894)
(0.0447183 0.000282176 -0.00511433)
(0.047346 0.000606814 -0.00240574)
(0.0513442 0.000618919 -0.000655856)
(0.0563397 0.000419488 0.000804296)
(0.0755383 8.42994e-05 -0.000233609)
(0.0825601 0.000497712 0.00359022)
(0.0891175 0.000638283 0.00808841)
(0.0937343 0.000329184 0.0119789)
(0.0943486 -8.34589e-05 0.0140974)
(0.0909527 -0.000270419 0.0138827)
(0.0865511 -0.000261383 0.0121412)
(0.0836905 -0.000186269 0.0103506)
(0.0822879 -0.000134844 0.00919844)
(0.08118 -0.000116291 0.00837387)
(0.079428 -9.14201e-05 0.00719219)
(0.0763642 -0.000105768 0.00579945)
(0.0719434 -0.000289749 0.00525498)
(0.066533 -0.000691386 0.00596452)
(0.0608482 -0.00118599 0.00677781)
(0.0560604 -0.00153427 0.00640789)
(0.0529144 -0.00150511 0.00512792)
(0.0513649 -0.00111339 0.00395914)
(0.0512409 -0.000646546 0.00318869)
(0.0523608 -0.000260306 0.00266917)
(0.0543574 4.29898e-05 0.00231346)
(0.0568833 0.000107124 0.00210279)
(0.0599144 -0.000353439 0.0019751)
(0.0636021 -0.0014235 0.00160927)
(0.0682197 -0.00260499 0.000243644)
(0.0739195 -0.00319835 -0.00279682)
(0.0800267 -0.00284112 -0.00698571)
(0.0845893 -0.00188411 -0.010712)
(0.0859673 -0.000772795 -0.0130142)
(0.0841478 5.42047e-05 -0.0136402)
(0.0804687 0.000184212 -0.0123681)
(0.0761245 -0.000297239 -0.0104734)
(0.0714412 -0.000654056 -0.0100454)
(0.0663189 -0.000616056 -0.011159)
(0.0610403 -0.000488177 -0.0120135)
(0.0571509 -0.000303095 -0.0110998)
(0.0561552 0.000122354 -0.00853589)
(0.0581311 0.000544393 -0.00584598)
(0.062504 0.000516969 -0.00408648)
(0.0685843 0.000142412 -0.00264938)
(0.0841092 -0.00110664 -0.00676887)
(0.0925505 -0.000663098 -0.00307711)
(0.101761 -0.000231774 0.00197601)
(0.110238 -0.000284399 0.00761786)
(0.114234 -0.000532553 0.0123717)
(0.111794 -0.000543128 0.0144444)
(0.106101 -0.000388823 0.013517)
(0.101838 -0.000267593 0.0114031)
(0.10007 -0.000229941 0.0100689)
(0.0992996 -0.000220726 0.00981371)
(0.0981665 -0.000173764 0.00923219)
(0.0959044 -0.00012647 0.00739174)
(0.0922546 -0.000211375 0.00565135)
(0.0870631 -0.000575095 0.00577033)
(0.0801813 -0.00117732 0.00710541)
(0.0725312 -0.00175625 0.007472)
(0.0660767 -0.00194142 0.00631253)
(0.0621337 -0.00161221 0.00497906)
(0.0607198 -0.00107745 0.00425864)
(0.06123 -0.000559682 0.00402646)
(0.062923 -0.000110356 0.00409814)
(0.0651879 -2.89736e-05 0.00447209)
(0.0678121 -0.000815532 0.00517173)
(0.0708186 -0.00258869 0.00596575)
(0.0744824 -0.00461289 0.00609775)
(0.0796417 -0.00585429 0.00445826)
(0.0873378 -0.00564299 0.000344512)
(0.0961242 -0.00402948 -0.00551594)
(0.101987 -0.00189574 -0.0109748)
(0.103274 -0.000354321 -0.0140838)
(0.101187 5.66571e-05 -0.0139482)
(0.0970816 -0.000451269 -0.0117509)
(0.0919624 -0.000875399 -0.0104173)
(0.0862742 -0.000796596 -0.011194)
(0.0797586 -0.000629697 -0.0126458)
(0.0732524 -0.000504396 -0.0129814)
(0.0688372 -0.000157145 -0.0118025)
(0.0679798 0.00020594 -0.010268)
(0.0708024 1.35884e-05 -0.00944142)
(0.0765608 -0.000724091 -0.00872784)
(0.0883493 -0.00306405 -0.014973)
(0.0952483 -0.00285534 -0.0123515)
(0.103869 -0.00231972 -0.0082718)
(0.115716 -0.00216477 -0.00225743)
(0.126413 -0.00183023 0.00548737)
(0.128494 -0.00123105 0.0117983)
(0.12299 -0.000674063 0.0137823)
(0.117223 -0.000363223 0.0121216)
(0.115003 -0.000309283 0.0101175)
(0.11494 -0.000363536 0.0100762)
(0.114753 -0.000334367 0.0108425)
(0.113461 -0.000208628 0.00962884)
(0.111112 -0.000143534 0.0067183)
(0.107486 -0.000326439 0.0053666)
(0.101422 -0.00084323 0.00660665)
(0.0922885 -0.00153757 0.00792005)
(0.0820406 -0.00200849 0.00736159)
(0.0740778 -0.0019511 0.00594394)
(0.0700187 -0.00150702 0.00508492)
(0.0691602 -0.000895588 0.00496546)
(0.0701578 -0.000259497 0.00529976)
(0.0719914 -0.00012969 0.00597291)
(0.0742344 -0.001335 0.00709253)
(0.0766341 -0.00396953 0.0087102)
(0.0788272 -0.00695776 0.0103932)
(0.0811134 -0.00897696 0.0112164)
(0.0860553 -0.00926503 0.00974312)
(0.0961171 -0.00758852 0.00458792)
(0.108418 -0.00447547 -0.00365548)
(0.116698 -0.00155911 -0.0110622)
(0.118958 -0.000388117 -0.0140358)
(0.116367 -0.000714041 -0.0129487)
(0.111162 -0.00107652 -0.0110692)
(0.105505 -0.0008733 -0.0109529)
(0.0992319 -0.000636418 -0.0121604)
(0.0919703 -0.000522358 -0.0130652)
(0.0850977 -0.000262001 -0.0131541)
(0.0805902 -8.76134e-05 -0.0134338)
(0.0796519 -0.000723153 -0.0146698)
(0.0825802 -0.00211646 -0.0157164)
(0.0935855 -0.00524817 -0.0220357)
(0.0971953 -0.00529383 -0.0206704)
(0.101807 -0.00493109 -0.0175282)
(0.110912 -0.00517223 -0.0127275)
(0.125799 -0.00459547 -0.00493741)
(0.136161 -0.0028529 0.0047262)
(0.134125 -0.00138517 0.0113347)
(0.127136 -0.000753749 0.0122117)
(0.124305 -0.000533551 0.00975361)
(0.125815 -0.000503112 0.00880228)
(0.127497 -0.000583582 0.0106423)
(0.127119 -0.000522317 0.0114594)
(0.125734 -0.000263071 0.00860953)
(0.124348 -0.0001022 0.00538281)
(0.121445 -0.000376884 0.00548767)
(0.114121 -0.000944942 0.0073898)
(0.102012 -0.00151306 0.00787936)
(0.0893747 -0.00181363 0.00686334)
(0.0809088 -0.00170865 0.00591527)
(0.0774292 -0.0011474 0.00567232)
(0.0773148 -0.000321468 0.00593238)
(0.0790989 -4.51861e-05 0.00644689)
(0.0819771 -0.00142755 0.00738778)
(0.0850828 -0.00461103 0.00913134)
(0.0872488 -0.00835818 0.0114765)
(0.0874591 -0.0112351 0.0139721)
(0.0873889 -0.0122778 0.0156682)
(0.0924084 -0.0110494 0.0140384)
(0.104826 -0.0078629 0.00702029)
(0.119801 -0.00391525 -0.00311439)
(0.129683 -0.00153555 -0.0105302)
(0.130808 -0.00130275 -0.0127211)
(0.125706 -0.00152124 -0.0117584)
(0.120041 -0.00113013 -0.0107177)
(0.115297 -0.000551391 -0.0108593)
(0.10975 -0.000193964 -0.0114341)
(0.103362 0.000149631 -0.0118812)
(0.097689 0.000197185 -0.0132618)
(0.0936856 -0.00103621 -0.0166244)
(0.0920203 -0.00343766 -0.0204949)
(0.103559 -0.00662538 -0.025021)
(0.102727 -0.00727795 -0.0261114)
(0.104096 -0.00698238 -0.023601)
(0.108153 -0.00794641 -0.0189063)
(0.119527 -0.00833493 -0.0122317)
(0.13488 -0.00590215 -0.00292561)
(0.140165 -0.00259446 0.00621751)
(0.133429 -0.00122025 0.0105235)
(0.126984 -0.0012463 0.00914938)
(0.128987 -0.00112969 0.00669447)
(0.13485 -0.000800019 0.00793981)
(0.136374 -0.000749114 0.0108013)
(0.13355 -0.000772477 0.00988027)
(0.13232 -0.000610723 0.00582242)
(0.134183 -0.000417161 0.0041553)
(0.133289 -0.000413651 0.00588615)
(0.124254 -0.000658609 0.00741076)
(0.109289 -0.00101416 0.00731804)
(0.0956517 -0.0013574 0.00677729)
(0.0877875 -0.00116037 0.00660134)
(0.0854114 -0.000341168 0.00676164)
(0.0867892 8.16298e-05 0.00702653)
(0.0904597 -0.00125348 0.00745342)
(0.0947736 -0.00451406 0.00859727)
(0.09801 -0.00839278 0.0106205)
(0.0985452 -0.0116357 0.0133881)
(0.0958882 -0.013485 0.0168776)
(0.0945561 -0.0133335 0.0188956)
(0.101415 -0.010903 0.0152302)
(0.11664 -0.00699995 0.00575957)
(0.132436 -0.00353619 -0.00428134)
(0.137054 -0.00180843 -0.0101041)
(0.128623 -0.00117813 -0.0110641)
(0.118536 -0.00102916 -0.00931794)
(0.115155 -0.00096582 -0.00763385)
(0.116196 -0.000444827 -0.00718432)
(0.116265 0.000568769 -0.00760749)
(0.114369 0.00110337 -0.00930002)
(0.111554 -0.000253397 -0.0135862)
(0.107459 -0.00355282 -0.0199471)
(0.118197 -0.0061185 -0.0223042)
(0.112038 -0.00787191 -0.0272587)
(0.109967 -0.00777837 -0.0270816)
(0.111169 -0.00907901 -0.0226303)
(0.116853 -0.0111107 -0.0160577)
(0.129659 -0.00993864 -0.00803825)
(0.141456 -0.00522561 0.000809135)
(0.141454 -0.00163842 0.00707831)
(0.133024 -0.00142516 0.007775)
(0.128307 -0.00239651 0.00479504)
(0.134029 -0.00198511 0.00415251)
(0.141563 -0.000563807 0.0074472)
(0.140202 -0.000107517 0.00913075)
(0.133969 -0.00110614 0.0063038)
(0.133906 -0.00219564 0.00344409)
(0.140712 -0.00189918 0.00420005)
(0.141914 -0.000682265 0.00620341)
(0.131156 -4.12996e-05 0.00696516)
(0.115089 -0.000256179 0.00709001)
(0.102091 -0.000538664 0.00751298)
(0.09544 -0.000197883 0.00819845)
(0.0949723 1.98233e-05 0.0085015)
(0.0990157 -0.00138427 0.00796211)
(0.104775 -0.00452767 0.00741006)
(0.109321 -0.00806237 0.00813012)
(0.110694 -0.0109298 0.0105613)
(0.107918 -0.0127035 0.0147924)
(0.103044 -0.0134873 0.0193702)
(0.103118 -0.0127699 0.0192951)
(0.113663 -0.010088 0.0116654)
(0.129244 -0.0060631 0.000642703)
(0.135506 -0.00202231 -0.00757909)
(0.126241 0.000432787 -0.0100212)
(0.112586 0.000391296 -0.00748972)
(0.106291 -0.000957185 -0.00327764)
(0.10882 -0.00125651 -0.000519333)
(0.115459 0.000117905 -3.75273e-05)
(0.121467 0.00157179 -0.00169334)
(0.125008 0.00108867 -0.00630263)
(0.124116 -0.00208978 -0.0140341)
(0.13241 -0.00388834 -0.0154451)
(0.124289 -0.00663799 -0.0239833)
(0.117443 -0.00728818 -0.0276994)
(0.116201 -0.00860483 -0.0256106)
(0.119429 -0.0116326 -0.0194123)
(0.126992 -0.0128993 -0.0118356)
(0.138353 -0.00937073 -0.00400881)
(0.145636 -0.00381259 0.00268261)
(0.14313 -0.00127622 0.00555051)
(0.134657 -0.00232343 0.00383593)
(0.130969 -0.00351544 0.00171151)
(0.137472 -0.00198767 0.00350218)
(0.14434 0.000755669 0.00664657)
(0.14193 0.000771838 0.00630282)
(0.135531 -0.00261824 0.00371986)
(0.137637 -0.00522517 0.00342094)
(0.146682 -0.00376831 0.0053649)
(0.147187 -0.000608943 0.00653783)
(0.135629 0.00104023 0.00676667)
(0.120521 0.00115233 0.00759329)
(0.109008 0.000782808 0.00941934)
(0.104456 -0.000154046 0.0106368)
(0.10716 -0.00248601 0.0091997)
(0.114194 -0.00553958 0.00597817)
(0.120999 -0.00812117 0.00424708)
(0.123899 -0.00995389 0.00569684)
(0.121318 -0.0109864 0.0101961)
(0.114714 -0.0116205 0.016589)
(0.109278 -0.0123033 0.0200161)
(0.11273 -0.0117075 0.0153079)
(0.124272 -0.00820685 0.00460226)
(0.131169 -0.00235419 -0.00509317)
(0.12505 0.00222234 -0.00907918)
(0.113092 0.00268093 -0.00710555)
(0.105245 0.000131605 -0.00186513)
(0.104661 -0.0016416 0.00326418)
(0.110004 -0.000780256 0.006256)
(0.118241 0.0011388 0.00656823)
(0.127402 0.00173418 0.00315387)
(0.133878 -0.000188134 -0.00493208)
(0.140815 -0.00107267 -0.00715855)
(0.136394 -0.00367867 -0.0178959)
(0.12719 -0.00548712 -0.0247778)
(0.122321 -0.00742285 -0.0263842)
(0.124375 -0.01063 -0.0224902)
(0.129684 -0.0135184 -0.0156079)
(0.136571 -0.0128095 -0.0083432)
(0.144468 -0.00800091 -0.00177211)
(0.148044 -0.00310574 0.00264587)
(0.143372 -0.00174846 0.00308598)
(0.134861 -0.0030228 0.00108281)
(0.132873 -0.00327126 0.00119098)
(0.139889 -0.000877117 0.00405916)
(0.146173 0.00119444 0.00560873)
(0.143934 -0.000925622 0.00418734)
(0.138793 -0.00594737 0.00289516)
(0.142204 -0.00780306 0.00425163)
(0.150123 -0.00417163 0.00612022)
(0.149376 0.000634854 0.00641922)
(0.138764 0.0030779 0.0068758)
(0.12583 0.00316873 0.00955401)
(0.117109 0.000864759 0.0120951)
(0.115378 -0.00347032 0.00989938)
(0.120159 -0.00761743 0.00377197)
(0.128826 -0.00943838 -0.000585819)
(0.135552 -0.00948437 -0.000131856)
(0.135024 -0.00912453 0.00417037)
(0.127681 -0.00886124 0.0114452)
(0.118367 -0.00971329 0.0180967)
(0.114938 -0.0109369 0.0173873)
(0.120643 -0.00910325 0.00854391)
(0.126691 -0.00289212 -0.00174468)
(0.12486 0.00324633 -0.00759648)
(0.118226 0.00466297 -0.00814435)
(0.112424 0.00184575 -0.00489392)
(0.109553 -0.000867154 0.000455044)
(0.110436 -0.0008989 0.00577207)
(0.11472 0.000578915 0.00929652)
(0.122783 0.00132376 0.00940158)
(0.134232 0.000775095 0.00368706)
(0.143066 0.000325087 -0.00123261)
(0.145119 -0.000152868 -0.0117201)
(0.137743 -0.00245354 -0.0200332)
(0.130554 -0.00578684 -0.0242411)
(0.130201 -0.0093656 -0.0234382)
(0.135028 -0.0124989 -0.0187483)
(0.139416 -0.0139384 -0.0125747)
(0.143121 -0.0118135 -0.00599227)
(0.14686 -0.00667797 -0.000237177)
(0.146321 -0.00241986 0.00236714)
(0.140134 -0.00168947 0.00145298)
(0.134553 -0.00280412 0.000549719)
(0.136569 -0.00253412 0.0025369)
(0.143959 -0.000781426 0.00525007)
(0.14804 -0.000872564 0.0053119)
(0.145019 -0.00474742 0.00320714)
(0.141396 -0.00894729 0.00250175)
(0.14458 -0.00824269 0.00417757)
(0.149606 -0.00286176 0.00555864)
(0.147742 0.00254129 0.00636925)
(0.13881 0.00500769 0.00915312)
(0.129249 0.00355932 0.0118744)
(0.123576 -0.00140324 0.00853921)
(0.122597 -0.00763633 0.00014254)
(0.128681 -0.0110814 -0.00586344)
(0.13975 -0.0103308 -0.00544218)
(0.145117 -0.00814589 -0.000925144)
(0.139554 -0.0065154 0.00578191)
(0.128339 -0.00640358 0.01389)
(0.11992 -0.00794621 0.0174788)
(0.119917 -0.00776812 0.0121309)
(0.123822 -0.00274676 0.00228507)
(0.124619 0.00364622 -0.00533645)
(0.122883 0.00574172 -0.00865422)
(0.121013 0.00332612 -0.0083957)
(0.118996 0.000545945 -0.00532168)
(0.117162 8.22915e-05 -0.000441943)
(0.116837 0.000659012 0.00467506)
(0.12039 0.000195019 0.00803722)
(0.130903 -0.000268935 0.00661657)
(0.142465 -0.000967743 0.000468816)
(0.150275 0.00164528 -0.00720299)
(0.147714 0.000617617 -0.015434)
(0.140475 -0.00347528 -0.0212158)
(0.137171 -0.00773591 -0.0225351)
(0.140338 -0.0107359 -0.0200647)
(0.144582 -0.0128818 -0.0160292)
(0.145555 -0.013212 -0.0103608)
(0.145532 -0.00979013 -0.00343295)
(0.145207 -0.00409712 0.00137604)
(0.142129 -0.000747237 0.00195657)
(0.137718 -0.00134869 0.000810192)
(0.137109 -0.00298904 0.00195901)
(0.142309 -0.00271724 0.00529735)
(0.148454 -0.00180699 0.00698323)
(0.149687 -0.00347828 0.0048118)
(0.145645 -0.00729491 0.00158041)
(0.141641 -0.0088782 0.00150144)
(0.140658 -0.00580636 0.00439466)
(0.139592 -0.000319864 0.00777138)
(0.13585 0.00404207 0.0103852)
(0.131582 0.0051927 0.0101765)
(0.12912 0.00210587 0.00467789)
(0.126923 -0.00469047 -0.00363455)
(0.127919 -0.0109876 -0.0086037)
(0.137691 -0.0120877 -0.00723212)
(0.148687 -0.0090235 -0.00236418)
(0.148035 -0.00569195 0.00281867)
(0.136837 -0.00403457 0.00954712)
(0.12558 -0.0044848 0.015408)
(0.121663 -0.00463455 0.0142166)
(0.123798 -0.00105766 0.00641259)
(0.12618 0.00415422 -0.00203365)
(0.127544 0.00575726 -0.00758476)
(0.128911 0.00360505 -0.0100372)
(0.129417 0.00159435 -0.00996646)
(0.128026 0.00171898 -0.00755171)
(0.125881 0.0018149 -0.00309622)
(0.125544 -0.0003988 0.00183324)
(0.130923 -0.00254746 0.00393639)
(0.139731 -0.00275538 0.000875248)
(0.149231 0.00127479 -0.00429485)
(0.153366 0.00241601 -0.0113779)
(0.149608 -0.000826871 -0.0178735)
(0.144909 -0.00508274 -0.0208105)
(0.145887 -0.00822774 -0.0198549)
(0.150355 -0.010891 -0.0175499)
(0.151617 -0.0128463 -0.0138141)
(0.148764 -0.0113693 -0.00723464)
(0.145608 -0.0058117 -0.000774381)
(0.142842 -0.00040574 0.0018364)
(0.139978 0.000656757 0.00166148)
(0.138965 -0.00178675 0.00247127)
(0.142115 -0.00365152 0.00555702)
(0.148011 -0.00322841 0.00808544)
(0.151498 -0.0031183 0.00656576)
(0.148587 -0.00492553 0.00219936)
(0.140559 -0.00652201 0.000302971)
(0.132391 -0.00574699 0.00298522)
(0.127596 -0.00264798 0.00677018)
(0.126974 0.00134592 0.00773962)
(0.129761 0.00450042 0.0047193)
(0.133374 0.00439178 -0.00106758)
(0.134239 -0.000578709 -0.00679963)
(0.13355 -0.00827201 -0.00907737)
(0.138543 -0.0129222 -0.00610844)
(0.148983 -0.0113027 -0.000508659)
(0.152182 -0.00661011 0.00377466)
(0.142874 -0.00305824 0.00803548)
(0.130412 -0.00189878 0.0129557)
(0.124295 -0.00124646 0.0136565)
(0.125371 0.00144469 0.00805407)
(0.128562 0.0048788 0.000520521)
(0.130161 0.00533363 -0.00460896)
(0.130788 0.00285354 -0.00735859)
(0.132315 0.000960144 -0.00938508)
(0.134371 0.00158359 -0.00994588)
(0.135322 0.00232096 -0.00695072)
(0.134418 0.000149942 -0.00145534)
(0.134132 -0.00328247 0.00208721)
(0.135264 -0.00222935 0.00233504)
(0.142145 0.000472975 -0.0021738)
(0.151052 0.00238733 -0.00793731)
(0.153964 0.000974359 -0.0140588)
(0.151443 -0.00192407 -0.0181323)
(0.151598 -0.0047923 -0.0186131)
(0.156334 -0.00812563 -0.0174251)
(0.158855 -0.0113197 -0.0156351)
(0.155065 -0.0113501 -0.0112051)
(0.148992 -0.006673 -0.00456706)
(0.144619 -0.000565711 0.000538949)
(0.142157 0.00211854 0.00273067)
(0.141373 0.000435956 0.00391573)
(0.142894 -0.00246526 0.00567738)
(0.146664 -0.00347702 0.00754245)
(0.149746 -0.00337219 0.00755459)
(0.148368 -0.00374984 0.00453588)
(0.141874 -0.00395798 0.000645572)
(0.133441 -0.00322527 -0.00051197)
(0.127745 -0.0020563 0.00107672)
(0.127415 -0.000447995 0.00219644)
(0.131745 0.00181685 0.000579637)
(0.137115 0.0033012 -0.00340717)
(0.139494 0.00153629 -0.00748777)
(0.139197 -0.00436826 -0.00875998)
(0.141557 -0.0111601 -0.00560883)
(0.148968 -0.0128892 -6.6872e-05)
(0.153148 -0.00841681 0.00417481)
(0.146632 -0.00277082 0.00776052)
(0.135339 8.35702e-05 0.0119331)
(0.128215 0.00110682 0.0127517)
(0.126931 0.00319707 0.00818968)
(0.127358 0.00592314 0.00263921)
(0.126361 0.00598206 -3.22088e-05)
(0.12542 0.00300201 -0.00129489)
(0.127119 0.000270136 -0.00366056)
(0.131621 0.000329683 -0.00551543)
(0.136014 0.00161437 -0.00348616)
(0.136989 0.000942271 0.00142833)
(0.134916 -0.00157846 0.00409776)
(0.133453 0.000446449 0.00468933)
(0.136857 0.00157788 0.000537838)
(0.144869 0.00260774 -0.00467214)
(0.152219 0.00205618 -0.00978272)
(0.155221 0.000637931 -0.0135857)
(0.157558 -0.00126454 -0.0150315)
(0.162633 -0.00470025 -0.0153962)
(0.165818 -0.008798 -0.015824)
(0.161883 -0.00990026 -0.0140247)
(0.153791 -0.00611739 -0.00834067)
(0.147271 -0.000283236 -0.00183628)
(0.14398 0.00295776 0.00233869)
(0.143056 0.00205819 0.00449662)
(0.143873 -0.000677064 0.00589186)
(0.14571 -0.00240199 0.00684659)
(0.146399 -0.00305393 0.00711789)
(0.144241 -0.00338564 0.00568602)
(0.140141 -0.00276706 0.00198087)
(0.135959 -0.00119351 -0.00155758)
(0.133576 -0.000446604 -0.00199375)
(0.134038 -0.000962693 -0.000227709)
(0.136872 -0.000799072 0.000359659)
(0.139783 0.000883834 -0.00165122)
(0.140247 0.00172726 -0.0043187)
(0.139446 -0.00131578 -0.00494436)
(0.141036 -0.00770419 -0.00277109)
(0.146611 -0.0119931 0.0011183)
(0.151699 -0.00960353 0.00456493)
(0.14955 -0.00325133 0.00736369)
(0.141658 0.00174366 0.0103884)
(0.134138 0.00424561 0.0113063)
(0.128969 0.00583368 0.0084423)
(0.125032 0.0069619 0.00477326)
(0.12227 0.00595714 0.00331974)
(0.122083 0.00226596 0.00315533)
(0.124878 -0.00171787 0.00173665)
(0.129754 -0.00307498 -0.000401858)
(0.134611 -0.00158258 -0.000259426)
(0.136431 0.000158327 0.00294133)
(0.134794 0.000493221 0.00565746)
(0.133153 0.00404116 0.00656765)
(0.13541 0.00492702 0.00391879)
(0.141037 0.00442312 -0.000210648)
(0.147825 0.00283226 -0.00497016)
(0.153757 0.00196699 -0.0091521)
(0.159658 0.00139233 -0.0113704)
(0.166247 -0.00123067 -0.0122138)
(0.169798 -0.00544597 -0.0136374)
(0.166376 -0.007248 -0.014592)
(0.158382 -0.00426601 -0.0117054)
(0.151048 0.000764537 -0.00545531)
(0.146484 0.00346673 0.00017841)
(0.144082 0.00265672 0.00342592)
(0.143085 0.000581824 0.00519735)
(0.142977 -0.000672043 0.00621588)
(0.14239 -0.00108768 0.00655565)
(0.14043 -0.00151211 0.00559717)
(0.138555 -0.00122834 0.0026877)
(0.138645 -3.17312e-05 -0.000728617)
(0.140881 -0.000129953 -0.0018831)
(0.143141 -0.00247943 -0.000377306)
(0.142846 -0.00397041 0.00132763)
(0.140213 -0.00191867 0.0013108)
(0.137689 0.00120768 0.000885663)
(0.137788 0.000776208 0.00184308)
(0.141013 -0.00444163 0.00365917)
(0.146061 -0.0101836 0.00532556)
(0.150281 -0.0101884 0.00613758)
(0.149606 -0.00406244 0.00698873)
(0.143871 0.00271796 0.00877167)
(0.136582 0.00634177 0.00931875)
(0.129479 0.00714556 0.00740245)
(0.123523 0.00706763 0.0056604)
(0.120632 0.00626435 0.00631966)
(0.121561 0.00377063 0.00767073)
(0.125088 0.000151838 0.00692898)
(0.129544 -0.00237229 0.00465045)
(0.133329 -0.00200545 0.00358765)
(0.134811 0.000284678 0.00489524)
(0.133908 0.00248923 0.00667255)
(0.136708 0.00603671 0.0072208)
(0.137212 0.00713867 0.00651151)
(0.140201 0.00617352 0.00332531)
(0.144748 0.00298828 -0.00132056)
(0.150276 3.50208e-05 -0.00548099)
(0.157212 -0.000679957 -0.00791976)
(0.164483 -0.000277404 -0.00931185)
(0.168322 -0.00113326 -0.0110926)
(0.166538 -0.00257923 -0.0130243)
(0.161694 -0.0016682 -0.0127696)
(0.157499 0.00143264 -0.00909694)
(0.154309 0.00346823 -0.00414025)
(0.150646 0.00308493 -0.00040942)
(0.146233 0.0016471 0.00183438)
(0.142274 0.000294717 0.00338964)
(0.139855 -0.000681433 0.00450298)
(0.1391 -0.00117543 0.00504161)
(0.140612 -0.000829029 0.00452556)
(0.145284 0.00011475 0.00264638)
(0.151383 -9.37108e-05 0.000330189)
(0.154257 -0.00242769 3.70088e-05)
(0.15109 -0.00426282 0.00307643)
(0.144561 -0.00255803 0.0070959)
(0.139862 0.00133369 0.0083542)
(0.139512 0.00318128 0.00586254)
(0.142345 0.000181932 0.00274485)
(0.146372 -0.00592388 0.00272288)
(0.149674 -0.00839628 0.00456786)
(0.148975 -0.00349752 0.00516465)
(0.143193 0.00428972 0.00565226)
(0.135237 0.00902594 0.00661452)
(0.127974 0.00979869 0.00682373)
(0.123263 0.00874821 0.00638829)
(0.121959 0.00728287 0.00629191)
(0.123408 0.00526948 0.00651736)
(0.126252 0.00269399 0.00621036)
(0.129771 0.000619346 0.00515297)
(0.133737 0.000478196 0.0043027)
(0.136896 0.00213389 0.00469233)
(0.137574 0.00417962 0.00609409)
(0.136364 0.00558885 0.00612676)
(0.136477 0.00662548 0.00679617)
(0.139201 0.00603038 0.00577928)
(0.143659 0.00283513 0.00237605)
(0.148421 -0.00155433 -0.00236344)
(0.15363 -0.00418357 -0.00630159)
(0.159864 -0.00398 -0.00828337)
(0.165161 -0.00244642 -0.0091086)
(0.166143 -0.00102805 -0.00999994)
(0.162594 0.000608462 -0.010539)
(0.158283 0.0027398 -0.00937896)
(0.155955 0.00416475 -0.00662474)
(0.154817 0.00412996 -0.00375094)
(0.152946 0.00339655 -0.00175289)
(0.149593 0.00238625 -0.000347832)
(0.145616 0.000226645 0.00109345)
(0.142507 -0.00315334 0.00293347)
(0.142219 -0.0062258 0.00472039)
(0.146225 -0.00773 0.00522261)
(0.152652 -0.00771348 0.0037625)
(0.156274 -0.00686682 0.00202535)
(0.153926 -0.00539361 0.00299189)
(0.148055 -0.00235464 0.00630004)
(0.143159 0.00248713 0.00738223)
(0.140753 0.00650801 0.00353425)
(0.140125 0.00590666 -0.00212026)
(0.141501 0.000144748 -0.00386415)
(0.144666 -0.00564431 -0.00082469)
(0.146395 -0.00487932 0.00249601)
(0.14362 0.00228249 0.00399784)
(0.13794 0.00941037 0.0049997)
(0.133317 0.0127614 0.00526928)
(0.131662 0.0129283 0.00389906)
(0.132176 0.0113087 0.00163463)
(0.133215 0.00866394 0.000144221)
(0.133932 0.00565599 0.000263951)
(0.134698 0.00341604 0.00166241)
(0.136101 0.00282318 0.00319974)
(0.137465 0.003475 0.00422792)
(0.13745 0.00441123 0.00506166)
(0.136348 0.00436463 0.00857217)
(0.135726 0.00254087 0.0110168)
(0.138509 0.000297917 0.011644)
(0.144272 -0.00218179 0.00920197)
(0.151012 -0.00423898 0.00404218)
(0.156065 -0.00482368 -0.00188766)
(0.157771 -0.00338329 -0.00665021)
(0.156288 -0.0006465 -0.00929566)
(0.153008 0.00214919 -0.00982993)
(0.149465 0.00413378 -0.0089173)
(0.146766 0.00488188 -0.00764859)
(0.145476 0.0043738 -0.00688621)
(0.145941 0.00303638 -0.00638278)
(0.148268 0.00170287 -0.00534919)
(0.151593 0.000922421 -0.00387755)
(0.154171 0.00039523 -0.00259438)
(0.154457 -0.000717195 -0.00114393)
(0.152905 -0.00326389 0.00136583)
(0.15168 -0.00711541 0.00467503)
(0.152105 -0.0102196 0.00725587)
(0.153133 -0.0100101 0.00787957)
(0.152454 -0.00600053 0.0071046)
(0.149182 -0.000525712 0.00622698)
(0.145003 0.00368317 0.00468966)
(0.141841 0.00506769 0.00123591)
(0.140459 0.00326585 -0.0030556)
(0.141266 -0.00087095 -0.00462948)
(0.143757 -0.00513602 -0.00165431)
(0.145759 -0.0058044 0.0031597)
(0.145258 -0.00103684 0.00652371)
(0.14325 0.00591766 0.00740754)
(0.142511 0.0109992 0.00568652)
(0.143617 0.0130366 0.00135552)
(0.144921 0.0123616 -0.00398245)
(0.145071 0.00954334 -0.0080484)
(0.14409 0.00583177 -0.00917412)
(0.142998 0.00338806 -0.00690675)
(0.142368 0.00345393 -0.0025544)
(0.141328 0.00481642 0.00192582)
(0.138978 0.00530818 0.00552475)
(0.147809 0.00477024 0.00171017)
(0.149768 0.00181864 0.00588742)
(0.151442 -0.00116397 0.010017)
(0.152163 -0.00304192 0.0127222)
(0.153309 -0.00373006 0.0124259)
(0.156093 -0.00299815 0.00876814)