/*--------------------------------*- C++ -*----------------------------------*\
| =========                 |                                                 |
| \\      /  F ield         | OpenFOAM: The Open Source CFD Toolbox           |
|  \\    /   O peration     | Version:  2306                                  |
|   \\  /    A nd           | Website:  www.openfoam.com                      |
|    \\/     M anipulation  |                                                 |
\*---------------------------------------------------------------------------*/
FoamFile
{
    version     2.0;
    format      ascii;
    arch        "LSB;label=32;scalar=64";
    class       volScalarField;
    location    "6";
    object      nut;
}
// * * * * * * * * * * * * * * * * * * * * * * * * * * * * * * * * * * * * * //

dimensions      [0 2 -1 0 0 0 0];

internalField   nonuniform List<scalar> 
60000
(
7.3773e-05
8.02936e-05
8.61298e-05
8.9885e-05
9.03621e-05
8.77112e-05
8.38902e-05
8.06469e-05
7.82372e-05
7.6316e-05
7.41413e-05
7.04968e-05
6.49982e-05
5.88663e-05
5.40706e-05
5.16839e-05
5.13448e-05
5.20517e-05
5.29713e-05
5.41665e-05
5.62679e-05
5.91078e-05
6.20646e-05
6.50188e-05
6.8462e-05
7.28823e-05
7.82459e-05
8.28711e-05
8.44346e-05
8.21646e-05
7.70245e-05
7.05983e-05
6.47285e-05
6.04672e-05
5.78117e-05
5.69061e-05
5.76212e-05
5.96271e-05
6.29264e-05
6.76851e-05
7.32554e-05
7.96797e-05
8.56895e-05
9.04923e-05
9.25588e-05
9.08323e-05
8.67386e-05
8.2912e-05
8.04102e-05
7.87824e-05
7.70198e-05
7.39294e-05
6.92003e-05
6.36903e-05
5.86887e-05
5.51505e-05
5.32436e-05
5.24943e-05
5.25222e-05
5.33956e-05
5.52138e-05
5.76673e-05
6.05612e-05
6.40776e-05
6.86432e-05
7.41609e-05
8.01185e-05
8.49304e-05
8.66746e-05
8.46832e-05
7.99547e-05
7.44781e-05
6.96041e-05
6.51638e-05
6.093e-05
5.7853e-05
5.69497e-05
5.83929e-05
6.18601e-05
6.6962e-05
6.80283e-05
7.45126e-05
8.1198e-05
8.7855e-05
9.2745e-05
9.31885e-05
8.9205e-05
8.43244e-05
8.12129e-05
7.97685e-05
7.88548e-05
7.72663e-05
7.43526e-05
7.0074e-05
6.47019e-05
5.91244e-05
5.46164e-05
5.18258e-05
5.06691e-05
5.08406e-05
5.20369e-05
5.39641e-05
5.65713e-05
6.00358e-05
6.46227e-05
7.01776e-05
7.64337e-05
8.23766e-05
8.61167e-05
8.63326e-05
8.35595e-05
7.95762e-05
7.55857e-05
7.11677e-05
6.56039e-05
5.97404e-05
5.57747e-05
5.51316e-05
5.75356e-05
6.20298e-05
5.85384e-05
6.47492e-05
7.16959e-05
8.00146e-05
8.8463e-05
9.28441e-05
9.04323e-05
8.46352e-05
8.03947e-05
7.88725e-05
7.8916e-05
7.91434e-05
7.85784e-05
7.65239e-05
7.20531e-05
6.50448e-05
5.73168e-05
5.13082e-05
4.79928e-05
4.6836e-05
4.70496e-05
4.81346e-05
4.99116e-05
5.24561e-05
5.58545e-05
6.01445e-05
6.57106e-05
7.27526e-05
7.97348e-05
8.42092e-05
8.52298e-05
8.3692e-05
8.10679e-05
7.7625e-05
7.22786e-05
6.45007e-05
5.65415e-05
5.17597e-05
5.11899e-05
5.37607e-05
4.66418e-05
5.08297e-05
5.6209e-05
6.42189e-05
7.54812e-05
8.55292e-05
8.76651e-05
8.24754e-05
7.69232e-05
7.49132e-05
7.57475e-05
7.76234e-05
7.92554e-05
8.00323e-05
7.85622e-05
7.28655e-05
6.32299e-05
5.31339e-05
4.60277e-05
4.23572e-05
4.0932e-05
4.06899e-05
4.10241e-05
4.19257e-05
4.34914e-05
4.55219e-05
4.84575e-05
5.39599e-05
6.33699e-05
7.36294e-05
8.0765e-05
8.36573e-05
8.32675e-05
8.1442e-05
7.82232e-05
7.16715e-05
6.1629e-05
5.18665e-05
4.61452e-05
4.47537e-05
3.93887e-05
4.02535e-05
4.17003e-05
4.43045e-05
5.16049e-05
6.57339e-05
7.61699e-05
7.51949e-05
6.92011e-05
6.64892e-05
6.80387e-05
7.12578e-05
7.4263e-05
7.72381e-05
8.00624e-05
7.95962e-05
7.25334e-05
6.0082e-05
4.79472e-05
3.99884e-05
3.5829e-05
3.37841e-05
3.26751e-05
3.24808e-05
3.3483e-05
3.4922e-05
3.68363e-05
4.04822e-05
4.33361e-05
5.15106e-05
6.51193e-05
7.53163e-05
7.90165e-05
7.87802e-05
7.80838e-05
7.5989e-05
6.92873e-05
5.83901e-05
4.78299e-05
4.1247e-05
3.98379e-05
3.68086e-05
3.60541e-05
3.78472e-05
4.06322e-05
4.09079e-05
5.21715e-05
5.89666e-05
5.47735e-05
5.12631e-05
5.41007e-05
5.93287e-05
6.31072e-05
6.60666e-05
7.16572e-05
7.87087e-05
8.03861e-05
7.18537e-05
5.67714e-05
4.32874e-05
3.49428e-05
3.07271e-05
2.88422e-05
2.84773e-05
2.98352e-05
3.17614e-05
3.07628e-05
3.24226e-05
4.00889e-05
3.88587e-05
4.03396e-05
5.50718e-05
6.54931e-05
6.73363e-05
6.7594e-05
6.97294e-05
7.02356e-05
6.579e-05
5.73117e-05
4.75967e-05
5.00606e-05
3.91204e-05
3.2226e-05
2.93149e-05
3.63685e-05
4.04159e-05
3.25703e-05
3.81046e-05
3.71484e-05
2.98522e-05
3.22377e-05
4.14631e-05
4.70819e-05
4.71895e-05
4.99908e-05
6.22416e-05
7.67173e-05
8.11612e-05
7.0948e-05
5.40661e-05
4.01764e-05
3.25247e-05
2.98033e-05
2.97986e-05
3.17185e-05
3.54461e-05
3.76492e-05
3.00233e-05
2.6531e-05
3.78488e-05
3.43618e-05
3.22698e-05
4.2087e-05
4.06637e-05
3.52143e-05
3.91992e-05
5.01893e-05
5.88827e-05
6.15895e-05
5.89293e-05
5.77113e-05
4.9247e-05
3.58318e-05
2.55506e-05
2.08044e-05
3.24793e-05
3.46031e-05
2.57084e-05
3.00302e-05
2.12753e-05
1.40689e-05
2.05041e-05
2.97933e-05
3.01494e-05
2.29289e-05
2.75223e-05
5.01223e-05
7.40394e-05
8.06664e-05
6.92589e-05
5.14638e-05
3.80744e-05
3.2478e-05
3.25086e-05
3.54957e-05
4.01819e-05
4.56493e-05
4.57322e-05
3.03411e-05
2.30107e-05
3.2559e-05
2.42264e-05
1.77122e-05
2.16346e-05
2.35234e-05
2.58717e-05
2.56076e-05
3.27913e-05
4.52966e-05
5.49469e-05
4.58532e-05
5.27405e-05
4.46357e-05
3.05041e-05
2.14057e-05
1.94094e-05
3.02292e-05
2.81993e-05
2.60395e-05
3.03208e-05
1.45666e-05
1.4431e-05
1.36151e-05
2.02788e-05
1.73187e-05
9.29284e-06
1.7609e-05
4.26298e-05
7.08675e-05
7.77193e-05
6.52833e-05
4.73932e-05
3.63007e-05
3.42756e-05
3.77222e-05
4.46013e-05
5.19832e-05
5.57131e-05
4.73537e-05
2.42674e-05
2.12134e-05
2.35741e-05
1.54165e-05
2.6693e-05
2.94673e-05
2.84954e-05
3.08781e-05
2.96108e-05
2.95085e-05
3.50869e-05
2.88311e-05
3.98938e-05
4.84652e-05
3.8356e-05
2.66299e-05
2.33009e-05
2.20239e-05
2.86518e-05
2.59319e-05
2.84197e-05
2.83693e-05
7.15739e-06
1.70086e-05
8.64196e-06
1.91119e-05
1.4852e-05
1.37791e-05
2.19864e-05
3.89212e-05
6.51028e-05
7.08178e-05
5.81081e-05
4.24431e-05
3.38381e-05
3.34787e-05
4.09365e-05
5.25644e-05
6.09598e-05
5.7559e-05
3.7747e-05
1.63393e-05
1.98567e-05
1.90666e-05
2.50407e-05
2.91043e-05
2.27235e-05
1.48889e-05
1.69872e-05
2.42506e-05
2.94816e-05
2.6631e-05
2.31862e-05
4.05713e-05
4.45188e-05
3.38717e-05
2.90939e-05
2.78276e-05
2.33784e-05
2.79246e-05
2.40184e-05
2.32439e-05
1.90599e-05
4.14122e-06
1.67489e-05
9.16225e-06
1.79959e-05
1.19998e-05
1.88549e-05
2.54712e-05
3.30969e-05
5.42932e-05
5.7837e-05
4.58192e-05
2.9861e-05
2.13599e-05
2.80021e-05
3.88406e-05
5.4426e-05
6.05955e-05
4.85691e-05
2.59963e-05
1.81125e-05
1.8597e-05
1.91055e-05
2.6305e-05
3.25875e-05
3.13658e-05
2.2032e-05
1.45331e-05
2.24615e-05
2.73975e-05
2.00322e-05
2.5027e-05
4.13514e-05
3.97244e-05
3.38094e-05
3.40325e-05
2.8421e-05
2.26933e-05
2.45097e-05
1.74577e-05
1.64774e-05
1.11672e-05
8.24069e-06
1.55932e-05
1.11318e-05
1.56833e-05
1.22742e-05
2.0669e-05
2.44142e-05
2.09682e-05
2.88984e-05
2.9891e-05
2.69335e-05
2.21581e-05
2.27918e-05
2.43588e-05
3.37086e-05
5.15654e-05
5.20686e-05
3.61882e-05
2.33874e-05
1.92555e-05
1.54465e-05
1.88213e-05
2.86699e-05
3.80088e-05
3.91161e-05
3.35988e-05
2.75551e-05
2.95821e-05
2.57399e-05
1.29276e-05
2.71943e-05
3.87374e-05
3.80343e-05
3.87554e-05
3.58171e-05
2.67988e-05
2.25109e-05
1.93811e-05
1.35784e-05
1.33404e-05
8.27524e-06
1.22635e-05
1.40267e-05
1.1493e-05
1.60698e-05
1.45117e-05
2.295e-05
3.17151e-05
2.51642e-05
1.18447e-05
2.17465e-05
2.90396e-05
2.42173e-05
2.11263e-05
1.83719e-05
3.41306e-05
4.6121e-05
3.92663e-05
2.84306e-05
2.27281e-05
1.70278e-05
1.38779e-05
1.58866e-05
2.44814e-05
3.45248e-05
3.91644e-05
3.61767e-05
2.18597e-05
2.44998e-05
2.27082e-05
1.03073e-05
2.7754e-05
3.74253e-05
4.09107e-05
4.0588e-05
3.37107e-05
2.83235e-05
2.39991e-05
1.69372e-05
1.34552e-05
1.33296e-05
1.17069e-05
1.33071e-05
1.09308e-05
1.25325e-05
1.94159e-05
2.05236e-05
2.32783e-05
2.24436e-05
1.67827e-05
1.994e-05
2.7839e-05
2.97972e-05
2.20683e-05
1.66317e-05
2.07713e-05
3.71146e-05
3.7425e-05
2.95072e-05
2.41702e-05
1.72302e-05
1.19699e-05
1.37048e-05
1.24463e-05
1.26222e-05
2.00377e-05
2.38742e-05
1.66774e-05
2.20365e-05
3.0221e-05
2.37473e-05
1.54828e-05
3.07172e-05
3.96482e-05
4.14255e-05
3.66585e-05
3.28978e-05
2.90637e-05
2.06558e-05
1.27316e-05
1.38507e-05
1.49765e-05
1.24813e-05
1.07509e-05
1.22678e-05
1.71787e-05
2.12441e-05
1.91987e-05
1.60947e-05
2.0013e-05
2.10167e-05
2.14998e-05
2.81662e-05
2.66026e-05
1.65233e-05
1.32141e-05
2.96714e-05
3.44847e-05
2.94259e-05
2.32712e-05
1.69173e-05
1.8647e-05
2.11014e-05
2.02861e-05
1.89035e-05
1.65596e-05
1.4392e-05
1.84486e-05
2.35959e-05
2.90825e-05
3.28514e-05
2.76968e-05
2.43318e-05
3.0651e-05
3.58792e-05
3.3827e-05
3.19781e-05
3.19884e-05
2.48701e-05
1.39891e-05
7.66655e-06
1.02514e-05
1.09489e-05
1.13573e-05
1.40519e-05
1.35353e-05
1.33346e-05
1.81611e-05
2.23012e-05
2.35066e-05
1.96877e-05
1.60249e-05
2.42102e-05
3.08758e-05
2.22696e-05
5.87598e-06
1.81387e-05
2.89239e-05
3.0145e-05
2.45804e-05
1.99799e-05
2.03919e-05
1.87479e-05
1.73368e-05
1.66681e-05
1.40993e-05
1.28607e-05
2.24347e-05
2.85719e-05
2.89024e-05
2.85143e-05
2.87863e-05
2.98403e-05
3.0218e-05
2.72275e-05
2.35833e-05
2.36511e-05
2.84071e-05
2.96011e-05
2.43613e-05
1.5445e-05
7.74042e-06
7.34731e-06
9.86601e-06
1.32918e-05
1.5839e-05
1.888e-05
2.27454e-05
2.45777e-05
2.41345e-05
2.15381e-05
1.63379e-05
1.89263e-05
2.9886e-05
2.84322e-05
1.27153e-05
9.89533e-06
1.97516e-05
2.55315e-05
2.70417e-05
2.39738e-05
1.64103e-05
1.28255e-05
1.91147e-05
1.96491e-05
1.18607e-05
1.05397e-05
1.73568e-05
2.2333e-05
2.21483e-05
2.16084e-05
2.20372e-05
2.31973e-05
2.76434e-05
2.72275e-05
2.00169e-05
1.64743e-05
1.84251e-05
2.15567e-05
2.38079e-05
2.44724e-05
2.32707e-05
1.84207e-05
1.06375e-05
8.6562e-06
1.9514e-05
2.915e-05
2.92856e-05
2.02498e-05
2.02497e-05
2.63534e-05
2.11592e-05
1.50728e-05
3.22725e-05
4.03903e-05
2.65296e-05
1.00415e-05
2.20621e-05
2.90147e-05
2.96183e-05
2.76655e-05
2.73207e-05
2.73102e-05
2.49702e-05
2.36064e-05
2.17096e-05
1.62826e-05
1.29368e-05
1.85407e-05
2.19171e-05
2.19107e-05
1.9424e-05
1.71122e-05
1.79751e-05
1.96007e-05
1.89259e-05
1.80564e-05
1.81153e-05
1.50354e-05
1.38948e-05
1.56463e-05
1.79503e-05
2.2372e-05
2.34634e-05
1.93272e-05
1.65449e-05
2.2208e-05
2.82575e-05
2.50161e-05
1.91081e-05
2.3577e-05
2.5329e-05
1.87279e-05
1.32811e-05
2.27742e-05
2.26644e-05
8.74026e-06
2.1864e-05
3.37874e-05
3.79731e-05
4.38751e-05
4.84863e-05
4.62915e-05
3.77732e-05
2.73554e-05
1.8979e-05
1.30416e-05
2.29397e-05
2.25703e-05
2.40996e-05
2.56131e-05
2.30875e-05
1.93851e-05
1.64964e-05
1.17628e-05
1.19299e-05
1.83251e-05
2.01065e-05
1.58849e-05
1.21836e-05
1.5227e-05
1.87004e-05
1.9272e-05
1.85129e-05
1.86917e-05
1.84452e-05
1.42539e-05
7.51644e-06
6.18132e-06
1.00013e-05
1.81115e-05
2.4653e-05
2.64561e-05
2.18795e-05
1.02698e-05
9.94909e-06
7.10275e-06
1.72328e-05
3.2693e-05
4.13705e-05
4.61657e-05
4.5625e-05
4.02039e-05
3.49236e-05
3.16499e-05
2.88873e-05
2.53554e-05
3.05684e-05
2.94503e-05
2.8086e-05
2.54055e-05
2.08872e-05
1.46218e-05
1.44213e-05
1.7944e-05
1.92628e-05
2.17106e-05
2.34659e-05
2.10907e-05
1.61082e-05
1.14949e-05
7.79821e-06
8.23631e-06
1.18785e-05
1.22162e-05
1.06915e-05
1.19605e-05
1.73101e-05
1.91985e-05
1.67717e-05
2.06429e-05
2.817e-05
3.29575e-05
3.19051e-05
2.35943e-05
1.36176e-05
1.12561e-05
1.74129e-05
2.97835e-05
3.73979e-05
3.69836e-05
3.07515e-05
2.393e-05
2.14679e-05
2.39355e-05
2.86843e-05
3.10754e-05
2.39337e-05
2.12324e-05
1.64673e-05
1.28715e-05
1.18193e-05
1.24081e-05
1.30835e-05
1.28828e-05
1.14608e-05
1.09127e-05
1.33442e-05
1.41856e-05
1.38499e-05
1.70396e-05
2.03001e-05
1.94193e-05
1.53695e-05
1.26032e-05
1.35113e-05
1.41672e-05
1.26553e-05
1.57525e-05
1.92187e-05
1.84253e-05
2.2932e-05
3.01861e-05
3.19217e-05
2.71227e-05
1.90125e-05
1.41234e-05
1.63448e-05
2.30755e-05
2.69513e-05
2.45298e-05
2.01642e-05
1.79227e-05
1.54084e-05
1.15498e-05
1.396e-05
2.12096e-05
1.13011e-05
1.14525e-05
1.23854e-05
1.30014e-05
1.29723e-05
1.18103e-05
9.28813e-06
8.25354e-06
8.34527e-06
1.01162e-05
1.46995e-05
1.72085e-05
1.89202e-05
2.29072e-05
2.38113e-05
1.89964e-05
1.35317e-05
1.22817e-05
1.33171e-05
1.22532e-05
7.11374e-06
7.87553e-06
1.33115e-05
1.67853e-05
1.93406e-05
1.92641e-05
1.54826e-05
9.98124e-06
8.04888e-06
9.38822e-06
1.07733e-05
1.36545e-05
1.5614e-05
1.62921e-05
1.66386e-05
1.51607e-05
1.1535e-05
8.89267e-06
9.72749e-06
1.11262e-05
9.70911e-06
5.54785e-06
1.0607e-05
1.37256e-05
1.43458e-05
1.44929e-05
1.22733e-05
8.82275e-06
8.31449e-06
1.07765e-05
1.39511e-05
1.48914e-05
1.22031e-05
8.76269e-06
9.21314e-06
1.02418e-05
9.32573e-06
9.30543e-06
1.47013e-05
2.17568e-05
2.46426e-05
2.16673e-05
1.80277e-05
1.83551e-05
2.05981e-05
2.45068e-05
2.73051e-05
2.52253e-05
1.74086e-05
7.32551e-06
4.20461e-06
9.23094e-06
1.25153e-05
1.62371e-05
1.98294e-05
2.1776e-05
1.98097e-05
1.49759e-05
1.30656e-05
1.35725e-05
5.925e-05
6.52419e-05
7.07794e-05
7.49528e-05
7.78989e-05
7.99954e-05
8.11597e-05
8.12273e-05
8.05516e-05
7.98665e-05
7.91583e-05
7.74182e-05
7.41295e-05
7.01231e-05
6.68045e-05
6.47264e-05
6.35084e-05
6.25902e-05
6.18505e-05
6.18832e-05
6.33486e-05
6.60597e-05
6.89752e-05
7.16e-05
7.45696e-05
7.86491e-05
8.36944e-05
8.81429e-05
8.98337e-05
8.78798e-05
8.34711e-05
7.84746e-05
7.36915e-05
6.84827e-05
6.24509e-05
5.71312e-05
5.39743e-05
5.25959e-05
5.26344e-05
5.46991e-05
5.87833e-05
6.41597e-05
6.91929e-05
7.37388e-05
7.77351e-05
8.09105e-05
8.29316e-05
8.37301e-05
8.35569e-05
8.2929e-05
8.20351e-05
8.04239e-05
7.78002e-05
7.45169e-05
7.13813e-05
6.88304e-05
6.66042e-05
6.4467e-05
6.28338e-05
6.24632e-05
6.35571e-05
6.55819e-05
6.78741e-05
7.04978e-05
7.43146e-05
7.98632e-05
8.63155e-05
9.13576e-05
9.31169e-05
9.15495e-05
8.7563e-05
8.25845e-05
7.82413e-05
7.41261e-05
6.84249e-05
6.12475e-05
5.50917e-05
5.17881e-05
5.15508e-05
5.41509e-05
5.44383e-05
5.94077e-05
6.46945e-05
7.01244e-05
7.52981e-05
7.95436e-05
8.24278e-05
8.40103e-05
8.44244e-05
8.40114e-05
8.33471e-05
8.25929e-05
8.137e-05
7.91689e-05
7.61815e-05
7.2976e-05
6.96884e-05
6.63036e-05
6.33767e-05
6.17459e-05
6.16448e-05
6.25743e-05
6.40731e-05
6.6209e-05
6.98259e-05
7.55342e-05
8.27318e-05
8.90763e-05
9.26359e-05
9.33676e-05
9.13228e-05
8.71076e-05
8.327e-05
8.07338e-05
7.66327e-05
6.84334e-05
5.85206e-05
5.15943e-05
4.92365e-05
5.06275e-05
4.75829e-05
5.17687e-05
5.73816e-05
6.37404e-05
7.0136e-05
7.55506e-05
7.92769e-05
8.15502e-05
8.26212e-05
8.26311e-05
8.23793e-05
8.26531e-05
8.31538e-05
8.26536e-05
8.05423e-05
7.71858e-05
7.30942e-05
6.85135e-05
6.39663e-05
6.03875e-05
5.83215e-05
5.75151e-05
5.75815e-05
5.83937e-05
6.04786e-05
6.4726e-05
7.14023e-05
7.89472e-05
8.52057e-05
8.972e-05
9.16433e-05
8.9783e-05
8.66297e-05
8.56072e-05
8.45581e-05
7.81349e-05
6.58918e-05
5.40691e-05
4.73646e-05
4.56735e-05
4.03788e-05
4.22601e-05
4.71423e-05
5.36764e-05
6.09007e-05
6.75179e-05
7.21581e-05
7.48829e-05
7.64983e-05
7.71732e-05
7.752e-05
7.86018e-05
8.05153e-05
8.19807e-05
8.18335e-05
7.97429e-05
7.59278e-05
7.07978e-05
6.4859e-05
5.91376e-05
5.45888e-05
5.13523e-05
4.91286e-05
4.76621e-05
4.70766e-05
4.83975e-05
5.25414e-05
5.93048e-05
6.72482e-05
7.58184e-05
8.36812e-05
8.70935e-05
8.5796e-05
8.55865e-05
8.79008e-05
8.6508e-05
7.65516e-05
6.18795e-05
4.96506e-05
4.25149e-05
3.77722e-05
3.44844e-05
3.59138e-05
4.02506e-05
4.66484e-05
5.39667e-05
5.98428e-05
6.28923e-05
6.45346e-05
6.59453e-05
6.73189e-05
6.90264e-05
7.14352e-05
7.39564e-05
7.61385e-05
7.72458e-05
7.60303e-05
7.21307e-05
6.59924e-05
5.88025e-05
5.19996e-05
4.61735e-05
4.13278e-05
3.75864e-05
3.54257e-05
3.49824e-05
3.65671e-05
3.99445e-05
4.35886e-05
5.01413e-05
6.26532e-05
7.44377e-05
7.80991e-05
7.82317e-05
8.23952e-05
8.73704e-05
8.48539e-05
7.36636e-05
5.97321e-05
4.70425e-05
4.67556e-05
3.37348e-05
2.92702e-05
2.9333e-05
3.14571e-05
3.62893e-05
4.25261e-05
4.58861e-05
4.62815e-05
4.73902e-05
5.03623e-05
5.33605e-05
5.55055e-05
5.69563e-05
5.95097e-05
6.44813e-05
6.9043e-05
6.99425e-05
6.64112e-05
5.95704e-05
5.15087e-05
4.38981e-05
3.7525e-05
3.29259e-05
3.1067e-05
3.1383e-05
3.10318e-05
3.11993e-05
3.15596e-05
2.96294e-05
3.36765e-05
4.95151e-05
6.13357e-05
6.28511e-05
6.57161e-05
7.49383e-05
8.19988e-05
8.06801e-05
7.33694e-05
6.23625e-05
6.68191e-05
4.50365e-05
2.95895e-05
2.63282e-05
2.68392e-05
2.65494e-05
2.66274e-05
3.01356e-05
2.97724e-05
2.62571e-05
2.73087e-05
3.27421e-05
3.59586e-05
3.45639e-05
3.24241e-05
3.75081e-05
4.92532e-05
5.94446e-05
6.3482e-05
6.06266e-05
5.29078e-05
4.43065e-05
3.76881e-05
3.38656e-05
3.39727e-05
3.82423e-05
4.10249e-05
3.61662e-05
2.97516e-05
2.39962e-05
2.11043e-05
2.56566e-05
3.92529e-05
4.22515e-05
3.74154e-05
4.36705e-05
5.93531e-05
7.13649e-05
7.68182e-05
7.74609e-05
8.1874e-05
6.62192e-05
3.92159e-05
2.60436e-05
2.74306e-05
3.04325e-05
2.62659e-05
2.00755e-05
2.25404e-05
1.93008e-05
1.22073e-05
1.3212e-05
1.85254e-05
2.09594e-05
1.47376e-05
1.21375e-05
1.99577e-05
3.69841e-05
5.28874e-05
5.93667e-05
5.5324e-05
4.60284e-05
3.86009e-05
3.46841e-05
3.34345e-05
3.68661e-05
4.42216e-05
4.50092e-05
3.59975e-05
2.69897e-05
1.8413e-05
1.90476e-05
2.21175e-05
2.54306e-05
1.55777e-05
1.50928e-05
1.96087e-05
3.5015e-05
5.60826e-05
7.45976e-05
7.45111e-05
8.15764e-05
5.93317e-05
3.2595e-05
2.38313e-05
2.97632e-05
3.41495e-05
2.61358e-05
1.68292e-05
2.01011e-05
1.33706e-05
1.04651e-05
1.59942e-05
1.63363e-05
1.6581e-05
1.26844e-05
1.99604e-05
1.76798e-05
2.89284e-05
4.87175e-05
5.50634e-05
4.79278e-05
3.84356e-05
3.25601e-05
2.76517e-05
2.76959e-05
3.622e-05
4.51482e-05
4.06449e-05
3.09444e-05
2.28705e-05
1.56349e-05
1.6297e-05
1.56821e-05
2.02629e-05
1.73902e-05
2.42422e-05
2.28163e-05
1.86354e-05
4.40424e-05
4.18598e-05
7.50441e-05
7.39386e-05
4.92903e-05
2.58449e-05
2.18244e-05
3.13341e-05
3.52557e-05
2.49642e-05
1.53891e-05
1.70358e-05
1.09822e-05
1.88043e-05
2.14716e-05
1.5275e-05
1.49704e-05
1.86713e-05
2.90416e-05
2.23624e-05
2.31832e-05
4.13679e-05
4.44195e-05
3.61613e-05
2.77746e-05
2.00104e-05
1.76769e-05
2.6519e-05
3.69003e-05
4.04698e-05
3.11361e-05
2.44418e-05
1.54352e-05
1.0764e-05
1.60308e-05
2.39247e-05
3.09481e-05
2.19035e-05
2.12012e-05
2.9752e-05
2.03474e-05
1.75699e-05
4.74863e-05
7.0839e-05
6.07993e-05
3.84624e-05
2.09917e-05
2.22865e-05
3.12896e-05
3.24741e-05
2.24568e-05
1.68949e-05
1.61547e-05
1.32365e-05
1.92899e-05
2.03606e-05
1.80342e-05
1.62941e-05
2.08062e-05
3.06564e-05
2.35828e-05
1.53968e-05
2.69424e-05
2.79346e-05
2.30755e-05
1.74094e-05
1.33199e-05
2.12747e-05
2.63881e-05
3.23499e-05
2.82779e-05
2.19917e-05
1.6192e-05
6.33477e-06
1.26971e-05
2.01447e-05
2.8525e-05
3.70237e-05
2.8552e-05
2.08446e-05
3.26384e-05
2.8178e-05
1.50204e-05
5.35882e-05
6.22552e-05
4.76978e-05
2.9603e-05
2.08751e-05
2.36293e-05
2.87626e-05
2.68726e-05
2.02766e-05
1.80375e-05
1.44087e-05
1.2882e-05
1.89089e-05
2.19639e-05
2.04614e-05
1.55455e-05
1.84536e-05
2.68561e-05
2.33032e-05
1.13952e-05
8.27993e-06
1.62787e-05
2.06004e-05
1.584e-05
1.33829e-05
1.89534e-05
2.16233e-05
2.48464e-05
1.73802e-05
1.62903e-05
1.21385e-05
9.45323e-06
1.57818e-05
1.92108e-05
2.20351e-05
3.20026e-05
2.80171e-05
2.81089e-05
2.89694e-05
1.48091e-05
2.87264e-05
5.61186e-05
5.47173e-05
4.00516e-05
2.81407e-05
2.39189e-05
2.42078e-05
2.43588e-05
2.07328e-05
1.88529e-05
1.76686e-05
1.50355e-05
1.7757e-05
2.25096e-05
2.26452e-05
1.81977e-05
1.06083e-05
1.61712e-05
2.62792e-05
2.3027e-05
1.60686e-05
1.83227e-05
1.93292e-05
2.0046e-05
1.36288e-05
1.25147e-05
1.442e-05
2.30507e-05
1.78235e-05
1.44346e-05
1.60318e-05
1.60695e-05
1.17219e-05
1.22989e-05
1.21121e-05
1.53233e-05
2.35928e-05
2.26435e-05
2.01012e-05
2.375e-05
7.41895e-06
4.35362e-05
5.96493e-05
5.18884e-05
3.8723e-05
3.15355e-05
2.85145e-05
2.65275e-05
2.30902e-05
2.09e-05
2.14094e-05
2.10088e-05
2.06497e-05
2.24088e-05
2.21055e-05
1.96091e-05
1.65701e-05
1.52956e-05
1.63523e-05
1.75947e-05
2.33744e-05
2.41684e-05
1.51009e-05
1.2618e-05
1.48792e-05
1.26795e-05
1.18688e-05
2.04518e-05
2.20335e-05
1.58328e-05
1.57722e-05
1.67032e-05
1.44154e-05
1.09291e-05
9.29056e-06
1.00126e-05
1.64422e-05
1.7923e-05
2.17589e-05
2.55226e-05
2.03363e-05
1.93311e-05
5.46754e-05
6.67098e-05
5.8917e-05
4.80659e-05
4.00914e-05
3.41109e-05
2.83272e-05
2.34732e-05
2.3817e-05
2.6472e-05
2.62938e-05
2.29641e-05
1.99632e-05
1.93289e-05
1.81035e-05
1.54088e-05
1.56308e-05
1.96756e-05
2.46596e-05
2.14367e-05
1.0381e-05
1.06314e-05
1.59339e-05
1.4419e-05
1.28392e-05
1.6518e-05
2.28478e-05
1.87705e-05
1.48134e-05
1.28341e-05
1.27981e-05
1.43043e-05
1.79772e-05
1.52316e-05
1.08929e-05
2.02866e-05
2.41877e-05
2.40147e-05
2.64877e-05
2.06122e-05
2.28966e-05
5.34311e-05
7.05898e-05
6.98108e-05
5.79007e-05
4.2521e-05
3.05174e-05
2.32483e-05
2.08449e-05
2.23258e-05
2.52022e-05
2.42541e-05
2.10246e-05
2.15129e-05
2.05451e-05
1.52882e-05
1.17302e-05
1.45837e-05
1.70167e-05
1.36646e-05
9.39315e-06
1.44978e-05
2.09109e-05
2.09485e-05
1.61377e-05
1.44742e-05
1.92517e-05
2.18854e-05
1.82425e-05
1.51794e-05
1.45425e-05
1.6125e-05
1.78115e-05
1.94873e-05
1.81019e-05
2.04466e-05
3.02854e-05
2.98249e-05
2.50438e-05
2.17295e-05
2.26057e-05
2.37767e-05
3.82027e-05
5.74337e-05
6.36067e-05
5.24188e-05
3.41053e-05
2.01406e-05
1.56743e-05
1.72204e-05
1.66445e-05
1.34415e-05
1.84632e-05
2.54319e-05
2.47558e-05
1.93002e-05
1.79841e-05
1.85108e-05
1.3625e-05
7.60659e-06
8.36041e-06
1.44511e-05
2.40756e-05
3.03335e-05
2.68254e-05
1.90843e-05
1.67567e-05
1.92283e-05
2.31296e-05
2.46248e-05
2.09137e-05
1.60085e-05
1.49824e-05
1.46266e-05
1.73265e-05
2.51439e-05
2.75643e-05
2.57527e-05
2.24422e-05
1.70298e-05
1.49686e-05
2.32564e-05
2.7062e-05
2.11124e-05
3.46789e-05
4.97351e-05
4.66705e-05
3.3788e-05
2.04184e-05
9.24248e-06
5.56396e-06
1.07789e-05
1.32977e-05
1.56921e-05
2.27616e-05
3.06325e-05
3.32949e-05
2.82822e-05
1.89141e-05
1.43474e-05
1.54869e-05
1.58419e-05
1.55625e-05
2.1693e-05
2.5834e-05
2.12487e-05
1.96094e-05
2.29992e-05
2.88193e-05
3.49565e-05
3.51529e-05
2.79681e-05
1.83202e-05
1.52615e-05
2.06134e-05
2.63485e-05
1.5386e-05
1.7584e-05
2.20044e-05
2.27502e-05
1.87977e-05
1.61686e-05
2.03345e-05
2.48504e-05
2.1601e-05
1.78541e-05
2.3334e-05
2.38093e-05
1.92974e-05
1.82118e-05
1.77445e-05
1.48793e-05
1.58632e-05
1.97113e-05
2.4676e-05
3.33483e-05
3.77269e-05
3.07486e-05
1.62926e-05
1.05162e-05
1.61324e-05
2.04283e-05
2.25258e-05
1.7481e-05
1.2217e-05
1.43236e-05
1.94149e-05
2.69452e-05
3.20478e-05
3.46309e-05
3.51705e-05
3.37679e-05
2.96715e-05
2.16744e-05
1.57948e-05
1.5704e-05
1.37057e-05
1.54373e-05
1.88971e-05
2.07698e-05
1.9232e-05
1.66392e-05
1.60105e-05
1.59697e-05
1.44784e-05
1.4665e-05
1.68084e-05
1.48954e-05
9.87992e-06
1.04009e-05
1.38613e-05
1.56865e-05
1.89886e-05
2.50914e-05
2.90564e-05
2.73145e-05
2.31102e-05
1.99159e-05
1.23467e-05
6.12773e-06
1.4313e-05
2.33375e-05
2.87549e-05
2.73995e-05
2.15831e-05
1.84468e-05
1.87514e-05
2.34722e-05
2.60575e-05
2.35547e-05
2.338e-05
2.97157e-05
3.49111e-05
3.35622e-05
2.6719e-05
1.85469e-05
2.56683e-05
2.23475e-05
1.92514e-05
1.55802e-05
1.27582e-05
1.46477e-05
1.46199e-05
1.11442e-05
1.40934e-05
2.06341e-05
2.46181e-05
2.38216e-05
1.91148e-05
1.32339e-05
8.07006e-06
8.89962e-06
1.31031e-05
1.52808e-05
1.78903e-05
2.02168e-05
1.67042e-05
1.09394e-05
9.49405e-06
5.77761e-06
8.61693e-06
1.91486e-05
2.69419e-05
2.94523e-05
2.59371e-05
2.09837e-05
1.99342e-05
2.14569e-05
2.10939e-05
1.67129e-05
1.47083e-05
1.86674e-05
2.31918e-05
2.75212e-05
3.01046e-05
2.89269e-05
1.76052e-05
1.48318e-05
1.22356e-05
1.20212e-05
1.12006e-05
9.14193e-06
1.04653e-05
1.36476e-05
1.4879e-05
1.6486e-05
1.96224e-05
2.24681e-05
2.30622e-05
2.15283e-05
2.07439e-05
2.15753e-05
2.3734e-05
2.57428e-05
2.42968e-05
1.99123e-05
1.67067e-05
1.34257e-05
8.45192e-06
6.18994e-06
8.10193e-06
8.99556e-06
1.21858e-05
1.96285e-05
2.29713e-05
2.03942e-05
1.88388e-05
1.89497e-05
1.56766e-05
1.27044e-05
1.2093e-05
8.47213e-06
4.58491e-06
7.60144e-06
1.20857e-05
1.65112e-05
1.14122e-05
1.03529e-05
1.12343e-05
1.0829e-05
9.85005e-06
1.06202e-05
1.20772e-05
1.24866e-05
1.04165e-05
7.98705e-06
1.11576e-05
1.39104e-05
1.33402e-05
1.43706e-05
1.61131e-05
1.43402e-05
1.0692e-05
1.00643e-05
1.36939e-05
1.68528e-05
1.59651e-05
1.25656e-05
1.1325e-05
1.11884e-05
1.44156e-05
2.14524e-05
2.59363e-05
2.56186e-05
2.2222e-05
1.72491e-05
1.2676e-05
1.16773e-05
1.36459e-05
1.62836e-05
1.74126e-05
1.53521e-05
1.12409e-05
9.40194e-06
1.15483e-05
1.28446e-05
7.24524e-06
9.01208e-06
1.53117e-05
1.80853e-05
1.79231e-05
1.68839e-05
1.71063e-05
1.99634e-05
2.25011e-05
2.365e-05
2.44482e-05
2.39486e-05
2.01467e-05
1.40673e-05
1.16875e-05
1.40585e-05
1.39655e-05
1.05939e-05
1.08397e-05
1.58197e-05
1.82348e-05
1.8066e-05
1.79099e-05
1.67387e-05
1.75755e-05
2.58245e-05
3.11005e-05
2.76275e-05
2.17303e-05
1.87907e-05
1.67547e-05
1.69999e-05
2.06684e-05
2.51195e-05
2.60873e-05
2.2849e-05
1.87058e-05
1.25699e-05
6.6942e-06
7.78462e-06
4.51142e-05
4.81651e-05
5.23705e-05
5.71664e-05
6.17596e-05
6.55304e-05
6.82193e-05
6.96218e-05
7.00593e-05
7.02358e-05
7.02986e-05
6.96644e-05
6.814e-05
6.66051e-05
6.60267e-05
6.63063e-05
6.67487e-05
6.70283e-05
6.72923e-05
6.79407e-05
6.92449e-05
7.07144e-05
7.15304e-05
7.19314e-05
7.28135e-05
7.48855e-05
7.83553e-05
8.24833e-05
8.53018e-05
8.57996e-05
8.44459e-05
8.19517e-05
7.78068e-05
7.06705e-05
6.10377e-05
5.23486e-05
4.68941e-05
4.4136e-05
4.32559e-05
4.35869e-05
4.39237e-05
4.66909e-05
5.07593e-05
5.55973e-05
6.08184e-05
6.57785e-05
6.97962e-05
7.24245e-05
7.38082e-05
7.43151e-05
7.40908e-05
7.31413e-05
7.18258e-05
7.08022e-05
7.03907e-05
7.02331e-05
6.98216e-05
6.91599e-05
6.87752e-05
6.91605e-05
7.01949e-05
7.11931e-05
7.15966e-05
7.18599e-05
7.30553e-05
7.59842e-05
8.04122e-05
8.51159e-05
8.83526e-05
8.93251e-05
8.81861e-05
8.58742e-05
8.27756e-05
7.76067e-05
6.90908e-05
5.86059e-05
4.97993e-05
4.48051e-05
4.2853e-05
4.2664e-05
4.07672e-05
4.30098e-05
4.69688e-05
5.21346e-05
5.81579e-05
6.42994e-05
6.96669e-05
7.37049e-05
7.62732e-05
7.74652e-05
7.75158e-05
7.69127e-05
7.6213e-05
7.56996e-05
7.52908e-05
7.46827e-05
7.34763e-05
7.1707e-05
6.99829e-05
6.90229e-05
6.89488e-05
6.91976e-05
6.91899e-05
6.91249e-05
7.00521e-05
7.29745e-05
7.77368e-05
8.31595e-05
8.76729e-05
9.02224e-05
9.02805e-05
8.87859e-05
8.74116e-05
8.55341e-05
7.99559e-05
6.86279e-05
5.53101e-05
4.60378e-05
4.17685e-05
4.03609e-05
3.66583e-05
3.81863e-05
4.19107e-05
4.72274e-05
5.37275e-05
6.0713e-05
6.72287e-05
7.26585e-05
7.66409e-05
7.89907e-05
7.98439e-05
7.99742e-05
8.01853e-05
8.0539e-05
8.05974e-05
7.99606e-05
7.83453e-05
7.56106e-05
7.2079e-05
6.86617e-05
6.62469e-05
6.48234e-05
6.38159e-05
6.29845e-05
6.3099e-05
6.52492e-05
6.97018e-05
7.55507e-05
8.15145e-05
8.65346e-05
8.89651e-05
8.86439e-05
8.86004e-05
9.0218e-05
8.96893e-05
8.1051e-05
6.47647e-05
4.96627e-05
4.12685e-05
3.76416e-05
3.28308e-05
3.28677e-05
3.58912e-05
4.08888e-05
4.71575e-05
5.42008e-05
6.11238e-05
6.73738e-05
7.26256e-05
7.65464e-05
7.88502e-05
8.00582e-05
8.12502e-05
8.27574e-05
8.40241e-05
8.42765e-05
8.32486e-05
8.05526e-05
7.57982e-05
6.9542e-05
6.34855e-05
5.87721e-05
5.53726e-05
5.28455e-05
5.14422e-05
5.21254e-05
5.56341e-05
6.11621e-05
6.75405e-05
7.50752e-05
8.15093e-05
8.32521e-05
8.34615e-05
8.74074e-05
9.31553e-05
9.19135e-05
7.79711e-05
5.81819e-05
4.36625e-05
3.62254e-05
3.11877e-05
2.83494e-05
2.99494e-05
3.42888e-05
3.94689e-05
4.50804e-05
5.08188e-05
5.63673e-05
6.18182e-05
6.71434e-05
7.15501e-05
7.43835e-05
7.64229e-05
7.87323e-05
8.12851e-05
8.33333e-05
8.4421e-05
8.37803e-05
7.99236e-05
7.22694e-05
6.26587e-05
5.3489e-05
4.59413e-05
4.03577e-05
3.70982e-05
3.6953e-05
4.02769e-05
4.52428e-05
4.89575e-05
5.43971e-05
6.51938e-05
7.13145e-05
7.06618e-05
7.38107e-05
8.49103e-05
9.4671e-05
9.05121e-05
7.1904e-05
5.14003e-05
3.83635e-05
3.39005e-05
2.68621e-05
2.54248e-05
2.91859e-05
3.37207e-05
3.70848e-05
3.96464e-05
4.16059e-05
4.37189e-05
4.78747e-05
5.40127e-05
5.94864e-05
6.27997e-05
6.49145e-05
6.73042e-05
7.0673e-05
7.48832e-05
7.87143e-05
7.93364e-05
7.38928e-05
6.33656e-05
5.11517e-05
4.00011e-05
3.18618e-05
2.75618e-05
2.70204e-05
3.05416e-05
3.61532e-05
3.95431e-05
3.76667e-05
4.18157e-05
5.32941e-05
5.23162e-05
4.89491e-05
6.04692e-05
8.16191e-05
9.3673e-05
8.60521e-05
6.52636e-05
4.59199e-05
4.22513e-05
3.11339e-05
2.42267e-05
2.46028e-05
2.97675e-05
3.30839e-05
3.32701e-05
3.18009e-05
2.94113e-05
2.83791e-05
3.0693e-05
3.51573e-05
3.93182e-05
4.03968e-05
3.86068e-05
3.83937e-05
4.38123e-05
5.5003e-05
6.53657e-05
6.754e-05
6.07725e-05
4.95654e-05
3.89582e-05
3.18038e-05
2.83435e-05
2.7668e-05
3.00542e-05
3.45119e-05
3.70697e-05
3.43142e-05
3.05957e-05
3.43939e-05
3.7484e-05
2.39903e-05
2.2626e-05
4.60195e-05
7.70112e-05
9.00689e-05
8.10656e-05
6.00293e-05
5.65711e-05
4.103e-05
3.09072e-05
2.26987e-05
2.36522e-05
2.98635e-05
3.21947e-05
2.98104e-05
2.6127e-05
2.2357e-05
2.18943e-05
2.26804e-05
2.15321e-05
1.95316e-05
1.67276e-05
2.06628e-05
2.57725e-05
2.2271e-05
2.95499e-05
4.53067e-05
4.93134e-05
4.38563e-05
3.72022e-05
3.40825e-05
3.50429e-05
3.7377e-05
3.77402e-05
3.63116e-05
3.90792e-05
3.90095e-05
2.79957e-05
2.58449e-05
2.80374e-05
2.31637e-05
9.46608e-06
1.78441e-05
3.55732e-05
7.15579e-05
8.67837e-05
7.75281e-05
7.3575e-05
5.355e-05
4.22748e-05
3.21526e-05
2.04076e-05
2.3163e-05
3.17694e-05
3.36193e-05
2.94263e-05
2.4416e-05
1.96515e-05
1.95936e-05
2.0767e-05
1.95491e-05
1.97888e-05
2.34487e-05
3.17791e-05
3.84175e-05
2.8803e-05
1.57642e-05
2.90593e-05
3.4217e-05
3.22331e-05
3.12876e-05
3.43694e-05
3.92166e-05
4.06597e-05
3.47396e-05
2.72743e-05
3.56774e-05
3.21773e-05
2.09483e-05
1.97401e-05
2.57717e-05
1.84194e-05
1.71017e-05
2.47845e-05
2.81513e-05
6.7657e-05
8.49879e-05
8.06731e-05
6.6145e-05
5.11135e-05
4.39487e-05
3.08467e-05
1.76024e-05
2.55627e-05
3.49289e-05
3.60475e-05
3.1247e-05
2.3932e-05
1.64587e-05
1.71048e-05
2.08857e-05
1.94436e-05
1.3288e-05
9.49356e-06
1.92784e-05
3.06588e-05
2.27078e-05
1.18692e-05
2.51653e-05
2.91054e-05
2.88609e-05
2.97922e-05
3.09086e-05
3.24608e-05
3.01997e-05
2.05625e-05
1.26073e-05
2.6225e-05
1.6512e-05
2.08774e-05
1.33622e-05
2.45175e-05
1.67978e-05
2.39844e-05
2.95632e-05
2.5677e-05
6.65376e-05
6.54456e-05
7.18045e-05
5.69008e-05
4.7709e-05
4.04716e-05
2.53174e-05
1.769e-05