/*--------------------------------*- C++ -*----------------------------------*\
| =========                 |                                                 |
| \\      /  F ield         | OpenFOAM: The Open Source CFD Toolbox           |
|  \\    /   O peration     | Version:  2306                                  |
|   \\  /    A nd           | Website:  www.openfoam.com                      |
|    \\/     M anipulation  |                                                 |
\*---------------------------------------------------------------------------*/
FoamFile
{
    version     2.0;
    format      ascii;
    arch        "LSB;label=32;scalar=64";
    class       surfaceScalarField;
    location    "6";
    object      phi;
}
// * * * * * * * * * * * * * * * * * * * * * * * * * * * * * * * * * * * * * //

dimensions      [0 3 -1 0 0 0 0];

oriented        oriented;

internalField   nonuniform List<scalar> 
175300
(
5.34726e-06
5.02757e-07
-4.90614e-08
5.78887e-06
5.28562e-07
2.43382e-07
6.07554e-06
7.68949e-07
6.34195e-07
6.10455e-06
9.85094e-07
1.14701e-06
5.92376e-06
8.97595e-07
1.70542e-06
5.67994e-06
5.61528e-07
2.12504e-06
5.48878e-06
2.40778e-07
2.22459e-06
5.35504e-06
8.49399e-08
2.02348e-06
5.24369e-06
6.8346e-08
1.64463e-06
5.12072e-06
7.62385e-08
1.27888e-06
4.93341e-06
2.84336e-08
1.10149e-06
4.61591e-06
-3.28827e-08
1.13223e-06
4.1801e-06
-8.72873e-08
1.24873e-06
3.76075e-06
-1.83393e-07
1.32545e-06
3.50647e-06
-3.29099e-07
1.32029e-06
3.44864e-06
-4.93188e-07
1.24023e-06
3.53793e-06
-6.41582e-07
1.08107e-06
3.67117e-06
-6.72373e-07
8.48813e-07
3.76989e-06
-5.08742e-07
5.56236e-07
3.87749e-06
-2.78428e-07
2.31715e-07
4.066e-06
-7.86322e-08
-6.61193e-08
4.29884e-06
1.62677e-07
-3.26265e-07
4.49584e-06
3.57218e-07
-4.74183e-07
4.65857e-06
3.2883e-07
-5.10226e-07
4.82873e-06
1.82653e-08
-4.96413e-07
5.06139e-06
-4.50001e-07
-6.02499e-07
5.34392e-06
-7.81856e-07
-9.40184e-07
5.55149e-06
-7.6262e-07
-1.3723e-06
5.55215e-06
-4.47403e-07
-1.67692e-06
5.31479e-06
-2.39556e-08
-1.88086e-06
4.89223e-06
3.39884e-07
-2.08858e-06
4.39968e-06
4.391e-07
-2.13154e-06
4.02786e-06
1.65967e-07
-1.95924e-06
3.8432e-06
-1.38835e-07
-1.81393e-06
3.81347e-06
-2.14971e-07
-1.78492e-06
3.91971e-06
-1.31933e-07
-1.70719e-06
4.10625e-06
6.89923e-08
-1.44386e-06
4.3187e-06
3.61877e-07
-1.05258e-06
4.57156e-06
6.05447e-07
-6.76948e-07
6.3856e-07
-3.68826e-07
1.7818e-05
1.37076e-06
3.7703e-08
1.9206e-05
1.51568e-06
1.02298e-06
2.01858e-05
2.23944e-06
2.34954e-06
2.04904e-05
2.77313e-06
3.93509e-06
2.01041e-05
2.41394e-06
5.45464e-06
1.93461e-05
1.45239e-06
6.39752e-06
1.8628e-05
5.95109e-07
6.48203e-06
1.81133e-05
1.76513e-07
5.84864e-06
1.77374e-05
1.187e-07
4.82241e-06
1.73447e-05
1.30093e-07
3.85579e-06
1.67144e-05
3.07938e-08
3.34485e-06
1.56681e-05
-1.01461e-07
3.34454e-06
1.43053e-05
-2.96539e-07
3.61699e-06
1.30193e-05
-7.23312e-07
3.883e-06
1.21842e-05
-1.36609e-06
3.96909e-06
1.18778e-05
-2.01471e-06
3.7788e-06
1.19444e-05
-2.43552e-06
3.27971e-06
1.21466e-05
-2.33204e-06
2.5249e-06
1.23716e-05
-1.67125e-06
1.6237e-06
1.27285e-05
-8.75797e-07
6.95954e-07
1.33104e-05
-1.83744e-07
-1.30743e-07
1.40104e-05
5.46246e-07
-8.0487e-07
1.47083e-05
9.47975e-07
-1.19122e-06
1.54495e-05
5.76094e-07
-1.29391e-06
1.63101e-05
-7.648e-07
-1.31677e-06
1.73233e-05
-2.41197e-06
-1.7043e-06
1.83296e-05
-3.40214e-06
-2.66495e-06
1.89348e-05
-3.10481e-06
-3.81727e-06
1.88099e-05
-1.78975e-06
-4.67639e-06
1.79495e-05
-1.87775e-07
-5.27726e-06
1.66321e-05
9.7609e-07
-5.68728e-06
1.52388e-05
1.09427e-06
-5.61782e-06
1.40998e-05
1.73504e-07
-5.24874e-06
1.32997e-05
-6.61088e-07
-5.12093e-06
1.28999e-05
-7.96732e-07
-5.19448e-06
1.29867e-05
-5.01279e-07
-4.9246e-06
1.34559e-05
1.77494e-07
-4.06408e-06
1.41658e-05
1.15043e-06
-2.90992e-06
1.51247e-05
1.87e-06
-1.83483e-06
1.84771e-06
-9.20113e-07
3.27263e-05
1.80217e-06
-3.27801e-07
3.53785e-05
2.02601e-06
1.45828e-06
3.7472e-05
3.38089e-06
3.84143e-06
3.85198e-05
4.33803e-06
6.63235e-06
3.82286e-05
3.70993e-06
9.21595e-06
3.69115e-05
2.17068e-06
1.07637e-05
3.53905e-05
8.71913e-07
1.09172e-05
3.42491e-05
2.18718e-07
9.95681e-06
3.35007e-05
7.72874e-08
8.40052e-06
3.28336e-05
6.07188e-08
6.88015e-06
3.18099e-05
-7.33128e-08
5.92364e-06
3.00945e-05
-2.22287e-07
5.64489e-06
2.77978e-05
-5.2946e-07
5.85319e-06
2.54699e-05
-1.37323e-06
6.28424e-06
2.37e-05
-2.74468e-06
6.62364e-06
2.27267e-05
-4.16564e-06
6.51843e-06
2.24165e-05
-5.05596e-06
5.81987e-06
2.24672e-05
-4.81504e-06
4.63804e-06
2.27288e-05
-3.49523e-06
3.19258e-06
2.3319e-05
-1.91001e-06
1.69174e-06
2.43115e-05
-4.7635e-07
3.03397e-07
2.55479e-05
8.95372e-07
-7.95935e-07
2.69021e-05
1.41922e-06
-1.42084e-06
2.84588e-05
2.06393e-07
-1.52038e-06
3.0306e-05
-2.98127e-06
-1.42955e-06
3.24232e-05
-6.62162e-06
-1.92549e-06
3.44725e-05
-8.66177e-06
-3.4418e-06
3.57446e-05
-7.80191e-06
-5.43791e-06
3.56655e-05
-4.68962e-06
-7.08733e-06
3.42586e-05
-1.03695e-06
-8.25189e-06
3.20755e-05
1.47047e-06
-8.88851e-06
2.97594e-05
1.67964e-06
-8.66434e-06
2.76926e-05
-7.92015e-08
-8.07775e-06
2.59071e-05
-1.57456e-06
-8.03737e-06
2.45975e-05
-1.75743e-06
-8.43592e-06
2.4158e-05
-1.21672e-06
-8.30165e-06
2.46367e-05
-1.19424e-09
-7.0852e-06
2.58229e-05
1.82045e-06
-5.25352e-06
2.76283e-05
3.06388e-06
-3.49579e-06
2.92278e-06
-1.98416e-06
4.95152e-05
7.64901e-07
-2.28128e-06
5.38632e-05
5.21951e-07
5.87411e-07
5.76865e-05
2.71426e-06
4.02949e-06
6.02383e-05
4.45807e-06
8.22656e-06
6.06974e-05
3.86963e-06
1.2279e-05
5.90087e-05
2.15196e-06
1.489e-05
5.63937e-05
8.32864e-07
1.54573e-05
5.42411e-05
1.67578e-07
1.43702e-05
5.29303e-05
-6.8252e-08
1.24332e-05
5.20121e-05
-1.81425e-07
1.04776e-05
5.07745e-05
-3.61825e-07
9.05178e-06
4.86491e-05
-4.52888e-07
8.22204e-06
4.5616e-05
-7.02263e-07
7.94234e-06
4.21826e-05
-1.77227e-06
8.26121e-06
3.90224e-05
-3.78913e-06
8.94487e-06
3.66593e-05
-6.12348e-06
9.28187e-06
3.52855e-05
-7.86053e-06
8.74915e-06
3.47256e-05
-7.88392e-06
7.41735e-06
3.47814e-05
-6.09799e-06
5.628e-06
3.54916e-05
-3.67163e-06
3.66219e-06
3.68545e-05
-1.2954e-06
1.74836e-06
3.86458e-05
8.55568e-07
2.53414e-07
4.07306e-05
1.46463e-06
-5.8211e-07
4.32073e-05
-1.168e-06
-4.90188e-07
4.61782e-05
-7.07947e-06
6.42257e-08
4.96409e-05
-1.38658e-05
-6.17032e-08
5.31757e-05
-1.77812e-05
-1.90625e-06
5.57197e-05
-1.62636e-05
-5.05016e-06
5.62846e-05
-1.04375e-05
-8.0798e-06
5.47829e-05
-3.54922e-06
-1.03756e-05
5.20006e-05
1.23688e-06
-1.16422e-05
4.88633e-05
1.9937e-06
-1.13618e-05
4.58319e-05
-5.58719e-07
-1.03374e-05
4.28004e-05
-2.7801e-06
-1.01643e-05
3.9932e-05
-2.99929e-06
-1.10146e-05
3.80388e-05
-2.27428e-06
-1.15697e-05
3.77497e-05
-7.75609e-07
-1.06789e-05
3.90297e-05
1.71256e-06
-8.61537e-06
4.16122e-05
3.47118e-06
-6.38881e-06
2.86051e-06
-4.4209e-06
6.67384e-05
-3.1716e-06
-6.91013e-06
7.31588e-05
-5.04995e-06
-3.36804e-06
7.94288e-05
-2.29795e-06
1.44317e-06
8.45743e-05
1.17198e-06
7.13718e-06
8.70281e-05
1.44115e-06
1.33429e-05
8.57647e-05
4.29919e-07
1.79501e-05
8.20269e-05
-2.23118e-08
1.97313e-05
7.83887e-05
-1.30345e-07
1.89096e-05
7.61814e-05
-3.05802e-07
1.67147e-05
7.5e-05
-5.78557e-07
1.44968e-05
7.37948e-05
-8.94067e-07
1.28734e-05
7.16733e-05
-9.22794e-07
1.15246e-05
6.83697e-05
-8.98345e-07
1.02946e-05
6.41411e-05
-1.75193e-06
9.82894e-06
5.94233e-05
-3.91237e-06
1.05613e-05
5.48669e-05
-6.88794e-06
1.16397e-05
5.13065e-05
-9.73644e-06
1.18069e-05
4.91869e-05
-1.08034e-05
1.07591e-05
4.84489e-05
-9.29692e-06
8.9639e-06
4.89581e-05
-6.33347e-06
6.79635e-06
5.05053e-05
-2.88461e-06
4.49338e-06
5.27093e-05
3.92547e-07
2.5712e-06
5.53546e-05
1.14128e-06
1.73227e-06
5.84826e-05
-3.29537e-06
2.40028e-06
6.21866e-05
-1.31125e-05
4.32126e-06
6.67239e-05
-2.46344e-05
5.55085e-06
7.21008e-05
-3.21768e-05
4.05499e-06
7.70441e-05
-3.06705e-05
-4.85729e-07
7.96632e-05
-2.12257e-05
-6.01592e-06
7.92572e-05
-9.42313e-06
-1.07075e-05
7.66576e-05
-7.62177e-07
-1.36679e-05
7.30817e-05
1.63163e-06
-1.38595e-05
6.92469e-05
-1.25844e-06
-1.21967e-05
6.5034e-05
-4.11267e-06
-1.13781e-05
6.03394e-05
-4.28164e-06
-1.24225e-05
5.60373e-05
-3.32819e-06
-1.39605e-05
5.35574e-05
-1.88246e-06
-1.42387e-05
5.36945e-05
6.77456e-07
-1.29319e-05
5.63111e-05
2.49655e-06
-1.10131e-05
9.45873e-07
-9.14979e-06
8.22211e-05
-1.04155e-05
-1.48096e-05
9.01005e-05
-1.56915e-05
-1.17105e-05
9.89088e-05
-1.40553e-05
-6.34248e-06
0.000107937
-9.39964e-06
1.00403e-06
0.00011463
-6.43615e-06
9.78426e-06
0.000115883
-5.03963e-06
1.79636e-05
0.000111898
-2.87395e-06
2.26655e-05
0.00010652
-1.21638e-06
2.31879e-05
0.000102962
-8.02018e-07
2.09327e-05
0.000101427
-1.14047e-06
1.84101e-05
0.000100492
-1.70315e-06
1.70387e-05
9.88139e-05
-1.81299e-06
1.58943e-05
9.5872e-05
-1.43247e-06
1.37671e-05
9.16502e-05
-1.58512e-06
1.1638e-05
8.60171e-05
-3.10543e-06
1.14536e-05
7.9105e-05
-5.91192e-06
1.30783e-05
7.21537e-05
-9.45487e-06
1.44512e-05
6.68501e-05
-1.20956e-05
1.42387e-05
6.40294e-05
-1.20742e-05
1.28096e-05
6.35682e-05
-9.48706e-06
1.07712e-05
6.48395e-05
-5.12988e-06
8.36666e-06
6.70726e-05
-3.64562e-07
6.25405e-06
6.98229e-05
8.52939e-07
5.55984e-06
7.29654e-05
-5.67687e-06
7.26895e-06
7.63436e-05
-2.02283e-05
1.11075e-05
8.03091e-05
-3.76248e-05
1.46385e-05
8.62586e-05
-5.05396e-05
1.48337e-05
9.44377e-05
-5.20099e-05
1.02169e-05
0.000101929
-4.04392e-05
2.18991e-06
0.000105515
-2.16483e-05
-7.16881e-06
0.000105065
-6.48857e-06
-1.38914e-05
0.000102086
-3.73319e-07
-1.60153e-05
9.78815e-05
-2.44791e-06
-1.40647e-05
9.28397e-05
-5.48277e-06
-1.20458e-05
8.67617e-05
-5.37644e-06
-1.25931e-05
8.00326e-05
-3.91859e-06
-1.47629e-05
7.42649e-05
-2.43135e-06
-1.64552e-05
7.13055e-05
-1.81508e-07
-1.68343e-05
7.19384e-05
9.57591e-07
-1.65288e-05
-2.64762e-06
-1.60538e-05
9.71797e-05
-1.84391e-05
-2.38238e-05
0.000103626
-2.90724e-05
-2.27497e-05
0.000111772
-2.99269e-05
-1.88217e-05
0.000122872
-2.60557e-05
-1.20228e-05
0.000135904
-2.33781e-05
-1.65899e-06
0.000144318
-1.85393e-05
1.10666e-05
0.00014347
-1.06925e-05
2.15425e-05
0.000137251
-4.57478e-06
2.60914e-05
0.000132058
-2.29174e-06
2.48581e-05
0.000130097
-2.24045e-06
2.16381e-05
0.000129738
-2.91919e-06
2.03772e-05
0.000128862
-3.25331e-06
2.06429e-05
0.000126768
-2.70124e-06
1.89734e-05
0.000123547
-1.95691e-06
1.49731e-05
0.000118586
-2.21755e-06
1.24216e-05
0.000110701
-3.85177e-06
1.3491e-05
0.000100303
-6.85934e-06
1.61267e-05
9.01228e-05
-1.03723e-05
1.7361e-05
8.30512e-05
-1.25911e-05
1.66848e-05
8.00365e-05
-1.18184e-05
1.49794e-05
8.01764e-05
-7.34012e-06
1.26552e-05
8.20403e-05
-9.4991e-07
1.03944e-05
8.47934e-05
1.12316e-06
9.70712e-06
8.81122e-05
-7.36582e-06
1.20311e-05
9.12554e-05
-2.63428e-05
1.70563e-05
9.34883e-05
-4.88595e-05
2.24221e-05
9.63979e-05
-6.71683e-05
2.5432e-05
0.000103707
-7.40428e-05
2.36106e-05
0.000115879
-6.46346e-05
1.57653e-05
0.000127462
-4.27174e-05
3.32757e-06
0.00013358
-1.90446e-05
-9.90298e-06
0.000133813
-5.9788e-06
-1.66144e-05
0.000130184
-4.81848e-06
-1.59831e-05
0.000124698
-6.83907e-06
-1.28233e-05
0.000118097
-6.11479e-06
-1.20289e-05
0.00011025
-3.97708e-06
-1.39363e-05
0.000102036
-1.99325e-06
-1.64437e-05
9.55301e-05
4.94086e-07
-1.84242e-05
9.23925e-05
1.03138e-06
-2.03031e-05
-5.32774e-06
-2.24446e-05
0.00011801
-2.18387e-05
-2.97994e-05
0.000119818
-3.94568e-05
-3.28504e-05
0.000123732
-4.41554e-05
-3.19532e-05
0.000131185
-4.15913e-05
-2.70704e-05
0.000145599
-4.24951e-05
-1.78337e-05
0.000162606
-4.02939e-05
-3.77823e-06
0.000170408
-2.74921e-05
1.31872e-05
0.000166566
-1.28045e-05
2.50198e-05
0.000160189
-6.09962e-06
2.779e-05
0.00015807
-5.10912e-06
2.40902e-05
0.000159231
-5.44963e-06
2.14915e-05
0.00015983
-5.47225e-06
2.32929e-05
0.000158627
-4.73679e-06
2.44995e-05
0.000156815
-3.48502e-06
2.05389e-05
0.000154355
-2.7253e-06
1.49202e-05
0.00014859
-2.89243e-06
1.362e-05
0.000137285
-4.0577e-06
1.66863e-05
0.000122317
-6.2624e-06
1.97301e-05
0.000108837
-9.51536e-06
2.03093e-05
0.000100716
-1.1395e-05
1.90929e-05
9.81482e-05
-8.36739e-06
1.69463e-05
9.92608e-05
-1.1194e-06
1.44831e-05
0.000102509
2.08905e-06
1.31526e-05
0.000107014
-7.42485e-06
1.48478e-05
0.000111499
-2.9141e-05
1.93219e-05
0.000113869
-5.44015e-05
2.45628e-05
0.000113382
-7.52212e-05
2.94915e-05
0.000114505
-8.66791e-05
3.25754e-05
0.000123677
-8.38948e-05
2.98182e-05
0.000140087
-6.52989e-05
1.82138e-05
0.000155778
-3.83785e-05
7.22907e-07
0.000163635
-1.71982e-05
-1.3126e-05
0.000162682
-9.15387e-06
-1.67796e-05
0.000156994
-7.64404e-06
-1.40488e-05
0.000150451
-6.16609e-06
-1.14032e-05
0.000143378
-3.89366e-06
-1.17376e-05
0.000135339
-1.05131e-06
-1.40314e-05
0.000127746
2.78055e-06
-1.68094e-05
0.000122249
4.07462e-06
-2.02237e-05
-3.68841e-06
-2.47808e-05
0.000150038
-1.70548e-05
-2.9364e-05
0.000144857
-4.07145e-05
-3.79563e-05
0.000142869
-5.1766e-05
-4.30093e-05
0.000144731
-5.07899e-05
-4.16109e-05
0.000153961
-5.45521e-05
-3.34183e-05
0.000172591
-6.07816e-05
-1.92065e-05
0.000189781
-5.16136e-05
-1.33888e-07
0.000192502
-2.81195e-05
1.86455e-05
0.000184925
-1.19313e-05
2.8057e-05
0.000180865
-9.35096e-06
2.58874e-05
0.000184681
-1.12499e-05
2.02802e-05
0.000189168
-1.01898e-05
2.10115e-05
0.000188674
-6.45901e-06
2.55598e-05
0.000186252
-3.86329e-06
2.4834e-05
0.000186475
-4.55811e-06
1.83094e-05
0.000186937
-6.32714e-06
1.41065e-05
0.000180594
-6.03801e-06
1.64071e-05
0.000164921
-4.12533e-06
2.11228e-05
0.000145282
-4.36402e-06
2.33879e-05
0.00012951
-6.84667e-06
2.28821e-05
0.00012144
-6.32016e-06
2.11404e-05
0.00012025
-3.24713e-07
1.89155e-05
0.000123663
3.08849e-06
1.69122e-05
0.000129617
-6.70519e-06
1.689e-05
0.000136128
-2.91264e-05
1.89965e-05
0.000140638
-5.45025e-05
2.24134e-05
0.000140332
-7.46633e-05
2.74456e-05
0.000136325
-8.6577e-05
3.45065e-05
0.000137239
-8.9644e-05
3.89282e-05
0.000150245
-8.05294e-05
3.24379e-05
0.000171293
-5.93695e-05
1.47299e-05
0.000187394
-3.37066e-05
-4.59005e-06
0.000188182
-1.35673e-05
-1.45581e-05
0.000177452
-2.42991e-06
-1.47951e-05
0.000167739
-1.36196e-06
-1.10088e-05
0.000164306
-4.6929e-06
-8.23546e-06
0.000163311
-3.78223e-06
-8.54355e-06
0.000161329
3.07963e-06
-1.12625e-05
0.000158868
7.98637e-06
-1.54348e-05
2.17285e-06
-2.13389e-05
0.00019067
-7.1086e-06
-2.12421e-05
0.000180432
-3.07047e-05
-3.50197e-05
0.000171024
-4.83568e-05
-4.82407e-05
0.000167409
-5.21777e-05
-5.43601e-05
0.000170713
-5.6784e-05
-4.94914e-05
0.000183765
-6.99528e-05
-3.50961e-05
0.000204086
-7.30699e-05
-1.48868e-05
0.000217497
-5.24708e-05
7.92893e-06
0.000214687
-2.40372e-05
2.42912e-05
0.000205083
-1.24701e-05
2.67298e-05
0.000204398
-1.66365e-05
1.93379e-05
0.000213247
-1.97289e-05
1.55128e-05
0.000218047
-1.16198e-05
1.97792e-05
0.000213186
-2.83026e-07
2.26984e-05
0.000208663
2.55325e-07
1.83434e-05
0.000213063
-1.03114e-05
1.29074e-05
0.000218876
-1.75283e-05
1.42012e-05
0.00021264
-1.26269e-05
2.0638e-05
0.000193043
-3.80894e-06
2.52035e-05
0.000170187
1.47608e-08
2.56449e-05
0.000153622
9.93398e-07
2.45535e-05
0.000146903
3.74378e-06
2.37092e-05
0.000148946
3.47339e-06
2.22043e-05
0.000156395
-8.96018e-06
1.99047e-05
0.000165407
-3.16147e-05
1.73626e-05
0.000172269
-5.38929e-05
1.62968e-05
0.0001737
-6.95989e-05
1.98856e-05
0.000168377
-7.7685e-05
2.96836e-05
0.000162074
-8.17191e-05
4.10362e-05
0.000166474
-8.26444e-05
4.20341e-05
0.000184755
-7.4354e-05
2.66574e-05
0.000203484
-5.15197e-05
5.05881e-06
0.00020554
-1.83897e-05
-1.0951e-05
0.000190488
7.33539e-06
-1.50332e-05
0.000174613
1.1305e-05
-1.13348e-05
0.000169517
1.50811e-07
-4.72744e-06
0.000173992
-6.83569e-06
-4.58192e-07
0.000181907
-1.32255e-06
-5.92857e-07
0.000189567
6.88383e-06
-4.23995e-06
6.58736e-06
-1.09782e-05
0.000228877
-1.05768e-06
-4.60185e-06
0.000222231
-1.47064e-05
-2.3551e-05
0.000207347
-3.2542e-05
-4.47316e-05
0.00019679
-4.37312e-05
-6.09346e-05
0.000195875
-5.22849e-05
-6.42363e-05
0.000203515
-6.79032e-05
-5.27459e-05
0.000219171
-8.18593e-05
-3.21343e-05
0.000237846
-7.52021e-05
-7.54566e-06
0.000247116
-4.74907e-05
1.52212e-05
0.000241035
-2.21724e-05
2.509e-05
0.00023035
-1.71493e-05
2.00856e-05
0.000230776
-2.41162e-05
1.14808e-05
0.000240909
-2.14008e-05
1.11873e-05
0.000244947
-3.99577e-06
1.6034e-05
0.00023828
7.40914e-06
1.6409e-05
0.00023439
-4.38047e-06
1.19798e-05
0.000242832
-2.72251e-05
1.10133e-05
0.000251596
-3.31617e-05
1.74429e-05
0.000244261
-1.75401e-05
2.45897e-05
0.000222156
1.20372e-06
2.63917e-05
0.000198099
1.20097e-05
2.5647e-05
0.000182717
1.4409e-05
2.72531e-05
0.000179877
6.58571e-06
2.87237e-05
0.000187219
-1.42173e-05
2.51082e-05
0.000199219
-4.0326e-05
1.59726e-05
0.000209729
-5.83339e-05
6.67174e-06
0.00021353
-6.52248e-05
5.61169e-06
0.000208077
-6.5701e-05
1.74002e-05
0.000196675
-6.53726e-05
3.61107e-05
0.000190927
-7.10715e-05
4.63896e-05
0.000200349
-7.65204e-05
3.60143e-05
0.00021668
-6.32493e-05
1.29778e-05
0.000221271
-2.39115e-05
-6.63194e-06
0.000208591
1.47973e-05
-1.47103e-05
0.000191544
2.53122e-05
-1.33902e-05
0.00018266
1.00847e-05
-5.21376e-06
0.000184299
-4.39676e-06
4.18749e-06
0.000192971
-3.70663e-06
1.04895e-05
0.000206148
3.33577e-06
1.16381e-05
5.14081e-06
7.11469e-06
0.000256612
-3.24049e-06
1.49585e-05
0.000262382
-3.48605e-06
-5.56315e-06
0.000250236
-1.01769e-05
-3.37651e-05
0.00023387
-2.49843e-05
-5.89005e-05
0.000227528
-4.1925e-05
-7.24738e-05
0.000232494
-6.04114e-05
-6.89516e-05
0.00024328
-7.8488e-05
-5.11195e-05
0.000258256
-8.61245e-05
-2.61624e-05
0.000273319
-7.27383e-05
5.8681e-07
0.000277697
-4.3697e-05
1.87572e-05
0.000267597
-2.16409e-05
1.97436e-05
0.000256144
-1.94295e-05
9.88181e-06
0.000258162
-2.33222e-05
4.81749e-06
0.00026954
-1.44633e-05
9.75075e-06
0.000274172
1.51624e-06
1.53129e-05
0.00026834
9.89583e-07
1.40173e-05
0.000265889
-2.36345e-05
1.00894e-05
0.000275487
-4.75978e-05
1.29386e-05
0.000283883
-4.26919e-05
2.09684e-05
0.000275366
-1.30715e-05
2.45924e-05
0.00025297
1.63718e-05
2.41551e-05
0.000231236
2.75368e-05
2.8311e-05
0.000220016
1.73003e-05
3.39059e-05
0.000221007
-1.15092e-05
2.94058e-05
0.000231662
-4.56793e-05
1.29854e-05
0.000246737
-6.69757e-05
-4.10829e-06
0.000256732
-6.77247e-05
-1.11063e-05
0.000253841
-5.67742e-05
-1.21609e-06
0.000239275
-4.78653e-05
2.42452e-05
0.000224292
-5.05046e-05
4.55903e-05
0.000222095
-6.3751e-05
4.39666e-05
0.000231785
-6.25656e-05
2.21114e-05
0.000238146
-2.74196e-05
-2.31735e-07
0.000232857
1.71852e-05
-1.29079e-05
0.000221867
3.40197e-05
-1.68894e-05
0.000213057
2.042e-05
-1.28571e-05
0.000209478
3.35874e-06
-2.12884e-06
0.000211416
8.19829e-07
9.08867e-06
0.000219722
3.74046e-06
1.78593e-05
8.10113e-07
2.13931e-05
0.000279422
-1.28459e-05
2.16617e-05
0.000297586
-5.17683e-06
9.45866e-06
0.000295522
6.53469e-06
-2.06857e-05
0.000279342
-2.74806e-06
-5.14199e-05
0.000267176
-2.64575e-05
-7.25414e-05
0.000268346
-5.02334e-05
-7.81023e-05
0.0002774
-6.91511e-05
-6.78706e-05
0.000287456
-8.39689e-05
-4.60175e-05
0.000298509
-8.73729e-05
-1.779e-05
0.000306585
-6.75817e-05
7.20365e-06
0.000303107
-3.40473e-05
1.57681e-05
0.000290807
-1.46024e-05
8.68926e-06
0.000284225
-1.59644e-05
1.38923e-06
0.000291542
-1.91331e-05
5.17899e-06
0.000303683
-1.11553e-05
1.46085e-05
0.000307069
-4.29426e-06
1.77842e-05
0.000301432
-1.72362e-05
1.26037e-05
0.000299472
-4.42661e-05
8.83343e-06
0.000307075
-5.64268e-05
1.3429e-05
0.00031245
-3.57386e-05
1.93082e-05
0.000303669
2.39661e-06
2.26988e-05
0.000284674
2.82655e-05
2.99964e-05
0.000267504
2.93242e-05
3.7023e-05
0.000258124
7.01424e-06
2.8472e-05
0.000259423
-3.05543e-05
4.69888e-06
0.000273927
-6.61333e-05
-1.55879e-05
0.000293355
-7.59316e-05
-2.34899e-05
0.000299695
-5.97035e-05
-1.49281e-05
0.000286599
-3.89852e-05
1.09092e-05
0.000265321
-3.10196e-05
4.04653e-05
0.000252208
-4.12396e-05
5.01109e-05
0.000253098
-4.75345e-05
3.31486e-05
0.000258319
-2.23454e-05
8.55476e-06
0.000259363
1.8608e-05
-9.44028e-06
0.000257025
3.61366e-05
-1.96224e-05
0.000253601
2.5573e-05
-2.18851e-05
0.000248853
1.13411e-05
-1.5177e-05
0.000244237
9.51575e-06
-3.54203e-06
0.000244318
1.01893e-05
7.6335e-06
-1.73244e-06
1.79414e-05
0.000308164
-1.93677e-05
1.08914e-05
0.000331616
-1.47207e-05
9.53399e-06
0.000341948
8.83519e-06
-1.20358e-05
0.000332188
1.28079e-05
-4.26404e-05
0.00031631
-8.3342e-06
-6.86527e-05
0.000310978
-3.44466e-05
-8.15157e-05
0.000317982
-5.48705e-05
-7.91243e-05
0.000327057
-7.33164e-05
-6.36641e-05
0.000332674
-8.84754e-05
-3.73378e-05
0.000336315
-8.1982e-05
-9.0048e-06
0.000334927
-4.85911e-05
8.60641e-06
0.000326437
-1.41908e-05
7.03853e-06
0.000318344
-5.26101e-06
-2.26742e-07
0.000320607
-1.42346e-05
1.49127e-06
0.000332559
-1.83617e-05
1.26745e-05
0.000343216
-1.32213e-05
2.16585e-05
0.000343892
-1.5774e-05
1.90467e-05
0.000336364
-3.31434e-05
9.31915e-06
0.000329557
-4.95199e-05
6.178e-06
0.000327334
-4.4661e-05
1.35163e-05
0.000323683
-1.77368e-05
2.49515e-05
0.000314364
1.2537e-05
3.49567e-05
0.00030427
2.93896e-05
3.56704e-05
0.000297269
2.38219e-05
1.95887e-05
0.00029372
-6.48798e-06
-6.16173e-06
0.000301394
-5.04725e-05
-2.675e-05
0.000323395
-7.85475e-05
-3.10531e-05
0.000340652
-7.16203e-05
-1.93106e-05
0.000334238
-4.33131e-05
4.45836e-06
0.000310359
-2.2065e-05
3.50359e-05
0.000289474
-2.0644e-05
5.35407e-05
0.000282857
-2.4395e-05
4.45757e-05
0.000286066
-7.15715e-06
1.98267e-05
0.000290886
2.31939e-05
-3.18397e-06
0.000295532
3.50538e-05
-1.9237e-05
0.000299177
2.35199e-05
-2.7891e-05
0.000298675
1.25539e-05
-2.72472e-05
0.000293512
1.48526e-05
-2.01214e-05
0.000288439
1.67243e-05
-1.09317e-05
1.28046e-06
2.75878e-07
0.000343644
-1.39313e-05
-1.45931e-06
0.000361441
-1.75992e-05
2.45092e-06
0.0003814
3.29419e-06
-1.09402e-05
0.00038492
1.75742e-05
-3.58082e-05
0.000372247
7.29741e-06
-6.20552e-05
0.000362017
-1.38239e-05
-8.02801e-05
0.000365525
-3.38109e-05
-8.53977e-05
0.000375683
-5.62326e-05
-7.72126e-05
0.000380332
-8.00452e-05
-5.6099e-05
0.000377919
-8.52364e-05
-2.68169e-05
0.000372357
-5.73369e-05
-3.88447e-06
0.000364456
-1.63629e-05
3.35568e-06
0.000357065
4.30081e-06
-5.25289e-07
0.000356563
-2.3494e-06
9.00257e-08
0.000365961
-1.54439e-05
1.07133e-05
0.000379205
-1.82771e-05
2.41239e-05
0.000385109
-1.79909e-05
2.72394e-05
0.00037667
-2.43792e-05
1.66462e-05
0.000357409
-3.28672e-05
6.04122e-06
0.000338955
-3.37432e-05
8.46483e-06
0.000329659
-2.20301e-05
1.92521e-05
0.000329613
-2.67201e-06
2.4905e-05
0.000335398
1.64151e-05
1.82617e-05
0.000340847
2.47635e-05
5.70219e-07
0.000341491
1.01556e-05
-2.09369e-05
0.000344244
-2.79929e-05
-3.68712e-05
0.000360225
-6.88756e-05
-3.6552e-05
0.000380335
-7.99474e-05
-2.04211e-05
0.000380376
-5.44539e-05
4.08637e-06
0.000356723
-2.19933e-05
3.22042e-05
0.000330528
-7.74471e-06
5.31071e-05
0.000319148
-4.61949e-06
5.09472e-05
0.000321679
9.40895e-06
2.88057e-05
0.000327591
3.12169e-05
5.05426e-06
0.0003317
3.8236e-05
-1.29389e-05
0.000335341
2.35199e-05
-2.49887e-05
0.000340192
8.66423e-06
-3.1802e-05
0.000343649
9.17524e-06
-3.22515e-05
0.000342912
1.50663e-05
-2.6131e-05
6.19697e-06
-1.38022e-05
0.000377298
-3.1954e-06
1.21781e-06
0.000384612
-6.44753e-06
1.21159e-06
0.000406523
4.75892e-06
-1.06179e-05
0.000425273
1.78515e-05
-3.05658e-05
0.000425968
1.70301e-05
-5.36877e-05
0.000418529
6.44737e-06
-7.452e-05
0.000420976
-9.17635e-06
-8.65525e-05
0.000432548
-3.38406e-05
-8.62452e-05
0.000438466
-6.46735e-05
-7.25802e-05
0.000432148
-7.89797e-05
-4.74554e-05
0.000420084
-5.86917e-05
-2.04196e-05
0.000409063
-1.7985e-05
-4.5143e-06
0.000401592
1.03151e-05
-3.48557e-07
0.000399587
1.02638e-05
2.43222e-06
0.000405027
-4.33086e-06
9.65197e-06
0.000414877
-1.45107e-05
2.13671e-05
0.000420877
-1.83242e-05
3.0054e-05
0.00041528
-2.13953e-05
2.63068e-05
0.000397145
-2.11162e-05
1.19515e-05
0.000375418
-1.64183e-05
8.17108e-07
0.00036261
-1.12432e-05
6.69987e-07
0.00036469
-7.7361e-06
4.47964e-06
0.000376979
-1.04018e-06
2.57847e-06
0.000387962
9.55338e-06
-6.89966e-06
0.000390789
1.2657e-05
-2.17702e-05
0.000391719
-8.81884e-06
-3.31498e-05
0.000402426
-5.01561e-05
-3.27801e-05
0.000420351
-7.87733e-05
-1.81793e-05
0.000424725
-6.47132e-05
4.12235e-06
0.000405335
-2.67332e-05
2.97305e-05
0.000378499
-3.72464e-07
5.15101e-05
0.00036266
1.11775e-05
5.39163e-05
0.000358997
2.50897e-05
3.49185e-05
0.000357956
4.17403e-05
1.3977e-05
0.000355193
4.31181e-05
2.7807e-06
0.000355188
2.36407e-05
-6.05232e-06
0.000362575
1.31931e-06
-1.86591e-05
0.000374632
-5.43503e-06
-2.82844e-05
0.00038278
1.47812e-06
-2.48215e-05
4.25734e-06
-1.07204e-05
0.000414919
6.75985e-06
8.45923e-06
0.000414963
1.32564e-05
1.16317e-05
0.000430481
2.15683e-05
-1.70888e-06
0.000454641
2.60488e-05
-2.38786e-05
0.000471756
2.35959e-05
-4.43943e-05
0.000478385
1.88299e-05
-6.25869e-05
0.000486421
1.16808e-05
-7.76801e-05
0.000499787
-9.06169e-06
-8.64978e-05
0.000506063
-4.20466e-05
-8.37335e-05
0.000496261
-6.2591e-05
-6.63991e-05
0.000477429
-4.90533e-05
-4.02199e-05
0.00046049
-1.3132e-05
-1.78352e-05
0.000450219
1.43722e-05
-5.27199e-06
0.000446744
1.6432e-05
3.4759e-06
0.000449574
4.88889e-06
1.14454e-05
0.000453902
-5.46706e-06
2.04112e-05
0.000453574
-1.12232e-05
2.8653e-05
0.000446659
-1.61647e-05
2.89947e-05
0.000435084
-1.46868e-05
1.55782e-05
0.000423183
-5.63779e-06
-3.07317e-06
0.000417261
-1.62775e-06
-1.10963e-05
0.000420869
-1.01544e-05
-6.06222e-06
0.000429923
-1.76654e-05
9.04535e-07
0.000435158
-8.81768e-06
-2.15271e-07
0.000433044
7.6586e-06
-7.77295e-06
0.000431732
5.10379e-06
-1.57753e-05
0.000440073
-2.81553e-05
-1.8164e-05
0.00045707
-6.71889e-05
-9.41576e-06
0.000467686
-7.06434e-05
8.40703e-06
0.000458825
-3.58029e-05
2.99626e-05
0.000436726
3.96234e-06
4.76399e-05
0.000415424
2.74645e-05
5.21446e-05
0.000399511
4.03228e-05
4.07437e-05
0.000387307
4.93213e-05
2.45412e-05
0.000380325
4.69561e-05
1.44092e-05
0.000381634
2.70902e-05
9.23837e-06
0.000391577
-2.4917e-07
1.49669e-06
0.000406525
-1.58578e-05
-1.03845e-05
0.000418301
-1.27004e-05
-1.50347e-05
-2.03335e-06
-5.72835e-06
0.00045517
1.72506e-05
1.56225e-05
0.000454741
3.13181e-05
2.13414e-05
0.000465417
4.17137e-05
1.45236e-05
0.000485708
4.07172e-05
-2.78981e-06
0.000507721
2.82485e-05
-2.35369e-05
0.000527937
1.69979e-05
-4.31944e-05
0.000548949
1.2556e-05
-6.0602e-05
0.000568659
3.56102e-06
-7.50532e-05
0.000576037
-1.86126e-05
-8.27782e-05
0.000564478
-3.80653e-05
-7.71398e-05
0.000541954
-3.20232e-05
-5.67026e-05
0.000520352
-4.88267e-06
-3.09173e-05
0.000505056
1.7564e-05
-1.20734e-05
0.00049641
2.03774e-05
-8.96493e-07
0.000493186
1.20899e-05
9.09089e-06
0.00049166
4.2622e-06
1.98339e-05
0.000487485
-1.64053e-06
2.86774e-05
0.000480823
-6.95819e-06
2.75011e-05
0.000476361
-6.63311e-06
1.20593e-05
0.000478453
4.71548e-07
-8.6382e-06
0.000486341
9.55441e-07
-1.70385e-05
0.000493082
-1.50542e-05
-6.60398e-06
0.000490897
-3.03e-05
1.00656e-05
0.000480635
-2.32795e-05
1.66644e-05
0.00047196
1.32279e-06
1.3536e-05
0.000473476
1.47069e-05
9.10776e-06
0.000485943
-4.16809e-06
5.27595e-06
0.000502753
-4.39084e-05
3.87113e-06
0.000514303
-6.40688e-05
1.16939e-05
0.000510196
-3.9664e-05
2.89128e-05
0.000491661
6.32776e-06
4.54935e-05
0.000466728
4.05508e-05
4.82866e-05
0.000441768
5.39147e-05
3.64978e-05
0.000422604
5.55939e-05
2.54823e-05
0.000415153
5.03186e-05
2.54466e-05
0.000420083
3.56893e-05
2.85141e-05
0.000432523
1.41653e-05
2.24918e-05
0.000446711
-3.28493e-06
9.37201e-06
0.000456699
-6.41402e-06
1.25214e-06
3.14605e-06
4.30458e-06
0.00051672
2.64505e-05
1.65528e-05
0.000513995
3.78063e-05
3.24825e-05
0.000517944
4.89728e-05
3.63269e-05
0.000530235
5.01077e-05
2.24415e-05
0.000547682
3.35574e-05
-1.78247e-06
0.000569684
8.82991e-06
-2.1907e-05
0.000596876
-6.90612e-06
-3.54337e-05
0.000622732
-9.74256e-06
-5.01957e-05
0.000634226
-1.05887e-05
-6.81783e-05
0.000627201
-1.47764e-05
-7.92556e-05
0.0006115
-1.19956e-05
-7.34396e-05
0.000597203
2.80804e-06
-5.23821e-05
0.000584747
1.74424e-05
-2.79262e-05
0.00057037
2.1277e-05
-9.44108e-06
0.000554581
1.88257e-05
2.99636e-06
0.000540707
1.46158e-05
1.30715e-05
0.000531261
6.35328e-06
2.29868e-05
0.000528034
-5.22419e-06
2.94034e-05
0.000535038
-1.45133e-05
2.61606e-05
0.000553304
-1.85716e-05
1.29201e-05
0.000574415
-2.32966e-05
4.92329e-07
0.000582791
-3.29054e-05
2.80742e-06
0.000570807
-3.94039e-05
2.37308e-05
0.000547408
-2.89646e-05
4.776e-05
0.000530548
2.56141e-07
5.53649e-05
0.000529843
2.83142e-05
4.09548e-05
0.000541229
2.84604e-05
1.43675e-05
0.000555856
-4.99594e-06
-3.2177e-06
0.000565665
-4.0971e-05
2.03458e-07
0.00056111
-3.7713e-05
1.82955e-05
0.000539768
3.727e-06
3.65804e-05
0.000509604
4.67125e-05
4.35702e-05
0.00048156
6.82739e-05
3.70112e-05
0.000464263
7.23297e-05
2.77526e-05
0.000460617
6.70314e-05
2.63967e-05
0.000467258
5.37706e-05
2.99324e-05
0.00047916
3.46203e-05
2.85455e-05
0.00049369
1.80956e-05
1.82512e-05
0.0005079
1.24681e-05
6.41956e-06
1.71744e-05
4.33503e-06
0.000571507
2.99051e-05
2.72144e-05
0.000567506
3.40665e-05
3.83887e-05
0.000569979
3.65799e-05
4.58882e-05
0.000581873
3.2315e-05
4.29982e-05
0.000599559
1.64028e-05
2.49906e-05
0.000618918
-4.93831e-06
-2.68367e-06
0.000641279
-2.14107e-05
-2.79454e-05
0.000667504
-2.52128e-05
-4.47627e-05
0.000688828
-1.82567e-05
-5.56429e-05
0.000693346
-6.68231e-06
-6.50338e-05
0.000681712
6.46634e-06
-7.01562e-05
0.000666234
1.9407e-05
-6.4925e-05
0.000655945
2.62896e-05
-4.98012e-05
0.000648877
2.41984e-05
-3.18295e-05
0.000639466
1.91317e-05
-1.68525e-05
0.000625746
1.51701e-05
-6.05268e-06
0.000609779
9.00565e-06
4.05076e-06
0.000598286
-2.2524e-06
1.67619e-05
0.000599866
-1.81382e-05
2.8699e-05
0.000617077
-3.67733e-05
3.24728e-05
0.000639183
-5.37637e-05
2.661e-05
0.000649032
-6.00063e-05
2.05042e-05
0.000639143
-4.99093e-05
2.85692e-05
0.000617945
-2.545e-05
5.01948e-05
0.000598749
7.60746e-06
6.27825e-05
0.000588391
3.54667e-05
4.70725e-05
0.000586825
3.96976e-05
1.02133e-05
0.00059373
1.2161e-05
-1.95532e-05
0.000605141
-2.81905e-05
-2.15989e-05
0.000609156
-4.21092e-05
-4.96689e-07
0.000596237
-1.20672e-05
2.48299e-05
0.000571923
3.72962e-05
3.99309e-05
0.000551208
7.32697e-05
3.95653e-05
0.000542962
8.89251e-05
2.65852e-05
0.000544929
8.73848e-05
1.10196e-05
0.000550251
7.18092e-05
1.63349e-06
0.000555355
4.88053e-05
7.27792e-07