/*--------------------------------*- C++ -*----------------------------------*\
| =========                 |                                                 |
| \\      /  F ield         | OpenFOAM: The Open Source CFD Toolbox           |
|  \\    /   O peration     | Version:  2306                                  |
|   \\  /    A nd           | Website:  www.openfoam.com                      |
|    \\/     M anipulation  |                                                 |
\*---------------------------------------------------------------------------*/
FoamFile
{
    version     2.0;
    format      ascii;
    arch        "LSB;label=32;scalar=64";
    class       volScalarField;
    location    "6";
    object      pPrime2Mean;
}
// * * * * * * * * * * * * * * * * * * * * * * * * * * * * * * * * * * * * * //

dimensions      [0 4 -4 0 0 0 0];

internalField   nonuniform List<scalar> 
60000
(
3.54097e-09
9.47137e-09
2.06742e-08
3.03258e-08
3.39539e-08
3.2491e-08
2.91152e-08
2.481e-08
1.99381e-08
1.80193e-08
2.30241e-08
3.27548e-08
3.96751e-08
3.81089e-08
2.89281e-08
1.77091e-08
9.93022e-09
7.03521e-09
6.36558e-09
5.81494e-09
7.46279e-09
1.59489e-08
3.07697e-08
4.35284e-08
4.55133e-08
3.57637e-08
2.2349e-08
1.5311e-08
1.83206e-08
2.77716e-08
3.55336e-08
3.44176e-08
2.58378e-08
1.78053e-08
1.3451e-08
1.18036e-08
1.22645e-08
1.31906e-08
1.09327e-08
5.58152e-09
3.34311e-09
9.10625e-09
2.03516e-08
3.02204e-08
3.40185e-08
3.25387e-08
2.90473e-08
2.4657e-08
1.97491e-08
1.78277e-08
2.29043e-08
3.27607e-08
3.97855e-08
3.82778e-08
2.91149e-08
1.78674e-08
1.00296e-08
7.08414e-09
6.38342e-09
5.79072e-09
7.38208e-09
1.58401e-08
3.06848e-08
4.3496e-08
4.55209e-08
3.57608e-08
2.23157e-08
1.5244e-08
1.82591e-08
2.77936e-08
3.57251e-08
3.4771e-08
2.62118e-08
1.8089e-08
1.36455e-08
1.19137e-08
1.23273e-08
1.32605e-08
1.10328e-08
5.60202e-09
3.08482e-09
8.76654e-09
2.02106e-08
3.04441e-08
3.44792e-08
3.29426e-08
2.92358e-08
2.4655e-08
1.96065e-08
1.75346e-08
2.26009e-08
3.26734e-08
3.99825e-08
3.86715e-08
2.95417e-08
1.8174e-08
1.01604e-08
7.09475e-09
6.33716e-09
5.69665e-09
7.24971e-09
1.57533e-08
3.07283e-08
4.36609e-08
4.56762e-08
3.57786e-08
2.21763e-08
1.50072e-08
1.80407e-08
2.7755e-08
3.59886e-08
3.52754e-08
2.67212e-08
1.84676e-08
1.38794e-08
1.19819e-08
1.22951e-08
1.32704e-08
1.1118e-08
5.58231e-09
2.75784e-09
8.4642e-09
2.02932e-08
3.10752e-08
3.54302e-08
3.38053e-08
2.9772e-08
2.48718e-08
1.95585e-08
1.71787e-08
2.21097e-08
3.24495e-08
4.02307e-08
3.92884e-08
3.02456e-08
1.86708e-08
1.03382e-08
7.06512e-09
6.21342e-09
5.51064e-09
7.07669e-09
1.57518e-08
3.09944e-08
4.4107e-08
4.60051e-08
3.57797e-08
2.18704e-08
1.45724e-08
1.77246e-08
2.77588e-08
3.63873e-08
3.59218e-08
2.73221e-08
1.89283e-08
1.41797e-08
1.20293e-08
1.21715e-08
1.32244e-08
1.11893e-08
5.5218e-09
2.37147e-09
8.10795e-09
2.0413e-08
3.19037e-08
3.67291e-08
3.5067e-08
3.06736e-08
2.53738e-08
1.97288e-08
1.69252e-08
2.14944e-08
3.19639e-08
4.02886e-08
3.99099e-08
3.11369e-08
1.93953e-08
1.06318e-08
7.02756e-09
6.0276e-09
5.24132e-09
6.83889e-09
1.57661e-08
3.13526e-08
4.47068e-08
4.65764e-08
3.60058e-08
2.1685e-08
1.4166e-08
1.74905e-08
2.79973e-08
3.70331e-08
3.66905e-08
2.79177e-08
1.94159e-08
1.4614e-08
1.22047e-08
1.20978e-08
1.32269e-08
1.13216e-08
5.46517e-09
1.93188e-09
7.62897e-09
2.04936e-08
3.27339e-08
3.81356e-08
3.65403e-08
3.18426e-08
2.61017e-08
2.01406e-08
1.698e-08
2.10445e-08
3.13179e-08
3.99948e-08
4.02169e-08
3.195e-08
2.02709e-08
1.10979e-08
7.05881e-09
5.80081e-09
4.83456e-09
6.42963e-09
1.56514e-08
3.15816e-08
4.50619e-08
4.69273e-08
3.62491e-08
2.18029e-08
1.43644e-08
1.79122e-08
2.88373e-08
3.82292e-08
3.77816e-08
2.85334e-08
1.98554e-08
1.51424e-08
1.25953e-08
1.22596e-08
1.35342e-08
1.17581e-08
5.53671e-09
1.57069e-09
6.56752e-09
1.98755e-08
3.34146e-08
4.00966e-08
3.87229e-08
3.35354e-08
2.69886e-08
2.05521e-08
1.73318e-08
2.11365e-08
3.09803e-08
3.95676e-08
4.01226e-08
3.24015e-08
2.10793e-08
1.16979e-08
7.21235e-09
5.5993e-09
4.29019e-09
5.68948e-09
1.52592e-08
3.19037e-08
4.57239e-08
4.73208e-08
3.60855e-08
2.13857e-08
1.45314e-08
1.91384e-08
3.10783e-08
4.08289e-08
3.98557e-08
2.95954e-08
2.02657e-08
1.55491e-08
1.30492e-08
1.26537e-08
1.42449e-08
1.30408e-08
6.42996e-09
1.70289e-09
5.00205e-09
1.82356e-08
3.31871e-08
4.1897e-08
4.17241e-08
3.61553e-08
2.8528e-08
2.1022e-08
1.73715e-08
2.15723e-08
3.16636e-08
3.98815e-08
4.00013e-08
3.24502e-08
2.15814e-08
1.22854e-08
7.48351e-09
5.47797e-09
3.69426e-09
4.73533e-09
1.48659e-08
3.28329e-08
4.72671e-08
4.80672e-08
3.53042e-08
1.95172e-08
1.30948e-08
1.9647e-08
3.36045e-08
4.4378e-08
4.3154e-08
3.18036e-08
2.14259e-08
1.59531e-08
1.29347e-08
1.25352e-08
1.49519e-08
1.49973e-08
8.40695e-09
2.7117e-09
3.41728e-09
1.59442e-08
3.22436e-08
4.34935e-08
4.53215e-08
3.97607e-08
3.07985e-08
2.19925e-08
1.74302e-08
2.11577e-08
3.19932e-08
4.11935e-08
4.11557e-08
3.28835e-08
2.17538e-08
1.26679e-08
7.78454e-09
5.39932e-09
3.1521e-09
4.03652e-09
1.52808e-08
3.53577e-08
5.03884e-08
4.91676e-08
3.35392e-08
1.5884e-08
9.52565e-09
1.83085e-08
3.55571e-08
4.86687e-08
4.71342e-08
3.37682e-08
2.21948e-08
1.65092e-08
1.31423e-08
1.23448e-08
1.53066e-08
1.70544e-08
1.13067e-08
4.81872e-09
2.18329e-09
1.30353e-08
3.02662e-08
4.44468e-08
4.9216e-08
4.44309e-08
3.41374e-08
2.33452e-08
1.75654e-08
2.03484e-08
3.06382e-08
4.04154e-08
4.16413e-08
3.42599e-08
2.31747e-08
1.34896e-08
8.14428e-09
5.35662e-09
2.62748e-09
3.8178e-09
1.73147e-08
4.08377e-08
5.68192e-08
5.26443e-08
3.28358e-08
1.2214e-08
4.88102e-09
1.49742e-08
3.56477e-08
5.2326e-08
5.19772e-08
3.6554e-08
2.31862e-08
1.70364e-08
1.33567e-08
1.23494e-08
1.5643e-08
1.90072e-08
1.47534e-08
7.78727e-09
1.65989e-09
9.43153e-09
2.62392e-08
4.3092e-08
5.2173e-08
5.00031e-08
3.88313e-08
2.57381e-08
1.78325e-08
1.90593e-08
2.82619e-08
3.77809e-08
3.97068e-08
3.38668e-08
2.45416e-08
1.55299e-08
9.42553e-09
5.59303e-09
2.2058e-09
4.02531e-09
2.08361e-08
4.96309e-08
6.78173e-08
6.08526e-08
3.64832e-08
1.19486e-08
1.71667e-09
1.01709e-08
3.17998e-08
5.20076e-08
5.4924e-08
4.01758e-08
2.60763e-08
1.93661e-08
1.4707e-08
1.25854e-08
1.55726e-08
1.99685e-08
1.78333e-08
1.01808e-08
1.93576e-09
5.73102e-09
2.03306e-08
3.7952e-08
5.14541e-08
5.43585e-08
4.49319e-08
2.95214e-08
1.88232e-08
1.81745e-08
2.57515e-08
3.40451e-08
3.57079e-08
3.07244e-08
2.32983e-08
1.64545e-08
1.12268e-08
6.79646e-09
2.67407e-09
4.80525e-09
2.40286e-08
5.75738e-08
7.8796e-08
7.11527e-08
4.44539e-08
1.64355e-08
1.55257e-09
5.22709e-09
2.365e-08
4.52695e-08
5.34989e-08
4.37868e-08
3.0895e-08
2.38219e-08
1.79044e-08
1.39261e-08
1.51283e-08
1.90873e-08
1.87532e-08
1.09488e-08
2.46441e-09
2.71231e-09
1.38924e-08
3.00062e-08
4.5756e-08
5.43129e-08
4.9711e-08
3.41194e-08
2.0498e-08
1.78309e-08
2.40772e-08
3.12732e-08
3.18851e-08
2.6294e-08
1.96499e-08
1.48852e-08
1.17462e-08
8.68448e-09
5.22821e-09
7.05082e-09
2.47795e-08
5.74968e-08
8.10627e-08
7.58042e-08
5.12266e-08
2.29254e-08
4.04909e-09
1.68736e-09
1.41475e-08
3.36994e-08
4.68113e-08
4.4959e-08
3.60055e-08
2.89662e-08
2.20556e-08
1.66357e-08
1.56796e-08
1.73457e-08
1.73929e-08
1.04553e-08
3.08751e-09
1.17175e-09
8.40123e-09
2.15274e-08
3.68864e-08
4.91722e-08
5.01257e-08
3.70682e-08
2.19529e-08
1.7738e-08
2.32324e-08
3.0333e-08
3.10059e-08
2.45835e-08
1.7287e-08
1.29814e-08
1.11503e-08
9.98186e-09
8.44714e-09
1.00962e-08
2.38054e-08
5.15169e-08
7.5431e-08
7.51255e-08
5.45997e-08
2.87277e-08
8.3144e-09
5.83073e-10
6.87855e-09
2.2062e-08
3.74167e-08
4.32571e-08
3.9928e-08
3.31568e-08
2.57752e-08
1.92541e-08
1.63235e-08
1.58709e-08
1.50661e-08
1.00498e-08
4.90204e-09
1.74324e-09
4.69738e-09
1.41605e-08
2.76455e-08
4.09649e-08
4.59851e-08
3.70121e-08
2.28641e-08
1.75088e-08
2.25207e-08
2.98814e-08
3.19988e-08
2.67009e-08
1.88157e-08
1.33409e-08
1.09821e-08
9.85939e-09
9.0948e-09
1.0931e-08
2.14009e-08
4.34136e-08
6.61307e-08
7.04568e-08
5.54102e-08
3.38364e-08
1.36528e-08
1.9057e-09
3.13442e-09
1.42456e-08
2.89893e-08
3.90289e-08
4.10524e-08
3.5936e-08
2.86796e-08
2.16917e-08
1.71168e-08
1.47729e-08
1.32185e-08
1.02603e-08
7.373e-09
4.16395e-09
3.61235e-09
9.01938e-09
1.97891e-08
3.19451e-08
3.84297e-08
3.32769e-08
2.21925e-08
1.76398e-08
2.22128e-08
2.92144e-08
3.21837e-08
2.86321e-08
2.1623e-08
1.55679e-08
1.20313e-08
9.67518e-09
8.57004e-09
1.13134e-08
1.99705e-08
3.61919e-08
5.46894e-08
6.09322e-08
5.12374e-08
3.6348e-08
1.9495e-08
5.2198e-09
2.07487e-09
9.47411e-09
2.20719e-08
3.32928e-08
3.88148e-08
3.78304e-08
3.24046e-08
2.47887e-08
1.79589e-08
1.40826e-08
1.22099e-08
1.06188e-08
9.58427e-09
7.11115e-09
5.25335e-09
7.68599e-09
1.49774e-08
2.39587e-08
2.93685e-08
2.70265e-08
1.97848e-08
1.69582e-08
2.18768e-08
2.94217e-08
3.31327e-08
2.98811e-08
2.30312e-08
1.69832e-08
1.33235e-08
1.05366e-08
9.35783e-09
1.30581e-08
2.08462e-08
3.16158e-08
4.38064e-08
4.89381e-08
4.29441e-08
3.34408e-08
2.20938e-08
9.49719e-09
3.48528e-09
6.89811e-09
1.71183e-08
2.87115e-08
3.61439e-08
3.72168e-08
3.36077e-08
2.70493e-08
1.96283e-08
1.4485e-08
1.18223e-08
9.97597e-09
1.11655e-08
1.08596e-08
9.13221e-09
9.3628e-09
1.26653e-08
1.72987e-08
2.00345e-08
1.91038e-08
1.63455e-08
1.64105e-08
2.1732e-08
2.9808e-08
3.41222e-08
3.17254e-08
2.51361e-08
1.84057e-08
1.35492e-08
1.03545e-08
9.8085e-09
1.44402e-08
2.18121e-08
2.98846e-08
3.82941e-08
4.17721e-08
3.69371e-08
2.95032e-08
2.1354e-08
1.1622e-08
5.69191e-09
7.63406e-09
1.66138e-08
2.81655e-08
3.65903e-08
3.81811e-08
3.32498e-08
2.53157e-08
1.76916e-08
1.25432e-08
9.88712e-09
9.39617e-09
1.22597e-08
1.36573e-08
1.31392e-08
1.3436e-08
1.5112e-08
1.6004e-08
1.45667e-08
1.1823e-08
1.08203e-08
1.35714e-08
2.01513e-08
2.85612e-08
3.46249e-08
3.46133e-08
2.98486e-08
2.33951e-08
1.75803e-08
1.29145e-08
1.09734e-08
1.34839e-08
1.86875e-08
2.41774e-08
3.15464e-08
3.74205e-08
3.57895e-08
2.8774e-08
2.11048e-08
1.21239e-08
6.1166e-09
7.99109e-09
1.68851e-08
2.84764e-08
3.64812e-08
3.7307e-08
3.25171e-08
2.46065e-08
1.61012e-08
1.0067e-08
7.95296e-09
8.85924e-09
1.1791e-08
1.44376e-08
1.57164e-08
1.63769e-08
1.72041e-08
1.70555e-08
1.51795e-08
1.24499e-08
1.04303e-08
1.08341e-08
1.42874e-08
2.02571e-08
2.67342e-08
3.07183e-08
3.06055e-08
2.79441e-08
2.47138e-08
2.11312e-08
1.71098e-08
1.49169e-08
1.51806e-08
1.74471e-08
2.41984e-08
3.3259e-08
3.66102e-08
3.15348e-08
2.26141e-08
1.29384e-08
6.14379e-09
6.8242e-09
1.50384e-08
2.66951e-08
3.53903e-08
3.70702e-08
3.25505e-08
2.44529e-08
1.59128e-08
1.00224e-08
7.76173e-09
6.9664e-09
8.91659e-09
1.27089e-08
1.72189e-08
2.13505e-08
2.31945e-08
2.08832e-08
1.60947e-08
1.20012e-08
1.0393e-08
1.10555e-08
1.32224e-08
1.61845e-08
1.99503e-08
2.43638e-08
2.77065e-08
2.86448e-08
2.78992e-08
2.59525e-08
2.20577e-08
1.76759e-08
1.48281e-08
1.52503e-08
2.17186e-08
3.25671e-08
3.92452e-08
3.49538e-08
2.34769e-08
1.14723e-08
3.74649e-09
5.06168e-09
1.5244e-08
3.0455e-08
4.24474e-08
4.46689e-08
3.74782e-08
2.7109e-08
1.80186e-08
1.16251e-08
7.92305e-09
1.14583e-08
1.04323e-08
9.88077e-09
1.13029e-08
1.52177e-08
1.92171e-08
2.02702e-08
1.77226e-08
1.37265e-08
1.14395e-08
1.16275e-08
1.35772e-08
1.58962e-08
1.78623e-08
2.01058e-08
2.30141e-08
2.55247e-08
2.75123e-08
2.82734e-08
2.59012e-08
2.09666e-08
1.68899e-08
1.55564e-08
1.96595e-08
2.89664e-08
3.71294e-08
3.65584e-08
2.71805e-08
1.40701e-08
3.42976e-09
2.61679e-09
1.30184e-08
3.07641e-08
4.77083e-08
5.37151e-08
4.56996e-08
3.1696e-08
1.99441e-08
1.42108e-08
1.24319e-08
1.37493e-08
1.30897e-08
1.18755e-08
1.08665e-08
1.11752e-08
1.30242e-08
1.50642e-08
1.60022e-08
1.57844e-08
1.51503e-08
1.48982e-08
1.57939e-08
1.71157e-08
1.85751e-08
2.01932e-08
2.17111e-08
2.29104e-08
2.38098e-08
2.4579e-08
2.41622e-08
2.17911e-08
1.85306e-08
1.6535e-08
1.82154e-08
2.41253e-08
3.02462e-08
3.04525e-08
2.37698e-08
1.42343e-08
5.97541e-09
3.68312e-09
1.00054e-08
2.3013e-08
3.65138e-08
4.32099e-08
4.03473e-08
3.15889e-08
2.29417e-08
1.71382e-08
1.45044e-08
1.48921e-08
1.14898e-08
8.56648e-09
7.6358e-09
9.60172e-09
1.38965e-08
1.85994e-08
2.17302e-08
2.21849e-08
2.06455e-08
1.86963e-08
1.67557e-08
1.5177e-08
1.50463e-08
1.72449e-08
2.09139e-08
2.43408e-08
2.65191e-08
2.68165e-08
2.49483e-08
2.11956e-08
1.7604e-08
1.51945e-08
1.4601e-08
1.75576e-08
2.32064e-08
2.68787e-08
2.47309e-08
1.79094e-08
1.04543e-08
6.71931e-09
9.40081e-09
1.78447e-08
2.83571e-08
3.54574e-08
3.60651e-08
3.17696e-08
2.58239e-08
2.10633e-08
1.78332e-08
1.64399e-08
1.23246e-08
8.43464e-09
6.33602e-09
8.01474e-09
1.28328e-08
1.8912e-08
2.37963e-08
2.54242e-08
2.4136e-08
2.17973e-08
1.94452e-08
1.80002e-08
1.78876e-08
1.88549e-08
2.10003e-08
2.39959e-08
2.65579e-08
2.82658e-08
2.79436e-08
2.38861e-08
1.73667e-08
1.17894e-08
9.11552e-09
1.08068e-08
1.6858e-08
2.37168e-08
2.65017e-08
2.33326e-08
1.75268e-08
1.2643e-08
1.1253e-08
1.55841e-08
2.32193e-08
3.00174e-08
3.32031e-08
3.2246e-08
2.82675e-08
2.37079e-08
1.99061e-08
3.98274e-09
3.73447e-15
4.6222e-09
1.73392e-08
3.2238e-08
4.16151e-08
4.18683e-08
3.46068e-08
2.48299e-08
1.97516e-08
2.38003e-08
3.2519e-08
3.68845e-08
3.2992e-08
2.39188e-08
1.52698e-08
1.07182e-08
1.00833e-08
1.01918e-08
8.64385e-09
8.10592e-09
1.51678e-08
3.2537e-08
5.28177e-08
6.25807e-08
5.38501e-08
3.42244e-08
2.00377e-08
1.64703e-08
1.84226e-08
2.16158e-08
2.43727e-08
2.45728e-08
2.09994e-08
1.56594e-08
1.26655e-08
1.45955e-08
1.88207e-08
1.9412e-08
1.29119e-08
4.18319e-09
4.78542e-12
4.31273e-09
1.67796e-08
3.16812e-08
4.12476e-08
4.17016e-08
3.45366e-08
2.47589e-08
1.96535e-08
2.37375e-08
3.25721e-08
3.70403e-08
3.31606e-08
2.40487e-08
1.53574e-08
1.07725e-08
1.01222e-08
1.02288e-08
8.65506e-09
8.01293e-09
1.48595e-08
3.19827e-08
5.21851e-08
6.21744e-08
5.38275e-08
3.44213e-08
2.02493e-08
1.66796e-08
1.86093e-08
2.17352e-08
2.4485e-08
2.48054e-08
2.13426e-08
1.59846e-08
1.29041e-08
1.47717e-08
1.9003e-08
1.96451e-08
1.31703e-08
4.5057e-09
2.94308e-11
4.03655e-09
1.64099e-08
3.15514e-08
4.1449e-08
4.20349e-08
3.47756e-08
2.47783e-08
1.94765e-08
2.35706e-08
3.26068e-08
3.72661e-08
3.34216e-08
2.4242e-08
1.54636e-08
1.08198e-08
1.01605e-08
1.02811e-08
8.66623e-09
7.89408e-09
1.45579e-08
3.15647e-08
5.1844e-08
6.21002e-08
5.40043e-08
3.4617e-08
2.03665e-08
1.68162e-08
1.87305e-08
2.17071e-08
2.44098e-08
2.49688e-08
2.17712e-08
1.64283e-08
1.3163e-08
1.4919e-08
1.92495e-08
2.00859e-08
1.36616e-08
4.98019e-09
1.07143e-10
3.87597e-09
1.63706e-08
3.20163e-08
4.23686e-08
4.29929e-08
3.54121e-08
2.49404e-08
1.923e-08
2.32365e-08
3.25436e-08
3.75112e-08
3.37541e-08
2.44826e-08
1.55686e-08
1.08391e-08
1.01783e-08
1.03374e-08
8.676e-09
7.77588e-09
1.43899e-08
3.15252e-08
5.20704e-08
6.25217e-08
5.4356e-08
3.46564e-08
2.02292e-08
1.67908e-08
1.87868e-08
2.15843e-08
2.41406e-08
2.49494e-08
2.21434e-08
1.69178e-08
1.34572e-08
1.5093e-08
1.96408e-08
2.08422e-08
1.44611e-08
5.71866e-09
3.12131e-10
3.83716e-09
1.66038e-08
3.30079e-08
4.39739e-08
4.46031e-08
3.65281e-08
2.53977e-08
1.90784e-08
2.27926e-08
3.22699e-08
3.75877e-08
3.40069e-08
2.46971e-08
1.56529e-08
1.08329e-08
1.01784e-08
1.03786e-08
8.66273e-09
7.65263e-09
1.43529e-08
3.18354e-08
5.27985e-08
6.33704e-08
5.49688e-08
3.47305e-08
1.9989e-08
1.66973e-08
1.88942e-08
2.15478e-08
2.37947e-08
2.46417e-08
2.21842e-08
1.72225e-08
1.3747e-08
1.5401e-08
2.03392e-08
2.20661e-08
1.57097e-08
6.92103e-09
7.64654e-10
3.86893e-09
1.6847e-08
3.41801e-08
4.60162e-08
4.67351e-08
3.80926e-08
2.6232e-08
1.9295e-08
2.25696e-08
3.19179e-08
3.73824e-08
3.39583e-08
2.47201e-08
1.56638e-08
1.08098e-08
1.01839e-08
1.04327e-08
8.61478e-09
7.42167e-09
1.41728e-08
3.20029e-08
5.34148e-08
6.43426e-08
5.60155e-08
3.54309e-08
2.02942e-08
1.70733e-08
1.94736e-08
2.19557e-08
2.37052e-08
2.41886e-08
2.17199e-08
1.70297e-08
1.38555e-08
1.59214e-08
2.15881e-08
2.40546e-08
1.76763e-08
9.05941e-09
1.72686e-09
3.9407e-09
1.67262e-08
3.49816e-08
4.80497e-08
4.91021e-08
3.98938e-08
2.72468e-08
1.9845e-08
2.28789e-08
3.19881e-08
3.72543e-08
3.36788e-08
2.44206e-08
1.54652e-08
1.07302e-08
1.02091e-08
1.05292e-08
8.52341e-09
6.86441e-09
1.33448e-08
3.14777e-08
5.36555e-08
6.54677e-08
5.763e-08
3.67209e-08
2.11973e-08
1.84373e-08
2.1375e-08
2.3654e-08
2.45571e-08
2.41845e-08
2.10494e-08
1.62162e-08
1.34961e-08
1.65469e-08
2.36032e-08
2.72576e-08
2.09255e-08
1.2351e-08
3.39787e-09
3.93484e-09
1.5671e-08
3.46566e-08
4.96911e-08
5.17764e-08
4.21535e-08
2.85673e-08
2.02563e-08
2.28224e-08
3.20599e-08
3.75436e-08
3.38704e-08
2.42097e-08
1.50702e-08
1.04623e-08
1.01597e-08
1.06376e-08
8.41137e-09
5.94314e-09
1.16691e-08
3.00843e-08
5.37123e-08
6.71484e-08
6.00815e-08
3.84995e-08
2.19863e-08
1.97889e-08
2.42408e-08
2.68704e-08
2.68386e-08
2.53952e-08
2.12618e-08
1.55768e-08
1.27331e-08
1.69e-08
2.59192e-08
3.13602e-08
2.53952e-08
1.65476e-08
5.83684e-09
4.09481e-09
1.36069e-08
3.25272e-08
5.00146e-08
5.46905e-08
4.52113e-08
3.05893e-08
2.1053e-08
2.22137e-08
3.07209e-08
3.65912e-08
3.39329e-08
2.48011e-08
1.53237e-08
1.02319e-08
9.88217e-09
1.0571e-08
8.28707e-09
5.0399e-09
9.66942e-09
2.78612e-08
5.22374e-08
6.6654e-08
6.0301e-08
3.88038e-08
2.19084e-08
2.03003e-08
2.70013e-08
3.11329e-08
3.0084e-08
2.69683e-08
2.19571e-08
1.60056e-08
1.28118e-08
1.71474e-08
2.73314e-08
3.50009e-08
3.03857e-08
2.12547e-08
9.05451e-09
4.86648e-09
1.13135e-08
2.90536e-08
4.88164e-08
5.71825e-08
4.91057e-08
3.34237e-08
2.22189e-08
2.18832e-08
2.91098e-08
3.46065e-08
3.26647e-08
2.49932e-08
1.63478e-08
1.09293e-08
9.83581e-09
1.02631e-08
8.0817e-09
4.6055e-09
8.54719e-09
2.63648e-08
5.05916e-08
6.39687e-08
5.64905e-08
3.52863e-08
1.93477e-08
1.92877e-08
2.89189e-08
3.60959e-08
3.52263e-08
3.00278e-08
2.2955e-08
1.6382e-08
1.3308e-08
1.79561e-08
2.82752e-08
3.71003e-08
3.47621e-08
2.58085e-08
1.26241e-08
6.17404e-09
9.33998e-09
2.47787e-08
4.64137e-08
5.90909e-08
5.36579e-08
3.68989e-08
2.36026e-08
2.14992e-08
2.75239e-08
3.23417e-08
3.04945e-08
2.39564e-08
1.67789e-08
1.20366e-08
1.05634e-08
1.03127e-08
7.87678e-09
4.67399e-09
9.03429e-09
2.73107e-08
5.11364e-08
6.18926e-08
5.12895e-08
2.98914e-08
1.49544e-08
1.60479e-08
2.86804e-08
4.01128e-08
4.15973e-08
3.54231e-08
2.63244e-08
1.83313e-08
1.43108e-08
1.83929e-08
2.80432e-08
3.69764e-08
3.73177e-08
2.83402e-08
1.51663e-08
6.94878e-09
7.34975e-09
1.95313e-08
4.16121e-08
5.90324e-08
5.81665e-08
4.13401e-08
2.52026e-08
2.0922e-08
2.60847e-08
3.05949e-08
2.85985e-08
2.23399e-08
1.62948e-08
1.26327e-08
1.14345e-08
1.0871e-08
8.23219e-09
5.55281e-09
1.12396e-08
3.08436e-08
5.49385e-08
6.31387e-08
4.86837e-08
2.70184e-08
1.21552e-08
1.17059e-08
2.4588e-08
3.96098e-08
4.53646e-08
4.08104e-08
3.11826e-08
2.23662e-08
1.7276e-08
1.98847e-08
2.77953e-08
3.51924e-08
3.71259e-08
2.81196e-08
1.58421e-08
6.74667e-09
5.25102e-09
1.40687e-08
3.42086e-08
5.44362e-08
5.92025e-08
4.5733e-08
2.7546e-08
2.09992e-08
2.55606e-08
3.02049e-08
2.79197e-08
2.09812e-08
1.51167e-08
1.25445e-08
1.21728e-08
1.17901e-08
9.43401e-09
7.60786e-09
1.3838e-08
3.36315e-08
5.78407e-08
6.51865e-08
4.91609e-08
2.81605e-08
1.31605e-08
9.24921e-09
1.82952e-08
3.31427e-08
4.28139e-08
4.28687e-08
3.59645e-08
2.80665e-08
2.19368e-08
2.20159e-08
2.72418e-08
3.24317e-08
3.45413e-08
2.55871e-08
1.46452e-08
5.57371e-09
3.05369e-09
9.09974e-09
2.57732e-08
4.62016e-08
5.56721e-08
4.72289e-08
3.05239e-08
2.20802e-08
2.60521e-08
3.10808e-08
2.89028e-08
2.13015e-08
1.46527e-08
1.23359e-08
1.26865e-08
1.28382e-08
1.10867e-08
9.61374e-09
1.46546e-08
3.14262e-08
5.36192e-08
6.16865e-08
4.89067e-08
3.05811e-08
1.649e-08
9.62544e-09
1.34098e-08
2.45611e-08
3.47735e-08
3.92365e-08
3.73394e-08
3.31758e-08
2.759e-08
2.43383e-08
2.55526e-08
2.84452e-08
3.01927e-08
2.19525e-08
1.29676e-08
4.32521e-09
1.12713e-09
5.159e-09
1.82623e-08
3.68127e-08
4.90552e-08
4.594e-08
3.24084e-08
2.42223e-08
2.67404e-08
3.17199e-08
3.09157e-08
2.42657e-08
1.68988e-08
1.3062e-08
1.19499e-08
1.12707e-08
1.00952e-08
1.00388e-08
1.48212e-08
2.81948e-08
4.72747e-08
5.68507e-08
4.85426e-08
3.29184e-08
1.93792e-08
1.06149e-08
1.04058e-08
1.78615e-08
2.71114e-08
3.37592e-08
3.60404e-08
3.51099e-08
3.09303e-08
2.63791e-08
2.45695e-08
2.44269e-08
2.51063e-08
1.74358e-08
1.14144e-08
4.11365e-09
1.34548e-10
2.28382e-09
1.17045e-08
2.65702e-08
3.89999e-08
4.06395e-08
3.2335e-08
2.55277e-08
2.77881e-08
3.2836e-08
3.28163e-08
2.70985e-08
1.92404e-08
1.37591e-08
1.11651e-08
9.4961e-09
8.61938e-09
1.06641e-08
1.66785e-08
2.80119e-08
4.31882e-08
5.21385e-08
4.69239e-08
3.46924e-08
2.25811e-08
1.20564e-08
8.37506e-09
1.32914e-08
2.24216e-08
3.04425e-08
3.53973e-08
3.65562e-08
3.37974e-08
2.77907e-08
2.2773e-08
2.03026e-08
1.93815e-08
1.48342e-08
1.10882e-08
5.18623e-09
1.55799e-09
2.76797e-09
8.32904e-09
1.6573e-08
2.42867e-08
2.79652e-08
2.71958e-08
2.62484e-08
2.99794e-08
3.5523e-08
3.56121e-08
2.94234e-08
2.08825e-08
1.43637e-08
1.14466e-08
9.5908e-09
8.51315e-09
1.14301e-08
1.85312e-08
2.84725e-08
3.96532e-08
4.61733e-08
4.22998e-08
3.25404e-08
2.28363e-08
1.35364e-08
8.45141e-09
1.0863e-08
1.92147e-08
2.83618e-08
3.46144e-08
3.68598e-08
3.48372e-08
2.8816e-08
2.21633e-08
1.74948e-08
1.5704e-08
1.34154e-08
1.26509e-08
9.05916e-09
6.16829e-09
6.78466e-09
9.60621e-09
1.22415e-08
1.38158e-08
1.51167e-08
1.79977e-08
2.32874e-08
3.103e-08
3.83335e-08
3.92887e-08
3.26464e-08
2.25169e-08
1.46732e-08
1.12246e-08
9.88587e-09
9.33072e-09
1.22438e-08
1.90375e-08
2.78965e-08
3.74291e-08
4.3364e-08
4.00054e-08
3.06172e-08
2.13703e-08
1.31395e-08
8.38384e-09
1.01244e-08
1.78041e-08
2.69844e-08
3.37158e-08
3.65905e-08
3.45264e-08
2.75969e-08
1.96415e-08
1.4253e-08
1.27677e-08
1.26692e-08
1.47039e-08
1.38256e-08
1.21144e-08
1.29496e-08
1.49564e-08
1.3845e-08
9.74714e-09
7.0716e-09
8.84406e-09
1.49582e-08
2.44417e-08
3.43086e-08
3.94077e-08
3.66943e-08
2.85627e-08
1.97402e-08
1.38742e-08
1.10347e-08
1.00976e-08
1.21608e-08
1.75352e-08
2.44624e-08
3.32348e-08
4.0942e-08
4.05517e-08
3.14127e-08
2.09926e-08
1.24138e-08
7.89791e-09
9.64309e-09
1.67721e-08
2.57273e-08
3.23831e-08
3.4708e-08
3.25192e-08
2.62714e-08
1.80635e-08
1.19376e-08
1.05078e-08
1.18884e-08
1.47581e-08
1.64527e-08
1.63362e-08
1.54585e-08
1.50163e-08
1.40328e-08
1.13693e-08
8.6772e-09
7.56391e-09
9.36991e-09
1.48612e-08
2.2904e-08
2.99091e-08
3.27092e-08
3.04774e-08
2.59381e-08
2.1454e-08
1.78317e-08
1.4236e-08
1.21017e-08
1.32707e-08
1.80047e-08
2.63354e-08
3.63852e-08
4.08633e-08
3.51515e-08
2.33569e-08
1.29921e-08
8.02906e-09
9.86735e-09
1.707e-08
2.55228e-08
3.0871e-08
3.13689e-08
2.81465e-08
2.28343e-08
1.6593e-08
1.15997e-08
1.02037e-08
1.00733e-08
1.25584e-08
1.53507e-08
1.79632e-08
2.00942e-08
2.04856e-08
1.76314e-08
1.27777e-08
8.87241e-09
7.3538e-09
7.99449e-09
1.07998e-08
1.53796e-08
2.09945e-08
2.61561e-08
2.92823e-08
2.97943e-08
2.85599e-08
2.55432e-08
2.05497e-08
1.53022e-08
1.35309e-08
1.67469e-08
2.41418e-08
3.31649e-08
3.75656e-08
3.23498e-08
2.13318e-08
1.13148e-08
6.54625e-09
9.38573e-09
1.82784e-08
2.90056e-08
3.54064e-08
3.44767e-08
2.87119e-08
2.22947e-08
1.68268e-08
1.22198e-08
9.6197e-09
1.3948e-08
1.35519e-08
1.28768e-08
1.351e-08
1.61338e-08
1.8278e-08
1.75478e-08
1.4135e-08
1.0516e-08
8.84451e-09
9.56804e-09
1.15731e-08
1.37276e-08
1.56091e-08
1.80243e-08
2.13739e-08
2.50722e-08
2.83127e-08
3.00162e-08
2.82758e-08
2.36842e-08
1.97372e-08
1.93225e-08
2.26116e-08
2.84119e-08
3.23898e-08
2.98618e-08
2.14811e-08
1.19071e-08
5.74974e-09
6.65061e-09
1.54958e-08
2.81065e-08
3.78416e-08
3.9497e-08
3.33592e-08
2.42751e-08
1.74508e-08
1.42382e-08
1.36046e-08
1.46659e-08
1.44386e-08
1.36825e-08
1.28763e-08
1.32589e-08
1.43812e-08
1.47047e-08
1.36666e-08
1.19501e-08
1.14187e-08
1.2868e-08
1.5592e-08
1.78442e-08
1.86315e-08
1.82649e-08
1.77277e-08
1.8085e-08
1.97523e-08
2.23334e-08
2.35371e-08
2.23643e-08
2.00483e-08
1.9104e-08
2.15961e-08
2.66557e-08
3.05009e-08
2.89841e-08
2.19839e-08
1.36105e-08
7.62195e-09
6.80507e-09
1.2673e-08
2.31604e-08
3.31375e-08
3.70643e-08
3.39334e-08
2.69865e-08
2.08796e-08
1.69844e-08
1.5172e-08
1.54497e-08
1.3132e-08
1.08403e-08
9.51894e-09
1.02948e-08
1.26343e-08
1.53478e-08
1.72951e-08
1.79091e-08
1.768e-08
1.73151e-08
1.67547e-08
1.62057e-08
1.62422e-08
1.77817e-08
2.0292e-08
2.25129e-08
2.35894e-08
2.32028e-08
2.18886e-08
1.96657e-08
1.7339e-08
1.63413e-08
1.71264e-08
1.98379e-08
2.35591e-08
2.53841e-08
2.27134e-08
1.66788e-08
1.09447e-08
8.85558e-09
1.18989e-08
1.93973e-08
2.81649e-08
3.34486e-08
3.27918e-08
2.8385e-08
2.36675e-08
2.01779e-08
1.76678e-08
1.67377e-08
1.24012e-08
8.47947e-09
6.30112e-09
7.52625e-09
1.16231e-08
1.70045e-08
2.16778e-08
2.39226e-08
2.37522e-08
2.22312e-08
2.02224e-08
1.86135e-08
1.80635e-08
1.8718e-08
2.05758e-08
2.3163e-08
2.52787e-08
2.63499e-08
2.58059e-08
2.22181e-08
1.65622e-08
1.20123e-08
1.06473e-08
1.2762e-08
1.77715e-08
2.29403e-08
2.43359e-08
2.15432e-08
1.7005e-08
1.36727e-08
1.33378e-08
1.67578e-08
2.24599e-08
2.72853e-08
2.92857e-08
2.86274e-08
2.64651e-08
2.36979e-08
2.05534e-08
5.95042e-09
2.85473e-09
2.32463e-09
6.12238e-09
1.44803e-08
2.50603e-08
3.25029e-08
3.2467e-08
2.55421e-08
1.84979e-08
1.833e-08
2.43066e-08
2.90962e-08
2.74337e-08
2.11383e-08
1.53895e-08
1.29559e-08
1.29415e-08
1.27132e-08
1.1197e-08
1.10662e-08
1.69803e-08
3.02422e-08
4.53836e-08
5.40244e-08
5.13011e-08
3.94286e-08
2.68954e-08
1.99283e-08
1.86539e-08
2.17353e-08
2.68446e-08
2.92385e-08
2.65431e-08
2.05249e-08
1.51306e-08
1.29166e-08
1.24085e-08
1.13121e-08
9.21965e-09
6.03555e-09
2.84344e-09
2.21905e-09
5.92477e-09
1.4225e-08
2.4828e-08
3.23727e-08
3.24693e-08
2.56285e-08
1.85776e-08
1.83713e-08
2.43424e-08
2.91559e-08
2.74998e-08
2.11691e-08
1.53884e-08
1.29473e-08
1.29428e-08
1.2719e-08
1.11784e-08
1.09922e-08
1.6821e-08
2.99904e-08
4.50533e-08
5.36884e-08
5.10466e-08
3.92749e-08
2.67594e-08
1.97448e-08
1.8405e-08
2.14867e-08
2.68038e-08
2.95521e-08
2.71029e-08
2.10893e-08
1.55471e-08
1.3207e-08
1.26361e-08
1.14931e-08
9.36573e-09
6.05693e-09
2.77472e-09
2.06716e-09
5.73484e-09
1.40639e-08
2.47939e-08
3.25063e-08
3.27172e-08
2.58456e-08
1.86443e-08
1.83218e-08
2.43171e-08
2.92281e-08
2.76084e-08
2.12227e-08
1.53964e-08
1.29589e-08
1.29798e-08
1.27559e-08
1.11613e-08
1.08836e-08
1.66197e-08
2.97686e-08
4.48785e-08
5.35945e-08
5.10387e-08
3.92861e-08
2.6672e-08
1.95211e-08
1.79788e-08
2.0918e-08
2.64672e-08
2.98196e-08
2.79055e-08
2.2025e-08
1.62313e-08
1.36017e-08
1.28703e-08
1.16342e-08
9.4501e-09
6.00384e-09
2.63055e-09
1.85723e-09
5.5507e-09
1.40176e-08
2.50075e-08
3.29666e-08
3.3232e-08
2.61628e-08
1.8637e-08
1.812e-08
2.41896e-08
2.92999e-08
2.77651e-08
2.132e-08
1.54438e-08
1.30369e-08
1.31022e-08
1.28588e-08
1.116e-08
1.07713e-08
1.64787e-08
2.97592e-08
4.50779e-08
5.39205e-08
5.13589e-08
3.94531e-08
2.65978e-08
1.92763e-08
1.74646e-08
2.00772e-08
2.57532e-08
2.98538e-08
2.87685e-08
2.32644e-08
1.72393e-08
1.41981e-08
1.3187e-08
1.17652e-08
9.46523e-09
5.90478e-09
2.43132e-09
1.59599e-09
5.34771e-09
1.40273e-08
2.53947e-08
3.36886e-08
3.39636e-08
2.65425e-08
1.85256e-08
1.7711e-08
2.38489e-08
2.92297e-08
2.78491e-08
2.14368e-08
1.55481e-08
1.32274e-08
1.33649e-08
1.30761e-08
1.11894e-08
1.06472e-08
1.64301e-08
3.0063e-08
4.57812e-08
5.48289e-08
5.21464e-08
3.98488e-08
2.65445e-08
1.90662e-08
1.70842e-08
1.92424e-08
2.47531e-08
2.94651e-08
2.93518e-08
2.4575e-08
1.859e-08
1.51649e-08
1.37473e-08
1.19639e-08
9.4492e-09
5.81469e-09
2.21307e-09
1.28926e-09
5.07825e-09
1.39987e-08
2.58589e-08
3.46092e-08
3.48919e-08
2.70061e-08
1.8368e-08
1.7119e-08
2.31784e-08
2.87648e-08
2.7647e-08
2.13398e-08
1.566e-08
1.3564e-08
1.38222e-08
1.34545e-08
1.12714e-08
1.04185e-08
1.6173e-08
3.02498e-08
4.67067e-08
5.63568e-08
5.38692e-08
4.10434e-08
2.68575e-08
1.90532e-08
1.70528e-08
1.88464e-08
2.38613e-08
2.87061e-08
2.93569e-08
2.55891e-08
2.01799e-08
1.66638e-08
1.48033e-08
1.24117e-08
9.49797e-09
5.85242e-09
2.0296e-09
9.39976e-10
4.68188e-09
1.37291e-08
2.60855e-08
3.55268e-08
3.60117e-08
2.76755e-08
1.83539e-08
1.65671e-08
2.22851e-08
2.77352e-08
2.66795e-08
2.07059e-08
1.55711e-08
1.39946e-08
1.45046e-08
1.40508e-08
1.14505e-08
1.00055e-08
1.52501e-08
2.93426e-08
4.66259e-08
5.7774e-08
5.67604e-08
4.40408e-08
2.85609e-08
1.98468e-08
1.77e-08
1.93034e-08
2.37859e-08
2.81957e-08
2.88819e-08
2.59897e-08
2.17847e-08
1.8849e-08
1.67147e-08
1.34816e-08
9.83792e-09
6.29638e-09
2.0412e-09
5.76685e-10
4.11337e-09
1.30882e-08
2.56712e-08
3.58633e-08
3.69278e-08
2.85125e-08
1.87143e-08
1.63053e-08
2.14953e-08
2.65901e-08
2.54673e-08
1.98359e-08
1.54208e-08
1.4472e-08
1.53216e-08
1.48332e-08
1.17329e-08
9.39166e-09
1.35248e-08
2.70466e-08
4.51419e-08
5.85143e-08
6.02603e-08
4.84116e-08
3.1835e-08
2.1938e-08
1.9118e-08
2.02184e-08
2.45179e-08
2.89261e-08
2.92765e-08
2.63161e-08
2.32461e-08
2.16711e-08
1.98063e-08
1.56855e-08
1.08921e-08
7.53729e-09
2.45164e-09
3.25793e-10
3.4123e-09
1.21533e-08
2.47798e-08
3.54668e-08
3.72778e-08
2.92493e-08
1.92553e-08
1.61934e-08
2.04522e-08
2.48138e-08
2.37928e-08
1.92167e-08
1.61815e-08
1.61134e-08
1.69137e-08
1.59495e-08
1.21535e-08
8.68926e-09
1.12264e-08
2.36241e-08
4.23366e-08
5.80184e-08
6.26213e-08
5.2386e-08
3.53496e-08
2.47308e-08
2.1371e-08
2.09892e-08
2.41764e-08
2.93086e-08
3.08711e-08
2.8416e-08
2.57946e-08
2.51436e-08
2.39664e-08
1.93219e-08
1.32647e-08
9.96443e-09
3.53429e-09
3.37705e-10
2.66014e-09
1.10023e-08
2.35685e-08
3.46548e-08
3.70846e-08
2.95101e-08
1.95171e-08
1.5878e-08
1.90127e-08
2.23428e-08
2.13577e-08
1.82333e-08
1.74043e-08
1.88709e-08
1.99276e-08
1.82516e-08
1.33446e-08
8.55136e-09
9.23317e-09
1.9678e-08
3.80414e-08
5.52192e-08
6.21861e-08
5.37612e-08
3.71136e-08
2.62602e-08
2.34117e-08
2.23283e-08
2.32142e-08
2.79675e-08
3.12581e-08
3.09014e-08
3.00956e-08
3.02327e-08
2.88009e-08
2.37621e-08
1.69387e-08
1.33457e-08
5.47946e-09
7.68481e-10
1.83243e-09
9.67626e-09
2.26425e-08
3.43933e-08
3.70386e-08
2.91554e-08
1.88776e-08
1.4894e-08
1.74616e-08
2.04258e-08
1.97822e-08
1.76861e-08
1.81275e-08
2.07482e-08
2.24448e-08
2.08609e-08
1.53016e-08
9.502e-09
8.69893e-09
1.66623e-08
3.3134e-08
5.01568e-08
5.88707e-08
5.25775e-08
3.71064e-08
2.58669e-08
2.34205e-08
2.33643e-08
2.30045e-08
2.57142e-08
2.97306e-08
3.14092e-08
3.33334e-08
3.56362e-08
3.39533e-08
2.78593e-08
2.0848e-08
1.64043e-08
7.84765e-09
1.62863e-09
9.54768e-10
7.52504e-09
2.1166e-08
3.47642e-08
3.86298e-08