/*--------------------------------*- C++ -*----------------------------------*\
| =========                 |                                                 |
| \\      /  F ield         | OpenFOAM: The Open Source CFD Toolbox           |
|  \\    /   O peration     | Version:  2306                                  |
|   \\  /    A nd           | Website:  www.openfoam.com                      |
|    \\/     M anipulation  |                                                 |
\*---------------------------------------------------------------------------*/
FoamFile
{
    version     2.0;
    format      ascii;
    arch        "LSB;label=32;scalar=64";
    class       volVectorField;
    location    "6";
    object      U;
}
// * * * * * * * * * * * * * * * * * * * * * * * * * * * * * * * * * * * * * //

dimensions      [0 1 -1 0 0 0 0];

internalField   nonuniform List<vector> 
60000
(
(0.00802597 3.34423e-05 0.000429502)
(0.0087325 3.17967e-05 0.000805915)
(0.00932515 4.0102e-05 0.00140654)
(0.00959504 4.83203e-05 0.002093)
(0.00946593 4.15371e-05 0.00260118)
(0.00907882 2.422e-05 0.00276949)
(0.00869913 1.0019e-05 0.00260226)
(0.00844834 3.66004e-06 0.00221943)
(0.00827588 3.08043e-06 0.00175273)
(0.00811862 2.45654e-06 0.00133249)
(0.00790371 -2.28992e-06 0.00107133)
(0.00750608 -8.73501e-06 0.000995068)
(0.00687727 -1.02088e-05 0.00103937)
(0.00615959 -6.53034e-06 0.00110597)
(0.00561361 -1.12259e-06 0.00113377)
(0.0053886 -8.77366e-07 0.00108703)
(0.0054417 -9.43849e-06 0.000907199)
(0.00562538 -1.91824e-05 0.000626398)
(0.00579784 -1.80236e-05 0.000358077)
(0.00595238 -9.12959e-06 0.000130645)
(0.00619227 -2.41954e-06 -6.21486e-05)
(0.00652941 1.05807e-05 -0.000211599)
(0.00685914 2.39186e-05 -0.00031331)
(0.00713014 2.87641e-05 -0.00043816)
(0.00739113 2.12386e-05 -0.000684636)
(0.00772343 2.06883e-06 -0.00114529)
(0.00816812 -1.64293e-05 -0.00176665)
(0.0085938 -2.46727e-05 -0.00228394)
(0.00876801 -2.24707e-05 -0.00247711)
(0.00855078 -1.17521e-05 -0.00247725)
(0.00798492 2.03987e-06 -0.00248399)
(0.00724181 1.53336e-05 -0.00239121)
(0.00655894 1.21936e-05 -0.00218083)
(0.00610821 1.55643e-06 -0.00203091)
(0.00592036 1.64698e-06 -0.0019246)
(0.00598906 4.47622e-06 -0.00168792)
(0.00623831 8.73161e-06 -0.00121879)
(0.00655087 1.99033e-05 -0.000613686)
(0.00690934 3.3355e-05 -9.14099e-05)
(0.00739012 3.96611e-05 0.000219052)
(0.0242202 0.000143114 0.00124452)
(0.0262789 0.000156398 0.00237506)
(0.0280214 0.000226725 0.00401441)
(0.0290254 0.000284368 0.00572982)
(0.0289737 0.000253208 0.00688304)
(0.0280044 0.000156254 0.00714301)
(0.0268065 6.71575e-05 0.00661238)
(0.02592 2.28792e-05 0.00564041)
(0.0253481 1.791e-05 0.00453467)
(0.0248847 1.89705e-05 0.00354859)
(0.024243 8.11967e-06 0.00289209)
(0.0230522 -6.85234e-06 0.00263843)
(0.0212415 -2.57606e-05 0.00271172)
(0.0192335 -6.12236e-05 0.00291021)
(0.0176707 -0.000111389 0.00300476)
(0.0169022 -0.000164304 0.00282389)
(0.0167986 -0.000205561 0.0023048)
(0.0170095 -0.000204568 0.00161076)
(0.0172951 -0.000148876 0.000967677)
(0.0176987 -7.79062e-05 0.000416233)
(0.0183839 -1.90453e-05 -5.56591e-05)
(0.0193023 5.19078e-05 -0.000440576)
(0.020273 0.000101792 -0.000756906)
(0.0212733 8.54383e-05 -0.00116174)
(0.0224255 -1.91255e-05 -0.00187793)
(0.0238107 -0.000161318 -0.00310811)
(0.0253597 -0.000254767 -0.00467009)
(0.0266226 -0.000238941 -0.00593117)
(0.0269937 -0.000133267 -0.0064471)
(0.0261927 2.04978e-07 -0.00649724)
(0.0245008 0.000102049 -0.00637222)
(0.022518 0.000118355 -0.00596332)
(0.0207259 3.56392e-05 -0.0055202)
(0.0193034 -4.95763e-05 -0.0053616)
(0.0183641 -6.44527e-05 -0.00517199)
(0.0181395 -3.8176e-05 -0.00444115)
(0.0185875 2.23287e-05 -0.00307472)
(0.0194376 0.000111562 -0.00148647)
(0.0206222 0.000180935 -0.000211778)
(0.0222353 0.000185123 0.000572823)
(0.0402365 0.000263901 0.00138569)
(0.0437519 0.000297524 0.00314454)
(0.0468903 0.000448599 0.00566368)
(0.0491004 0.000556669 0.00827739)
(0.049689 0.000479857 0.0100673)
(0.0484349 0.000286208 0.0105448)
(0.0462827 0.000117293 0.00984527)
(0.0444763 3.33725e-05 0.00850913)
(0.0433539 1.98748e-05 0.00701228)
(0.0425884 1.99942e-05 0.00566299)
(0.0416467 1.10701e-06 0.00464684)
(0.0399078 -2.38532e-05 0.00406203)
(0.0372085 -6.88212e-05 0.00397182)
(0.0340648 -0.000169844 0.00425259)
(0.0313148 -0.000316737 0.00451214)
(0.0295605 -0.000457388 0.00432354)
(0.0288078 -0.000542487 0.00358542)
(0.0286693 -0.000511688 0.00261073)
(0.0288579 -0.000365386 0.00172465)
(0.0294075 -0.000192137 0.00096604)
(0.0304549 -3.83986e-05 0.000306837)
(0.0318906 0.000114401 -0.000246645)
(0.0335216 0.000187292 -0.000702731)
(0.0353681 8.62729e-05 -0.00123955)
(0.0375899 -0.000227759 -0.00218798)
(0.040225 -0.000592558 -0.00391126)
(0.0430883 -0.000802742 -0.00624378)
(0.045427 -0.000726292 -0.00830151)
(0.0462558 -0.00041994 -0.00936303)
(0.0451381 -5.33972e-05 -0.00964277)
(0.0425879 0.000200909 -0.00940881)
(0.0396115 0.000213786 -0.00864218)
(0.0368344 1.1052e-05 -0.00796227)
(0.0343136 -0.000164084 -0.00792173)
(0.0321457 -0.000184692 -0.00795232)
(0.0309215 -0.000114091 -0.00710059)
(0.030994 3.29542e-05 -0.0051421)
(0.032114 0.00023797 -0.00277998)
(0.0340705 0.000380713 -0.000876324)
(0.0368437 0.000372621 0.000318412)
(0.0550054 0.000265227 9.17571e-05)
(0.0600849 0.000285392 0.00225564)
(0.0649409 0.000544319 0.00550723)
(0.0689585 0.000724296 0.00905711)
(0.0710129 0.000614487 0.011759)
(0.070116 0.000354133 0.0128845)
(0.0670504 0.000141714 0.012394)
(0.0639753 3.37574e-05 0.0109236)
(0.0620468 4.38419e-06 0.00922578)
(0.0609613 -1.95478e-06 0.0077351)
(0.0599142 -2.36812e-05 0.0065023)
(0.0580249 -4.54959e-05 0.00548329)
(0.0549381 -0.000100844 0.0049305)
(0.051033 -0.000265459 0.00508184)
(0.0470433 -0.000534778 0.00558283)
(0.0437269 -0.000809313 0.00563288)
(0.0415372 -0.000980949 0.0048611)
(0.0404246 -0.000940093 0.00371582)
(0.0401515 -0.00069557 0.00271013)
(0.0406366 -0.000393638 0.00188964)
(0.0418868 -0.000112099 0.00118329)
(0.0437171 0.00014438 0.00060026)
(0.0459372 0.000228521 0.000187293)
(0.0485816 -3.58307e-05 -0.000183967)
(0.051801 -0.000676378 -0.000929326)
(0.0556244 -0.00139927 -0.00267926)
(0.0599126 -0.00179505 -0.00556482)
(0.063756 -0.00161631 -0.00864185)
(0.0657045 -0.00100183 -0.0107472)
(0.0649725 -0.000267825 -0.0117486)
(0.0621597 0.000239413 -0.0117584)
(0.0586014 0.000287018 -0.0107212)
(0.0550766 -5.06849e-05 -0.00961529)
(0.0515507 -0.000334373 -0.00954848)
(0.0479071 -0.00036625 -0.0100347)
(0.0448534 -0.000262154 -0.00967286)
(0.0434849 -3.66882e-05 -0.00776065)
(0.0441384 0.000298216 -0.00500894)
(0.0465038 0.000527714 -0.00265354)
(0.0502548 0.00048281 -0.00118198)
(0.066977 -5.95015e-05 -0.0034252)
(0.0735212 -0.000169247 -0.00122566)
(0.0803068 0.000252354 0.0025078)
(0.0867324 0.000604566 0.00705077)
(0.091322 0.000521036 0.0111142)
(0.0919953 0.000256161 0.0136284)
(0.0886086 9.52905e-05 0.0140619)
(0.0840545 1.3147e-05 0.0128192)
(0.0809469 -2.87263e-05 0.0110209)
(0.0794363 -5.31591e-05 0.00956594)
(0.078458 -8.11568e-05 0.00846071)
(0.0768338 -8.69008e-05 0.00719654)
(0.0739579 -0.000113922 0.00593635)
(0.0699442 -0.000286464 0.00551695)
(0.0651435 -0.000637834 0.00610037)
(0.0600494 -0.00105934 0.00662614)
(0.055536 -0.00139042 0.00609483)
(0.052433 -0.00143279 0.00487241)
(0.050981 -0.00115015 0.0038165)
(0.0509716 -0.00072938 0.00308325)
(0.0521359 -0.000291425 0.00252541)
(0.0541192 0.000104495 0.00213012)
(0.0566645 0.000202048 0.00202514)
(0.0597371 -0.000302931 0.00220046)
(0.0633945 -0.00143797 0.00223424)
(0.0676942 -0.00276174 0.0012516)
(0.0729964 -0.00355715 -0.00148506)
(0.0788947 -0.00323794 -0.00557841)
(0.0832531 -0.00207786 -0.00949534)
(0.084295 -0.000787883 -0.0122116)
(0.0823593 0.000109681 -0.0133261)
(0.0789489 0.00030429 -0.0124798)
(0.0750628 -0.000132202 -0.010833)
(0.0708521 -0.000527617 -0.0103527)
(0.0660456 -0.00056973 -0.0111378)
(0.0609402 -0.00045056 -0.0116175)
(0.0569747 -0.000212088 -0.0105205)
(0.0556676 0.000196334 -0.0081486)
(0.0573118 0.000494313 -0.00587893)
(0.0613085 0.000355805 -0.00452812)
(0.0749715 -0.000899211 -0.00925959)
(0.0818235 -0.00139293 -0.00770627)
(0.0897654 -0.00101614 -0.00429998)
(0.0986925 -0.000391224 0.000668921)
(0.107211 -0.000104101 0.00639298)
(0.111552 -0.000127356 0.0113816)
(0.109515 -9.03913e-05 0.0140566)
(0.103879 -4.77889e-05 0.0139453)
(0.0992485 -7.29141e-05 0.0122222)
(0.0971121 -0.000133751 0.0107495)
(0.0963195 -0.000186834 0.0101263)
(0.0952646 -0.000178122 0.00925435)
(0.0930919 -0.000146177 0.00745799)
(0.08973 -0.000237994 0.0059622)
(0.085128 -0.000556426 0.00607806)
(0.0790174 -0.00104201 0.00705562)
(0.0719336 -0.00155336 0.00709999)
(0.0656358 -0.00181611 0.00597008)
(0.0617124 -0.00165326 0.00483781)
(0.0603483 -0.00119692 0.00422193)
(0.0609099 -0.000597588 0.00395125)
(0.0626502 -2.91467e-06 0.0039314)
(0.0650696 0.000141441 0.00433022)
(0.0679748 -0.000704695 0.00524018)
(0.0712374 -0.00256535 0.006338)
(0.0745892 -0.00476924 0.00683915)
(0.078827 -0.00630955 0.00570177)
(0.085756 -0.00622768 0.00208299)
(0.0942686 -0.00443698 -0.00361032)
(0.0999284 -0.00202282 -0.00944707)
(0.101082 -0.00033652 -0.0132383)
(0.0992343 0.000187596 -0.013745)
(0.0956659 -0.00023752 -0.01199)
(0.091164 -0.000710601 -0.0108048)
(0.0858699 -0.000739604 -0.0113822)
(0.079545 -0.000586007 -0.0124319)
(0.0730413 -0.000375927 -0.0123728)
(0.0684856 -1.61845e-06 -0.0111179)
(0.0674316 0.00024342 -0.00988082)
(0.069841 -8.5509e-05 -0.00949965)
(0.0815863 -0.00220365 -0.0155269)
(0.0863197 -0.00332042 -0.0153864)
(0.0924513 -0.00326598 -0.013268)
(0.10045 -0.00261724 -0.00955828)
(0.111907 -0.00208373 -0.00374956)
(0.123113 -0.00147105 0.00395121)
(0.126314 -0.000761804 0.0106153)
(0.121558 -0.000286169 0.0135055)
(0.11554 -0.00013753 0.0127103)
(0.112589 -0.000217175 0.01099)
(0.112156 -0.000349965 0.010712)
(0.111924 -0.000362554 0.0110124)
(0.110633 -0.00025246 0.00962493)
(0.108388 -0.000209859 0.00701001)
(0.105154 -0.000368367 0.00586209)
(0.0998306 -0.000749416 0.00677031)
(0.0915223 -0.00130629 0.00755106)
(0.081748 -0.0018139 0.00686723)
(0.0738157 -0.00196636 0.00570535)
(0.0696103 -0.00166115 0.00507489)
(0.0686764 -0.000959572 0.00499733)
(0.0697224 -0.000114489 0.00526335)
(0.0718094 0.000108057 0.0059614)
(0.074585 -0.00115075 0.00725268)
(0.0777268 -0.00383565 0.00897872)
(0.0801972 -0.00697471 0.0106814)
(0.0815889 -0.00936798 0.011792)
(0.0849856 -0.00992945 0.0110168)
(0.0940559 -0.00818799 0.00661339)
(0.105918 -0.00481913 -0.00143467)
(0.114098 -0.00168588 -0.0094596)
(0.116677 -0.000290729 -0.0132915)
(0.114773 -0.000447683 -0.0128512)
(0.110325 -0.000865085 -0.0113491)
(0.105075 -0.000812777 -0.0112815)
(0.0988935 -0.000599672 -0.0122454)
(0.0915464 -0.000397864 -0.0127084)
(0.0846413 -6.76164e-05 -0.0124176)
(0.0803176 3.17129e-05 -0.0125871)
(0.079353 -0.000711342 -0.0139931)
(0.0922876 -0.00338157 -0.0191125)
(0.0924845 -0.0054196 -0.0214201)
(0.0947975 -0.00574615 -0.0208987)
(0.0986036 -0.00529281 -0.0184719)
(0.106769 -0.00513096 -0.0142)
(0.121357 -0.00435339 -0.00681873)
(0.133283 -0.00260015 0.00278509)
(0.133434 -0.00115215 0.0101158)
(0.127204 -0.000553397 0.0120884)
(0.123433 -0.00041407 0.0104155)
(0.123909 -0.000521733 0.00963842)
(0.125249 -0.000666414 0.0110802)
(0.124878 -0.00057655 0.0114755)
(0.123458 -0.000333373 0.00882511)
(0.122101 -0.000211261 0.00602625)
(0.119599 -0.000379664 0.00595612)
(0.113065 -0.000764227 0.00715848)
(0.101798 -0.00129961 0.00724117)
(0.0895209 -0.00178707 0.00639927)
(0.0807633 -0.00186194 0.00577797)
(0.0768614 -0.00123389 0.00570914)
(0.0766038 -0.000167493 0.00599983)
(0.0785357 0.000231717 0.00662544)
(0.0818208 -0.0011775 0.00786562)
(0.0857701 -0.00435201 0.0096824)
(0.0890111 -0.00811524 0.0116276)
(0.0894771 -0.0112526 0.0137342)
(0.0879747 -0.0127315 0.015863)
(0.0910376 -0.0116941 0.0153959)
(0.102292 -0.00841599 0.00933857)
(0.116794 -0.00428252 -0.000850177)
(0.127085 -0.00155329 -0.00911908)
(0.129353 -0.00101787 -0.0121148)
(0.125454 -0.00123135 -0.0117413)
(0.120204 -0.00100193 -0.0110821)
(0.115194 -0.000487475 -0.0112906)
(0.109178 -9.1318e-05 -0.0115678)
(0.102547 0.000285019 -0.0115029)
(0.0972821 0.00028765 -0.012301)
(0.0940596 -0.000943125 -0.0151637)
(0.108831 -0.003302 -0.0175112)
(0.104059 -0.00654242 -0.0230616)
(0.101144 -0.00764137 -0.0253529)
(0.10111 -0.0073726 -0.0241045)
(0.104103 -0.00784775 -0.0203532)
(0.114433 -0.00804773 -0.0142238)
(0.130472 -0.00590713 -0.00529147)
(0.138653 -0.00279648 0.00430072)
(0.134209 -0.00135173 0.00972995)
(0.127843 -0.00119082 0.00931239)
(0.128499 -0.00110999 0.00734979)
(0.133309 -0.00097245 0.00854598)
(0.134933 -0.000915623 0.0110101)
(0.132718 -0.000813299 0.0101199)
(0.131538 -0.000604773 0.00659097)
(0.132997 -0.000370495 0.00498156)
(0.132138 -0.000285759 0.00594466)
(0.123914 -0.000521682 0.00674086)
(0.109816 -0.00102002 0.00658507)
(0.0961227 -0.0014968 0.0063458)
(0.0874815 -0.00122939 0.00643547)
(0.0845214 -0.000154337 0.00675776)
(0.0857592 0.000427577 0.0072327)
(0.0895309 -0.000919285 0.00805366)
(0.0943971 -0.00419785 0.00931509)
(0.0988971 -0.00804886 0.01079)
(0.100771 -0.0112843 0.0126841)
(0.0981668 -0.0133734 0.0159868)
(0.0948599 -0.0136698 0.0191596)
(0.0994611 -0.0114644 0.0171055)
(0.113411 -0.00756454 0.00841008)
(0.129599 -0.00380813 -0.00209643)
(0.136533 -0.0017397 -0.00893674)
(0.130488 -0.000989672 -0.010876)
(0.121009 -0.000855651 -0.00988048)
(0.116693 -0.000779987 -0.00856586)
(0.116254 -0.000279595 -0.00799876)
(0.115231 0.000621252 -0.00790113)
(0.113391 0.00102914 -0.00869629)
(0.111813 -0.000199234 -0.0118442)
(0.125235 -0.00181668 -0.0110385)
(0.119892 -0.00566877 -0.0192846)
(0.111791 -0.0079422 -0.0254014)
(0.107518 -0.00808834 -0.0269313)
(0.107431 -0.00885025 -0.0240738)
(0.112063 -0.0105543 -0.018298)
(0.124223 -0.00992486 -0.0105552)
(0.138023 -0.00590238 -0.00145723)
(0.141322 -0.0022871 0.0058982)
(0.134264 -0.00169294 0.00766448)
(0.128992 -0.00243854 0.00516772)
(0.133492 -0.0022159 0.00461642)
(0.140488 -0.00100935 0.00771611)
(0.139762 -0.000328916 0.0093379)
(0.134239 -0.000865742 0.00694312)
(0.133909 -0.00168821 0.0043721)
(0.139872 -0.00149071 0.00454464)
(0.14127 -0.00054827 0.00564369)
(0.131721 -0.000166926 0.00607077)
(0.116184 -0.000493401 0.00634424)
(0.102381 -0.000592728 0.00702539)
(0.0947304 7.66801e-05 0.00793452)
(0.0937561 0.000513744 0.00849737)
(0.0975765 -0.000925329 0.0083723)
(0.103538 -0.00417674 0.00794764)
(0.109241 -0.00776225 0.00805734)
(0.112312 -0.0105135 0.00944387)
(0.110758 -0.0121801 0.0131366)
(0.105173 -0.013199 0.0185711)
(0.102676 -0.0129743 0.0204442)
(0.11099 -0.010666 0.0143103)
(0.126509 -0.0067134 0.00340228)
(0.135423 -0.00242203 -0.0058511)
(0.128822 0.000349568 -0.00969204)
(0.115701 0.000593679 -0.00828184)
(0.108386 -0.000569382 -0.00467111)
(0.109314 -0.000918432 -0.00192268)
(0.114157 0.000155911 -0.000950816)
(0.119412 0.00127132 -0.00152966)
(0.123998 0.000871751 -0.00455247)
(0.132907 -0.000288693 -0.00154498)
(0.133636 -0.00332242 -0.0117436)
(0.125017 -0.00629824 -0.0212324)
(0.115894 -0.00743988 -0.0265976)
(0.112892 -0.00833323 -0.0265922)
(0.115185 -0.0107483 -0.0219092)
(0.121884 -0.0123915 -0.0147107)
(0.133359 -0.0100967 -0.0065509)
(0.143455 -0.00506816 0.00114153)
(0.143954 -0.00203487 0.00521632)
(0.1363 -0.00255124 0.0041386)
(0.131637 -0.00380287 0.00209497)
(0.13696 -0.00261783 0.00374063)
(0.143558 0.000229997 0.00673676)
(0.141634 0.000987046 0.00660643)
(0.135693 -0.00161683 0.00440095)
(0.137135 -0.0041932 0.00382928)
(0.145486 -0.00346501 0.00494021)
(0.147169 -0.000931015 0.00565161)
(0.13695 0.000600674 0.00587492)
(0.121474 0.00103214 0.00685524)
(0.108818 0.00110199 0.00892479)
(0.103605 0.000497771 0.0104449)
(0.10582 -0.00184537 0.00942412)
(0.112376 -0.00518485 0.00639413)
(0.119804 -0.00799377 0.00402321)
(0.124555 -0.00967857 0.00419216)
(0.123907 -0.0103807 0.007801)
(0.117821 -0.0108725 0.0147498)
(0.110585 -0.01191 0.0202524)
(0.111371 -0.0120317 0.0175767)
(0.121987 -0.00911237 0.00747523)
(0.130799 -0.00324836 -0.00300674)
(0.126973 0.00178341 -0.00844366)
(0.115565 0.00283123 -0.00779949)
(0.107081 0.000665538 -0.00339954)
(0.105423 -0.00107896 0.00155426)
(0.109054 -0.000600986 0.00496305)
(0.11548 0.000746791 0.0063659)
(0.1243 0.00112507 0.00481415)
(0.130692 0.000146868 0.00684007)
(0.139891 -0.000855929 -0.0031791)
(0.136905 -0.00309463 -0.0146412)
(0.126602 -0.00528415 -0.0228338)
(0.119649 -0.00711004 -0.0262999)
(0.120243 -0.00964035 -0.0244831)
(0.125025 -0.0124271 -0.018732)
(0.131691 -0.0128759 -0.0113438)
(0.140724 -0.00945718 -0.00381109)
(0.147325 -0.00467646 0.00188294)
(0.145155 -0.00248783 0.00322408)
(0.136789 -0.0033121 0.0014925)
(0.133274 -0.00379057 0.00144472)
(0.139037 -0.00150659 0.00407138)
(0.145218 0.00124457 0.00568952)
(0.143834 0.000219421 0.00468007)
(0.139072 -0.00429677 0.00336065)
(0.141268 -0.00707208 0.00395392)
(0.149065 -0.0047826 0.00532121)
(0.15006 -0.00019453 0.00557077)
(0.140065 0.0028109 0.00603087)
(0.126386 0.00342193 0.00892659)
(0.117184 0.00150388 0.0120401)
(0.114988 -0.00260197 0.0105317)
(0.118434 -0.00707509 0.00457527)
(0.126135 -0.00957389 -0.000491401)
(0.134265 -0.00971475 -0.00148461)
(0.136467 -0.00874757 0.0014376)
(0.130746 -0.00799855 0.00867432)
(0.120923 -0.00888323 0.0172095)
(0.11518 -0.0108396 0.0189172)
(0.119171 -0.00997374 0.011208)
(0.125837 -0.004127 0.000606032)
(0.125583 0.00246946 -0.00640222)
(0.119708 0.0046913 -0.00825785)
(0.113946 0.00240724 -0.00607331)
(0.110593 -0.000178983 -0.0012675)
(0.110307 -0.00044501 0.00416586)
(0.112634 0.000403709 0.00850284)
(0.118903 0.00055564 0.0103721)
(0.12669 -0.00107357 0.00841001)
(0.139999 -4.91055e-05 0.00202068)
(0.144465 0.000257608 -0.00849611)
(0.137638 -0.00191319 -0.0175945)
(0.128846 -0.00515601 -0.0231294)
(0.126222 -0.00829766 -0.0243542)
(0.13012 -0.0111275 -0.0213941)
(0.13503 -0.0132361 -0.0157996)
(0.139763 -0.0127754 -0.00864478)
(0.145343 -0.00874306 -0.0016519)
(0.147186 -0.00404902 0.00209867)
(0.142102 -0.00236587 0.00171792)
(0.135654 -0.00308411 0.000772236)
(0.135943 -0.00285455 0.00245855)
(0.142545 -0.000799791 0.00516279)
(0.147431 4.01036e-05 0.0057728)
(0.14583 -0.00287966 0.00405189)
(0.142072 -0.00749426 0.00269575)
(0.143808 -0.00855335 0.00357963)
(0.149246 -0.00412785 0.0047438)
(0.149048 0.00176859 0.00539338)
(0.140743 0.00490359 0.00836349)
(0.130967 0.00388483 0.0121694)
(0.124728 -0.00042901 0.0101401)
(0.122298 -0.00635031 0.00191079)
(0.125748 -0.0107087 -0.00510765)
(0.13605 -0.0110241 -0.0060983)
(0.144243 -0.00848787 -0.00318649)
(0.141752 -0.00600638 0.00268561)
(0.131354 -0.00549964 0.0119788)
(0.121536 -0.00755532 0.0180223)
(0.119468 -0.00846491 0.0143247)
(0.122824 -0.0041089 0.00468429)
(0.124305 0.00259422 -0.00361735)
(0.123296 0.00550873 -0.00794708)
(0.122006 0.00381965 -0.00877773)
(0.120096 0.00129699 -0.00649265)
(0.117593 0.000681407 -0.001923)
(0.115843 0.000797192 0.0033678)
(0.117473 -0.000298852 0.00779271)
(0.127629 -0.00290556 0.00415968)
(0.138685 -0.00151207 0.0023486)
(0.148397 0.0016384 -0.00450879)
(0.147547 0.00120072 -0.0127207)
(0.139624 -0.00243799 -0.019383)
(0.133836 -0.00637675 -0.0225707)
(0.135168 -0.00930906 -0.021906)
(0.140106 -0.0118556 -0.0188183)
(0.143163 -0.013586 -0.0132685)
(0.144814 -0.0117268 -0.00558046)
(0.145918 -0.00632629 0.000420982)
(0.143645 -0.0020071 0.00182412)
(0.13881 -0.00163033 0.000874765)
(0.136763 -0.00287628 0.00175715)
(0.14067 -0.00255404 0.00503394)
(0.146983 -0.00123822 0.00741918)
(0.149934 -0.00207091 0.00614163)
(0.147605 -0.00560518 0.00262802)
(0.143256 -0.00843612 0.00127331)
(0.141633 -0.00682638 0.00332016)
(0.141517 -0.00153123 0.00652706)
(0.138406 0.00331143 0.00983055)
(0.133389 0.00492022 0.0112574)
(0.13006 0.00268924 0.00718114)
(0.127594 -0.00293644 -0.00131218)
(0.126836 -0.00940016 -0.00772791)
(0.134007 -0.0121764 -0.00763256)
(0.145851 -0.00993432 -0.00384651)
(0.148812 -0.00590504 0.000284807)
(0.139829 -0.00353336 0.00721499)
(0.128171 -0.00414755 0.0149768)
(0.122276 -0.0051867 0.0157458)
(0.122899 -0.00235974 0.00867074)
(0.12498 0.00307848 3.37255e-05)
(0.126735 0.00538083 -0.006098)
(0.128852 0.00389082 -0.00938124)
(0.129908 0.00222059 -0.0101811)
(0.12847 0.00229324 -0.00839047)
(0.12564 0.00221571 -0.0043291)
(0.123997 -0.000296267 0.000728902)
(0.132278 -0.00304502 0.00128551)
(0.136693 -0.00304586 0.00169841)
(0.146706 0.000834355 -0.00214448)
(0.152493 0.00268206 -0.00866577)
(0.149024 0.000293825 -0.015666)
(0.142474 -0.00345888 -0.0202992)
(0.141118 -0.00667369 -0.0210823)
(0.145461 -0.00979012 -0.0197043)
(0.149308 -0.0128332 -0.016426)
(0.149011 -0.0129589 -0.00986152)
(0.147057 -0.00826262 -0.00252295)
(0.144545 -0.00221779 0.00104347)
(0.141124 0.000147531 0.00124006)
(0.138877 -0.00136648 0.00200925)
(0.140663 -0.00304183 0.00518735)
(0.14613 -0.00274584 0.00847783)
(0.151057 -0.0024319 0.00801023)
(0.150812 -0.00383268 0.00375539)
(0.14423 -0.00582934 0.000694674)
(0.135633 -0.00618961 0.00232311)
(0.130016 -0.00374997 0.00617464)
(0.128291 0.000314799 0.00813878)
(0.12986 0.00377306 0.00647026)
(0.133111 0.00446952 0.00152158)
(0.134536 0.000898415 -0.00485608)
(0.133488 -0.00595977 -0.008865)
(0.136299 -0.0116889 -0.00730894)
(0.146041 -0.0118364 -0.00226555)
(0.152067 -0.00737342 0.00166187)
(0.145654 -0.00320394 0.00591637)
(0.133438 -0.00190159 0.0120564)
(0.12557 -0.00177829 0.0145746)
(0.124897 0.000408808 0.0100072)
(0.127499 0.00407565 0.00253761)
(0.129427 0.005258 -0.00303561)
(0.130522 0.00322814 -0.00638669)
(0.132226 0.00147982 -0.00909442)
(0.134297 0.00203116 -0.0103598)
(0.135161 0.00275281 -0.00817797)
(0.133768 0.000618695 -0.00307845)
(0.13414 -0.00117381 0.00314329)
(0.133424 -0.00216923 0.002886)
(0.139714 0.000121706 -0.000246561)
(0.149208 0.00247155 -0.00541389)
(0.152739 0.00197034 -0.0119224)
(0.149417 -0.000231545 -0.0173704)
(0.14753 -0.00301253 -0.019363)
(0.151385 -0.00674557 -0.0189818)
(0.156038 -0.0109906 -0.0176117)
(0.155553 -0.01259 -0.0136331)
(0.151211 -0.00907127 -0.00685498)
(0.146854 -0.00277641 -0.0011443)
(0.143596 0.00121214 0.00153288)
(0.141673 0.000839564 0.00310389)
(0.142155 -0.00151097 0.0052539)
(0.145424 -0.00278613 0.00771846)
(0.149126 -0.00299366 0.0085342)
(0.149731 -0.00335235 0.00598701)
(0.14498 -0.00365524 0.00181046)
(0.136713 -0.00349054 -4.16831e-05)
(0.129786 -0.00266117 0.00131845)
(0.127744 -0.00114805 0.00280097)
(0.131046 0.0010092 0.00192331)
(0.136572 0.00281055 -0.00155896)
(0.139362 0.00217073 -0.00602868)
(0.138584 -0.00237236 -0.008479)
(0.139469 -0.00913776 -0.00668041)
(0.146158 -0.0125993 -0.00185394)
(0.152406 -0.00932501 0.00224505)
(0.148883 -0.00355583 0.00588328)
(0.138483 -0.000449145 0.0108261)
(0.130155 0.00045291 0.0131011)
(0.127534 0.00245 0.00950753)
(0.127609 0.00544589 0.00398261)
(0.12673 0.00617298 0.000814299)
(0.125522 0.00369278 -0.000880832)
(0.126618 0.000984293 -0.00356842)
(0.130705 0.000707876 -0.00588291)
(0.135325 0.0018309 -0.00456194)
(0.13661 0.00131581 -0.000143568)
(0.134316 0.00030086 0.00473198)
(0.132256 0.00037941 0.00502732)
(0.134698 0.00144268 0.0022264)
(0.1424 0.00279731 -0.00240921)
(0.150116 0.00303913 -0.00795498)
(0.153157 0.0022404 -0.0127689)
(0.154338 0.000557184 -0.0152666)
(0.158469 -0.00302874 -0.0161924)
(0.163214 -0.00813668 -0.0169223)
(0.162551 -0.0109043 -0.0158093)
(0.156662 -0.00838609 -0.010693)
(0.150267 -0.00255356 -0.00405194)
(0.145936 0.00187301 0.000588377)
(0.143763 0.00224902 0.00333372)
(0.143764 0.000245623 0.0053085)
(0.145445 -0.00149033 0.00678838)
(0.146479 -0.00251568 0.0076678)
(0.145248 -0.00322552 0.00674799)
(0.141917 -0.00289284 0.00321309)
(0.13765 -0.00152261 -0.000611104)
(0.134503 -0.000674994 -0.00151868)
(0.134078 -0.00118199 2.0609e-05)
(0.136584 -0.00141631 0.000965657)
(0.139818 0.000107037 -0.000617536)
(0.140366 0.0016563 -0.00346666)
(0.138695 3.16707e-05 -0.00462897)
(0.138988 -0.00565584 -0.00296784)
(0.143882 -0.011085 0.000349612)
(0.150156 -0.0104484 0.00336538)
(0.150563 -0.00472288 0.00606884)
(0.144257 0.000400858 0.00954902)
(0.136535 0.00321438 0.0113348)
(0.130732 0.00535462 0.00898638)
(0.126388 0.00716685 0.00517282)
(0.122953 0.00678484 0.00340424)
(0.121786 0.00339854 0.00313901)
(0.123658 -0.000751561 0.0018082)
(0.128122 -0.00261086 -0.000423231)
(0.133367 -0.00167307 -0.000731951)
(0.13586 -0.000168292 0.00185359)
(0.133183 0.00176104 0.00593981)
(0.131787 0.00369626 0.00655276)
(0.133173 0.0050452 0.00510996)
(0.138235 0.00493768 0.00181905)
(0.14491 0.00380263 -0.00289994)
(0.150901 0.00328185 -0.0077796)
(0.156582 0.00310586 -0.0108801)
(0.163184 0.000713177 -0.0122737)
(0.168251 -0.00428169 -0.0138872)
(0.16753 -0.00793552 -0.0153395)
(0.161445 -0.00640082 -0.0133749)
(0.154307 -0.00131449 -0.00763402)
(0.148926 0.00253697 -0.00183853)
(0.145553 0.00286293 0.00198576)
(0.143879 0.00128273 0.00439081)
(0.143513 7.83455e-05 0.00586643)
(0.142941 -0.000585225 0.00667971)
(0.141115 -0.00127367 0.00627829)
(0.138968 -0.00120531 0.00372505)
(0.138342 -2.80732e-05 0.000158101)
(0.140329 0.000113699 -0.00152285)
(0.143307 -0.00213915 -0.000397917)
(0.144091 -0.00427106 0.00134823)
(0.141799 -0.00299226 0.00137623)
(0.138437 0.000455884 0.000761121)
(0.137005 0.00155327 0.00179375)
(0.13905 -0.00242413 0.00376211)
(0.143859 -0.00862921 0.00511464)
(0.149056 -0.0106911 0.00561733)
(0.150533 -0.0061662 0.00633874)
(0.146624 0.000479434 0.00830111)
(0.13976 0.00490826 0.00928089)
(0.132215 0.00683517 0.00743609)
(0.125316 0.00765957 0.00526359)
(0.121136 0.00729665 0.00571956)
(0.120971 0.00479915 0.00749911)
(0.123819 0.000978012 0.0073131)
(0.128058 -0.00184468 0.00513078)
(0.132176 -0.00213113 0.00366214)
(0.134128 -0.000427029 0.00434064)
(0.13681 0.00346301 0.00546017)
(0.135724 0.00562297 0.00675789)
(0.135592 0.00743382 0.00696577)
(0.137996 0.00737835 0.00491298)
(0.142078 0.00479021 0.00075667)
(0.147059 0.00166753 -0.00369756)
(0.153584 0.000349463 -0.00670781)
(0.161471 0.000340409 -0.00852657)
(0.167269 -0.000652366 -0.010659)
(0.167496 -0.00272449 -0.0130862)
(0.163523 -0.00286952 -0.0136297)
(0.159263 -0.00017665 -0.0106752)
(0.156113 0.00242011 -0.00589104)
(0.15279 0.00299188 -0.00182887)
(0.148497 0.00224916 0.000865699)
(0.144265 0.0012007 0.0026363)
(0.14113 9.85657e-05 0.00387842)
(0.139307 -0.00075854 0.00473815)
(0.139459 -0.000659182 0.0048297)
(0.142801 0.000276463 0.00343029)
(0.149092 0.000236161 0.00104209)
(0.154251 -0.00208319 -0.000137661)
(0.15358 -0.00459097 0.00192725)
(0.147622 -0.00386551 0.00580026)
(0.14139 -3.71854e-05 0.00808737)
(0.139083 0.00296037 0.00728685)
(0.140854 0.00158519 0.00461914)
(0.144656 -0.00397872 0.00318773)
(0.148677 -0.00811231 0.00380769)
(0.149936 -0.00552892 0.00431678)
(0.146148 0.00154702 0.00496763)
(0.138615 0.00722305 0.00610483)
(0.130354 0.00930927 0.00631768)
(0.124043 0.00919155 0.00589926)
(0.121303 0.00814387 0.00628674)
(0.122002 0.00620008 0.00720851)
(0.124655 0.00344644 0.00720904)
(0.12818 0.0010919 0.00600688)
(0.13233 0.000443627 0.00471028)
(0.13587 0.00156085 0.00448604)
(0.13722 0.0040951 0.0045307)
(0.135976 0.00545283 0.00541402)
(0.1354 0.0070638 0.0063353)
(0.137254 0.00744252 0.00628176)
(0.14116 0.00512826 0.00411979)
(0.145629 0.000896506 -5.64404e-05)
(0.150364 -0.00258703 -0.00443398)
(0.156322 -0.00359386 -0.00731413)
(0.162868 -0.00297634 -0.00882312)
(0.166513 -0.00204143 -0.0100933)
(0.165025 -0.000744458 -0.0110332)
(0.160921 0.00138261 -0.0104085)
(0.157757 0.00324492 -0.00791323)
(0.156107 0.00370615 -0.00488356)
(0.154371 0.00354088 -0.00254528)
(0.151499 0.0032637 -0.00111475)
(0.14769 0.00188145 3.26853e-05)
(0.143949 -0.00109622 0.00171602)
(0.142263 -0.0043126 0.00385676)
(0.144592 -0.00652735 0.00516949)
(0.150348 -0.00761979 0.00445377)
(0.155333 -0.00785009 0.00255803)
(0.155184 -0.00714997 0.00261423)
(0.150446 -0.00472932 0.00567569)
(0.145036 0.000153448 0.00794849)
(0.141576 0.00553867 0.00565614)
(0.140066 0.00707159 0.000255784)
(0.140503 0.00248527 -0.00313983)
(0.143306 -0.0042547 -0.00182755)
(0.14615 -0.00589706 0.00113679)
(0.145123 -0.00030702 0.00293532)
(0.139764 0.00709326 0.00420977)
(0.133657 0.0116361 0.00503144)
(0.130155 0.012971 0.00451206)
(0.129776 0.0122438 0.00286141)
(0.130984 0.0100281 0.00126579)
(0.132197 0.00695388 0.000771011)
(0.133355 0.00432785 0.0015887)
(0.135116 0.00320401 0.00291225)
(0.136934 0.00332724 0.00387102)
(0.139591 0.00532105 0.00376058)
(0.136476 0.00502541 0.00693524)
(0.134712 0.00384438 0.00965701)
(0.136113 0.00190704 0.0113737)
(0.140845 -0.000533907 0.0107822)
(0.147456 -0.00297835 0.00725046)
(0.153578 -0.0044545 0.00169945)
(0.157169 -0.0041895 -0.00395665)
(0.157621 -0.00238137 -0.00812025)
(0.155521 0.00021284 -0.0100865)
(0.152151 0.00271603 -0.00988469)
(0.148877 0.00434359 -0.00851059)
(0.146524 0.00459061 -0.00732077)
(0.145758 0.00359525 -0.00659882)
(0.146978 0.00225021 -0.00564345)
(0.149854 0.00128811 -0.0043686)
(0.15292 0.000804589 -0.00336399)
(0.154317 0.000416811 -0.00241793)
(0.153722 -0.0011301 -0.000441246)
(0.152663 -0.00465781 0.00278732)
(0.152613 -0.00885011 0.00593863)
(0.153414 -0.0105657 0.00755111)
(0.153285 -0.0080513 0.00769401)
(0.15084 -0.00290162 0.00739176)
(0.146837 0.00201658 0.0063101)
(0.143088 0.00486891 0.00315208)
(0.140835 0.00464544 -0.00153038)
(0.140806 0.00117152 -0.00445822)
(0.14285 -0.00387965 -0.00294631)
(0.145223 -0.00651484 0.00150288)
(0.145446 -0.00344313 0.0053532)
(0.143272 0.00337142 0.00705709)
(0.141215 0.00956785 0.00648412)
(0.1413 0.0130031 0.00341951)
(0.142894 0.0135218 -0.00148652)
(0.143951 0.0114117 -0.00625734)
(0.143629 0.00774349 -0.00881673)
(0.142789 0.00460253 -0.00804591)
(0.142378 0.00375594 -0.00450986)
(0.141749 0.00462373 -9.00479e-05)
(0.147308 0.00623229 -0.00393008)
(0.147046 0.00585657 -0.000466667)
(0.148514 0.00346213 0.00343969)
(0.150459 0.000270461 0.00765893)
(0.151572 -0.00232157 0.0114536)
(0.152285 -0.0038109 0.0132123)
(0.154261 -0.00399156 0.0115545)
(0.15767 -0.00236377 0.00656492)
(0.160655 0.00113441 0.000204785)