/*--------------------------------*- C++ -*----------------------------------*\
| =========                 |                                                 |
| \\      /  F ield         | OpenFOAM: The Open Source CFD Toolbox           |
|  \\    /   O peration     | Version:  2306                                  |
|   \\  /    A nd           | Website:  www.openfoam.com                      |
|    \\/     M anipulation  |                                                 |
\*---------------------------------------------------------------------------*/
FoamFile
{
    version     2.0;
    format      ascii;
    arch        "LSB;label=32;scalar=64";
    class       volVectorField;
    location    "6";
    object      UMean;
}
// * * * * * * * * * * * * * * * * * * * * * * * * * * * * * * * * * * * * * //

dimensions      [0 1 -1 0 0 0 0];

internalField   nonuniform List<vector> 
60000
(
(0.00981578 3.17615e-05 0.00185043)
(0.0100046 2.24224e-05 0.00206952)
(0.0100046 1.41839e-05 0.00220616)
(0.00985984 6.51938e-06 0.00224003)
(0.00963555 -2.54719e-07 0.00214511)
(0.00935359 -4.41094e-06 0.00192119)
(0.00899512 -5.33531e-06 0.00162065)
(0.00852692 -5.1968e-06 0.00133075)
(0.00796361 -7.00911e-06 0.00112795)
(0.00737194 -1.10879e-05 0.00104949)
(0.00680862 -1.52506e-05 0.00107171)
(0.00632525 -1.65719e-05 0.00111325)
(0.00598297 -1.55728e-05 0.00109154)
(0.0058144 -1.39222e-05 0.000977763)
(0.00581023 -1.20348e-05 0.000791592)
(0.00591298 -9.70291e-06 0.000560906)
(0.00607523 -4.8108e-06 0.000314425)
(0.00628537 1.8274e-06 7.26536e-05)
(0.0065443 8.21646e-06 -0.000169593)
(0.0068581 1.26736e-05 -0.000434243)
(0.0072322 1.54367e-05 -0.000736942)
(0.00764473 1.59748e-05 -0.00106974)
(0.00805941 1.2477e-05 -0.00140599)
(0.00843135 5.63622e-06 -0.00172144)
(0.0086849 -1.93243e-06 -0.00199416)
(0.00874312 -6.53775e-06 -0.00220403)
(0.00858578 -8.18018e-06 -0.00232251)
(0.00822914 -7.4255e-06 -0.0023402)
(0.00771973 -4.29998e-06 -0.00229406)
(0.00716341 3.28562e-07 -0.00222656)
(0.0067082 3.96781e-06 -0.00212161)
(0.00645939 5.88888e-06 -0.00192448)
(0.00644027 9.6575e-06 -0.00160745)
(0.00662413 1.65724e-05 -0.00118748)
(0.00697028 2.55394e-05 -0.000701382)
(0.00742891 3.35381e-05 -0.00018254)
(0.00793599 4.17198e-05 0.000328535)
(0.00845674 4.72215e-05 0.000799147)
(0.0089765 4.73655e-05 0.00121654)
(0.00945232 4.12565e-05 0.00156595)
(0.0298701 0.000120286 0.0049138)
(0.0305556 7.62694e-05 0.00541454)
(0.0306629 3.86916e-05 0.00570685)
(0.0303022 3.57172e-06 0.00576792)
(0.0296357 -2.07048e-05 0.00554686)
(0.0287382 -2.46921e-05 0.00502465)
(0.0276169 -1.40263e-05 0.0043044)
(0.0262291 -8.91396e-06 0.00359257)
(0.0246077 -2.84023e-05 0.00308533)
(0.0228893 -7.04605e-05 0.00287708)
(0.0211983 -0.000114884 0.00290369)
(0.0196821 -0.000147976 0.00296278)
(0.0185345 -0.000168958 0.0028604)
(0.0178635 -0.000174325 0.00253723)
(0.0176588 -0.00015828 0.00204649)
(0.0177851 -0.000122353 0.0014597)
(0.0181405 -7.41607e-05 0.000845353)
(0.0187178 -2.72216e-05 0.000236264)
(0.0195196 7.22627e-06 -0.000398806)
(0.0205343 2.33117e-05 -0.00111876)
(0.0217545 2.43894e-05 -0.00196036)
(0.0231172 1.22838e-05 -0.00289302)
(0.0245169 -1.69889e-05 -0.00382455)
(0.0258003 -5.57541e-05 -0.00466137)
(0.0267187 -8.643e-05 -0.00532958)
(0.0270239 -9.65652e-05 -0.00578728)
(0.0266327 -8.80463e-05 -0.00600652)
(0.0255746 -6.56431e-05 -0.00600759)
(0.0240019 -4.11181e-05 -0.00589001)
(0.0222579 -2.80413e-05 -0.00573701)
(0.020793 -2.8736e-05 -0.00549639)
(0.0199076 -2.49738e-05 -0.00502701)
(0.019662 6.22405e-06 -0.00422555)
(0.0200114 6.51634e-05 -0.00310353)
(0.02089 0.000135476 -0.0017639)
(0.0221838 0.000199136 -0.000334508)
(0.0237089 0.000246499 0.00104284)
(0.0253569 0.000258054 0.00227487)
(0.027059 0.00022931 0.00334398)
(0.0286418 0.000175567 0.00422349)
(0.0505137 0.000167127 0.0071437)
(0.0519178 6.87999e-05 0.00789173)
(0.0523278 -8.61712e-06 0.00830957)
(0.0518827 -7.43402e-05 0.00842011)
(0.0508218 -0.000109484 0.00819111)
(0.0493171 -9.82643e-05 0.00756674)
(0.0474972 -6.21418e-05 0.00662223)
(0.0453503 -4.7587e-05 0.00560978)
(0.042839 -9.27838e-05 0.00482444)
(0.0400591 -0.000191005 0.00443851)
(0.0371833 -0.000293877 0.00439759)
(0.034476 -0.000373561 0.00444404)
(0.0322716 -0.000429419 0.00430958)
(0.0307712 -0.000447017 0.00388643)
(0.0300225 -0.000408236 0.00322315)
(0.0298898 -0.0003166 0.00241763)
(0.0302492 -0.000200952 0.00157664)
(0.0310895 -9.68906e-05 0.000746427)
(0.0323966 -2.84221e-05 -0.000131968)
(0.0341205 -7.46461e-06 -0.00115965)
(0.0362346 -2.75423e-05 -0.00240767)
(0.0386457 -8.14535e-05 -0.003846)
(0.0411877 -0.000171364 -0.00532792)
(0.04361 -0.000275033 -0.0066759)
(0.0455019 -0.000347546 -0.00773888)
(0.0464124 -0.00036126 -0.0084361)
(0.04612 -0.000320404 -0.00874661)
(0.0446 -0.000239513 -0.00873413)
(0.0420681 -0.000158103 -0.00857062)
(0.03907 -0.000117871 -0.00840345)
(0.0363519 -0.000120231 -0.00818273)
(0.0344608 -0.000109732 -0.00769512)
(0.0335763 -3.01855e-05 -0.00672083)
(0.0337042 0.000115098 -0.00519241)
(0.0348067 0.000282175 -0.00322838)
(0.0367674 0.000432284 -0.00104611)
(0.039306 0.000535272 0.00109358)
(0.0422042 0.000542892 0.00301047)
(0.045282 0.000449184 0.0046791)
(0.0481931 0.000304013 0.00606677)
(0.0708043 8.77074e-05 0.00814933)
(0.0732143 -6.34328e-05 0.00927445)
(0.0742193 -0.000168257 0.00990015)
(0.0739387 -0.000248248 0.0101295)
(0.0726512 -0.000273474 0.0100211)
(0.0706491 -0.000223303 0.00950556)
(0.0682843 -0.000140378 0.0085614)
(0.0656681 -9.83562e-05 0.00739377)
(0.0626259 -0.000156739 0.00636496)
(0.0590355 -0.000310831 0.0057616)
(0.0550248 -0.000485512 0.00559445)
(0.050994 -0.00063097 0.00560027)
(0.0474441 -0.00074432 0.00547571)
(0.0446876 -0.000797581 0.00506837)
(0.042891 -0.000752793 0.00438775)
(0.0420278 -0.000610032 0.00352577)
(0.0420243 -0.000421724 0.00263093)
(0.0428599 -0.000257818 0.00178833)
(0.0444789 -0.000160845 0.000917981)
(0.0467732 -0.000152238 -0.000140603)
(0.0497016 -0.000224599 -0.00152698)
(0.0531582 -0.000360479 -0.0032682)
(0.0569311 -0.000551976 -0.00521791)
(0.060701 -0.000752283 -0.00712774)
(0.0639384 -0.000877496 -0.0087358)
(0.0659813 -0.000876587 -0.00986271)
(0.0663939 -0.000760866 -0.0104427)
(0.0649928 -0.000564814 -0.0105414)
(0.0619496 -0.000371143 -0.0103883)
(0.0578931 -0.000270877 -0.0102444)
(0.0537812 -0.000275691 -0.0101576)
(0.0504447 -0.000281347 -0.00991624)
(0.0483219 -0.000173773 -0.00918765)
(0.0476034 5.31631e-05 -0.00774256)
(0.0483577 0.000325861 -0.00559864)
(0.050562 0.000575838 -0.00298207)
(0.0539157 0.000750609 -0.000250529)
(0.0580769 0.000757982 0.00228447)
(0.0626733 0.000582534 0.00455759)
(0.0671306 0.000321796 0.00654243)
(0.0890397 -0.000241377 0.00714212)
(0.0927714 -0.000406894 0.00901382)
(0.0947518 -0.000487625 0.0101617)
(0.0950553 -0.000537869 0.0107162)
(0.0939224 -0.000514661 0.0108949)
(0.0917015 -0.000395767 0.0107058)
(0.0890181 -0.00024618 0.0100223)
(0.0862768 -0.000158561 0.00890298)
(0.0832387 -0.000199904 0.00771593)
(0.0793992 -0.000378303 0.00689502)
(0.0746003 -0.00061326 0.00658057)
(0.0693064 -0.000833019 0.0065226)
(0.0642433 -0.00102233 0.00639431)
(0.0598675 -0.0011409 0.00604227)
(0.0564779 -0.00112987 0.00545059)
(0.05424 -0.000976581 0.00467208)
(0.0532484 -0.000746048 0.00388259)
(0.0535286 -0.000544007 0.0032489)
(0.0549634 -0.000441096 0.0027093)
(0.0573634 -0.000478884 0.0020415)
(0.0606911 -0.000660508 0.0010017)
(0.0648935 -0.000956664 -0.000584708)
(0.0697561 -0.00132283 -0.00270196)
(0.0749218 -0.00166726 -0.00511927)
(0.079817 -0.00185445 -0.00746225)
(0.0836151 -0.00180368 -0.0093762)
(0.0856254 -0.00153529 -0.0106612)
(0.0853667 -0.00111881 -0.0112836)
(0.0827761 -0.00071419 -0.0114022)
(0.0783933 -0.000482692 -0.0113507)
(0.0732272 -0.000458076 -0.0113867)
(0.0683007 -0.000502098 -0.0114843)
(0.0643758 -0.000429244 -0.0113343)
(0.0619928 -0.000192915 -0.0105414)
(0.0614803 0.000125129 -0.00889274)
(0.0630542 0.000431599 -0.00646617)
(0.0665506 0.000658476 -0.00359501)
(0.0716054 0.00067395 -0.000703389)
(0.0776336 0.000431119 0.00206891)
(0.0837626 6.56805e-05 0.00472959)
(0.102484 -0.00111267 0.00283596)
(0.107772 -0.00119508 0.0059223)
(0.11114 -0.00114615 0.00821083)
(0.112708 -0.00104361 0.00962232)
(0.11251 -0.000866137 0.0104696)
(0.110695 -0.000613473 0.0109117)
(0.108056 -0.000373456 0.0108109)
(0.105505 -0.000232009 0.0100315)
(0.10305 -0.000226171 0.00884455)
(0.0998213 -0.000372338 0.00784778)
(0.0950755 -0.000614782 0.00739571)
(0.0890228 -0.000890221 0.00728564)
(0.0826069 -0.00116086 0.00712422)
(0.0765307 -0.00136337 0.00678012)
(0.0712174 -0.00142417 0.00627909)
(0.0670033 -0.00131711 0.00563163)
(0.0642381 -0.00110664 0.00499468)
(0.0631317 -0.000917101 0.00463649)
(0.0635482 -0.000853058 0.00460061)
(0.0651489 -0.000995895 0.0046697)
(0.0678466 -0.00138602 0.00452645)
(0.0717538 -0.00199141 0.0038218)
(0.0768736 -0.00271419 0.0022898)
(0.0830063 -0.0033583 -0.000110632)
(0.089597 -0.00366142 -0.00304988)
(0.0956485 -0.00351071 -0.00595479)
(0.100254 -0.00297736 -0.00840618)
(0.102618 -0.0021776 -0.0102168)
(0.102144 -0.00135209 -0.0112905)
(0.0988968 -0.000803421 -0.011729)
(0.0938014 -0.000636791 -0.0119144)
(0.0879551 -0.000677132 -0.01221)
(0.0823195 -0.000674511 -0.012637)
(0.0777939 -0.000527733 -0.0128329)
(0.0750438 -0.000305731 -0.0123365)
(0.0746795 -8.63224e-05 -0.0109356)
(0.0768707 7.49938e-05 -0.00877928)
(0.0814956 1.65561e-05 -0.00627238)
(0.0880706 -0.000335124 -0.00355348)
(0.0955394 -0.000794783 -0.000489886)
(0.108736 -0.0028104 -0.00492276)
(0.115153 -0.00268005 -0.000702553)
(0.119637 -0.00236663 0.00315077)
(0.122754 -0.0020385 0.00604715)
(0.124722 -0.00158997 0.00813369)
(0.124756 -0.001021 0.0096848)
(0.123012 -0.000566814 0.0105823)
(0.120951 -0.000346009 0.010551)
(0.119499 -0.000290262 0.00963449)
(0.117827 -0.000337185 0.00854775)
(0.114448 -0.000489871 0.00798251)
(0.108848 -0.000747354 0.00786617)
(0.101849 -0.00107611 0.00769491)
(0.0944864 -0.00136237 0.00731178)
(0.0874094 -0.00150567 0.00685095)
(0.0810549 -0.00147916 0.00631474)
(0.0759891 -0.00134256 0.00576196)
(0.0727663 -0.00122232 0.00548622)
(0.071441 -0.00124876 0.00567894)
(0.0715516 -0.0015638 0.00626809)
(0.072793 -0.00227405 0.00702299)
(0.0753501 -0.00333814 0.00754047)
(0.0794653 -0.00458723 0.00733255)
(0.0851923 -0.00570175 0.00599402)
(0.0923611 -0.00625925 0.00344303)
(0.10006 -0.00604166 0.000129703)
(0.107091 -0.0052155 -0.00331022)
(0.112607 -0.00399616 -0.006511)
(0.115789 -0.00262818 -0.00915564)
(0.115783 -0.00150084 -0.0108659)
(0.112684 -0.000904139 -0.0116448)
(0.107492 -0.000751961 -0.0120662)
(0.101332 -0.000732825 -0.0127374)
(0.0953293 -0.000685298 -0.0137542)
(0.0903886 -0.000681117 -0.0146516)
(0.0874402 -0.000744265 -0.0148413)
(0.087048 -0.000837677 -0.0141453)
(0.0893341 -0.00114075 -0.0128823)
(0.0941858 -0.00177977 -0.0111516)
(0.101112 -0.00247732 -0.00857827)
(0.110965 -0.00510242 -0.0129666)
(0.117049 -0.0047648 -0.00841102)
(0.12165 -0.00404782 -0.00343427)
(0.124931 -0.00345607 0.000899169)
(0.128101 -0.00281855 0.00424611)
(0.130694 -0.00189165 0.00690325)
(0.131171 -0.00102962 0.0089408)
(0.130037 -0.000603787 0.00995801)
(0.129254 -0.000524755 0.00970818)
(0.129591 -0.000516441 0.00871808)
(0.129166 -0.000473856 0.0080799)
(0.12602 -0.000524124 0.00804662)
(0.120162 -0.000760371 0.00798584)
(0.112704 -0.00107291 0.00760873)
(0.104682 -0.00129525 0.00719539)
(0.0967239 -0.00135906 0.00682054)
(0.0895091 -0.00131709 0.006366)
(0.0839913 -0.00130016 0.00599674)
(0.0807541 -0.00144025 0.00600047)
(0.0795214 -0.00190972 0.00653233)
(0.0796738 -0.00289756 0.00761069)
(0.0810273 -0.00439322 0.00901494)
(0.0837994 -0.00614054 0.0101772)
(0.0881682 -0.00773572 0.0103774)
(0.0942405 -0.00864949 0.00911612)
(0.101616 -0.00853773 0.00645116)
(0.109023 -0.00757427 0.00295031)
(0.115402 -0.00611031 -0.000885841)
(0.120448 -0.00440275 -0.0047187)
(0.123611 -0.0027994 -0.00792325)
(0.124227 -0.00166288 -0.00986935)
(0.122083 -0.00103907 -0.0107289)
(0.11768 -0.000709377 -0.011412)
(0.112198 -0.000519961 -0.0126892)
(0.10668 -0.00059886 -0.0146053)
(0.102125 -0.00100117 -0.016445)
(0.0994715 -0.00152417 -0.0175015)
(0.0991369 -0.0022277 -0.0177904)
(0.101024 -0.00332431 -0.0174499)
(0.105066 -0.00452501 -0.0160368)
(0.115144 -0.00714358 -0.017927)
(0.119229 -0.00695026 -0.0139505)
(0.123124 -0.00590141 -0.00875367)
(0.125884 -0.0049773 -0.00368705)
(0.128322 -0.00426043 0.000404703)
(0.131408 -0.00318409 0.00355208)
(0.133826 -0.00184794 0.00610956)
(0.134016 -0.00102401 0.00788801)
(0.133067 -0.000934499 0.00839033)
(0.13328 -0.00110406 0.00778246)
(0.135052 -0.00104108 0.00715642)
(0.135737 -0.000806247 0.00727997)
(0.133288 -0.000712689 0.00755884)
(0.128037 -0.000799993 0.00740972)
(0.121098 -0.000911188 0.00716958)
(0.113153 -0.000962986 0.00712523)
(0.104844 -0.00100471 0.00700563)
(0.0974763 -0.00112643 0.00670531)
(0.0924025 -0.00141286 0.00648347)
(0.089934 -0.0019948 0.00667352)
(0.0894106 -0.00310026 0.00754233)
(0.0901267 -0.00481967 0.00913092)
(0.0918887 -0.00688725 0.011006)
(0.0947906 -0.00884407 0.0123355)
(0.0991446 -0.0101152 0.0122704)
(0.104941 -0.0102629 0.0105466)
(0.11108 -0.00931898 0.00756604)
(0.115977 -0.00773168 0.00398165)
(0.119315 -0.0058528 0.00015822)
(0.121628 -0.00400091 -0.00341868)
(0.122947 -0.00251114 -0.00598081)
(0.122971 -0.00144725 -0.00723031)
(0.121411 -0.00070294 -0.00781258)
(0.118876 -0.00023616 -0.00885294)
(0.116321 -0.000225858 -0.011063)
(0.114002 -0.00077607 -0.0140945)
(0.112047 -0.00162321 -0.016902)
(0.110978 -0.00268521 -0.0188702)
(0.111106 -0.0042046 -0.0199444)
(0.112391 -0.00598591 -0.0198563)
(0.122113 -0.00808567 -0.019276)
(0.123586 -0.00845904 -0.0167193)
(0.126098 -0.00747982 -0.0123476)
(0.128511 -0.00629827 -0.00733983)
(0.130243 -0.00550686 -0.00292162)
(0.132205 -0.00457148 0.000419892)
(0.134808 -0.00306447 0.00298061)
(0.136565 -0.00164033 0.00499561)
(0.136271 -0.00120873 0.00607149)
(0.135314 -0.00165482 0.0059763)
(0.136079 -0.00205551 0.00553231)
(0.13847 -0.00187135 0.00579667)
(0.139445 -0.00146238 0.00650653)
(0.137238 -0.00123362 0.00678101)
(0.132804 -0.00110443 0.00678309)
(0.127139 -0.000879567 0.00707922)
(0.120157 -0.000681812 0.00749712)
(0.112458 -0.000778983 0.00764588)
(0.10598 -0.00122855 0.00753829)
(0.102119 -0.00196491 0.00747525)
(0.100735 -0.00314866 0.00785472)
(0.100954 -0.00493366 0.00896227)
(0.102097 -0.00712359 0.0106315)
(0.103937 -0.00924372 0.0121784)
(0.106631 -0.0107059 0.0127487)
(0.110348 -0.0110463 0.0118302)
(0.114364 -0.010141 0.00953609)
(0.11719 -0.00844643 0.00649843)
(0.118291 -0.0064568 0.00320129)
(0.118391 -0.00449631 4.14057e-05)
(0.118119 -0.00284585 -0.00226664)
(0.117597 -0.00152279 -0.00319265)
(0.116878 -0.000488723 -0.00309753)
(0.116543 0.000168177 -0.00318769)
(0.117205 0.000262496 -0.00472226)
(0.118555 -0.000270239 -0.00793243)
(0.119826 -0.00122118 -0.0118754)
(0.120619 -0.00244543 -0.015471)
(0.121198 -0.00415332 -0.0181504)
(0.121579 -0.00630307 -0.0196001)
(0.129418 -0.00775883 -0.0179888)
(0.129233 -0.00886374 -0.0173484)
(0.129926 -0.00846477 -0.0146109)
(0.131694 -0.0073742 -0.010521)
(0.133495 -0.0064859 -0.00619369)
(0.13472 -0.00572673 -0.0026041)
(0.136128 -0.00443655 6.91377e-05)
(0.13797 -0.0027469 0.00216807)
(0.139122 -0.0016286 0.00366556)
(0.138657 -0.00177533 0.00418078)
(0.137951 -0.00262107 0.00405394)
(0.139257 -0.00302313 0.00436566)
(0.141933 -0.00265212 0.00536686)
(0.142762 -0.0021201 0.00614822)
(0.140629 -0.00182013 0.00642401)
(0.136927 -0.00147348 0.00685772)
(0.132356 -0.000903494 0.00763679)
(0.126485 -0.000563835 0.00829845)
(0.120147 -0.000906278 0.00853588)
(0.115368 -0.00183828 0.0084294)
(0.113031 -0.00323133 0.00832994)
(0.112663 -0.00513914 0.00863486)
(0.113387 -0.00733811 0.00945449)
(0.114532 -0.0093416 0.0104635)
(0.115864 -0.0106503 0.0111221)
(0.117472 -0.0108843 0.0108792)
(0.119017 -0.00989199 0.00949249)
(0.119718 -0.00808676 0.00726849)
(0.119165 -0.00606599 0.00463735)
(0.118009 -0.00415219 0.00189356)
(0.116798 -0.00249198 -0.000246771)
(0.115538 -0.00109458 -0.000947512)
(0.114559 7.36724e-06 -0.000253203)
(0.114722 0.000687446 0.000758023)
(0.116731 0.00080652 0.000587446)
(0.120037 0.000344708 -0.00155762)
(0.123616 -0.000540802 -0.00523633)
(0.126456 -0.00169561 -0.0094847)
(0.128307 -0.00333778 -0.0134583)
(0.129288 -0.00556206 -0.0165032)
(0.135587 -0.00644626 -0.0153253)
(0.135393 -0.00811459 -0.0164122)
(0.134849 -0.00862271 -0.0154476)
(0.13529 -0.00814518 -0.0127557)
(0.136655 -0.00738029 -0.0090681)
(0.137792 -0.00664261 -0.00539923)
(0.138238 -0.00561932 -0.00246456)
(0.13892 -0.00413082 -0.000148413)
(0.140174 -0.00270363 0.00170421)
(0.140875 -0.00221164 0.00278849)
(0.14029 -0.00286143 0.00305387)
(0.140114 -0.00377296 0.00332074)
(0.142062 -0.00393131 0.00425425)
(0.144629 -0.00335871 0.00530918)
(0.145078 -0.00271374 0.00582927)
(0.143086 -0.00218511 0.00624794)
(0.140015 -0.00147472 0.00707871)
(0.136355 -0.00073989 0.00798811)
(0.131948 -0.000619814 0.00836373)
(0.127813 -0.00144985 0.00809705)
(0.125301 -0.00303086 0.00755161)
(0.1245 -0.00519322 0.00711667)
(0.124655 -0.00753565 0.0070115)
(0.12505 -0.00936506 0.00728317)
(0.125333 -0.0102421 0.00789013)
(0.125398 -0.0100328 0.00843102)
(0.124959 -0.00877992 0.00821947)
(0.123713 -0.00686031 0.00702607)
(0.12179 -0.00487628 0.00511374)
(0.119878 -0.00318206 0.00269411)
(0.118519 -0.00171741 0.000317847)
(0.117495 -0.000373511 -0.000953823)
(0.11664 0.000714303 -0.000601611)
(0.116764 0.00130986 0.00069507)
(0.11874 0.00135945 0.0016014)
(0.122299 0.000971219 0.00105374)
(0.12648 0.000231125 -0.00111514)
(0.130233 -0.000746331 -0.00451898)
(0.132884 -0.00215244 -0.00856225)
(0.134662 -0.00419488 -0.012457)
(0.14076 -0.00498055 -0.0129173)
(0.141485 -0.00676571 -0.0148918)
(0.140721 -0.00801166 -0.015184)
(0.139727 -0.00841948 -0.0137614)
(0.139709 -0.00805978 -0.0109357)
(0.140329 -0.00729666 -0.0075051)
(0.140514 -0.00635731 -0.00439952)
(0.140287 -0.00522861 -0.00182578)
(0.14074 -0.00397628 0.000392672)
(0.141675 -0.00312922 0.00198667)
(0.141831 -0.00329199 0.00264403)
(0.141309 -0.00427099 0.0028174)
(0.141864 -0.00499205 0.00339493)
(0.14382 -0.00478838 0.00437339)
(0.145186 -0.00394423 0.00509011)
(0.144395 -0.00298508 0.00550859)
(0.142024 -0.00202322 0.00606228)
(0.13936 -0.00111586 0.00663486)
(0.136807 -0.000652861 0.0066123)
(0.134561 -0.00108998 0.0058111)
(0.133343 -0.00240521 0.00468749)
(0.133164 -0.00440783 0.00367085)
(0.133191 -0.00676616 0.00300966)
(0.132862 -0.00866345 0.00298564)
(0.132311 -0.00941536 0.00385748)
(0.131708 -0.00881266 0.00535043)
(0.1306 -0.00715066 0.00645755)
(0.128388 -0.00498286 0.00635211)
(0.125481 -0.00296328 0.00509388)
(0.122982 -0.00146611 0.00294668)
(0.121619 -0.000406311 0.00024548)
(0.121195 0.000588724 -0.00201431)
(0.121065 0.00149806 -0.00283458)
(0.121327 0.00190831 -0.00220436)
(0.122847 0.001729 -0.00105299)
(0.125919 0.00123892 -0.0005156)
(0.129834 0.000615182 -0.00120415)
(0.133561 -0.000147433 -0.00320196)
(0.136475 -0.00126808 -0.00625494)
(0.138822 -0.00299108 -0.00977276)
(0.145774 -0.00408594 -0.0116122)
(0.147458 -0.00543756 -0.0136381)
(0.147008 -0.00675181 -0.014661)
(0.144965 -0.00775182 -0.0142224)
(0.143173 -0.00796106 -0.0121322)
(0.142555 -0.00738174 -0.00895795)
(0.142411 -0.00649828 -0.00582607)
(0.141976 -0.00562395 -0.00313211)
(0.141769 -0.00472983 -0.000597774)
(0.14236 -0.00382702 0.00155918)
(0.142977 -0.0035051 0.00269105)
(0.14281 -0.00417048 0.00285439)
(0.142381 -0.0051534 0.00300936)
(0.142406 -0.00536835 0.00377481)
(0.142246 -0.00462861 0.00475243)
(0.140836 -0.00351018 0.00537839)
(0.138395 -0.00241008 0.0055388)
(0.135985 -0.00139591 0.00524387)
(0.134149 -0.000808066 0.00444357)
(0.133105 -0.0010641 0.0032091)
(0.133513 -0.00217831 0.00179347)
(0.135407 -0.00373988 0.000402486)
(0.137251 -0.0056296 -0.000512941)
(0.137659 -0.00741892 -0.000309036)
(0.136806 -0.00827369 0.00121093)
(0.135691 -0.00760778 0.00353122)
(0.134617 -0.00564841 0.00550549)
(0.132746 -0.00320064 0.00604643)
(0.129973 -0.00107432 0.00508698)
(0.127518 0.000321315 0.00308102)
(0.126486 0.00107108 0.000238653)
(0.126845 0.00165588 -0.00287236)
(0.127735 0.00225962 -0.00508381)
(0.128625 0.00240899 -0.00566196)
(0.129913 0.00184267 -0.00498018)
(0.132172 0.00101799 -0.00413342)
(0.135235 0.000388226 -0.003977)
(0.138302 -0.000180225 -0.00479998)
(0.14088 -0.00109022 -0.00661631)
(0.143271 -0.00253748 -0.0090847)
(0.149133 -0.00327707 -0.0101714)
(0.151661 -0.00409895 -0.0122175)
(0.152414 -0.00504131 -0.0137496)
(0.150689 -0.00620569 -0.0141322)
(0.14798 -0.0068881 -0.0127807)
(0.146074 -0.00669073 -0.00996512)
(0.145184 -0.00601901 -0.00683673)
(0.144503 -0.005378 -0.00406595)
(0.143827 -0.0047742 -0.00137567)
(0.143688 -0.00398329 0.00120769)
(0.144017 -0.00329394 0.00290076)
(0.14391 -0.00339199 0.00326561)
(0.142902 -0.00418422 0.00306085)
(0.141266 -0.00468326 0.00325861)
(0.139282 -0.00427542 0.00384998)
(0.136878 -0.00331372 0.00408671)
(0.134276 -0.00228918 0.00352053)
(0.132071 -0.00133978 0.00239787)
(0.130744 -0.000792026 0.00117106)
(0.130653 -0.00111884 9.97085e-05)
(0.132352 -0.0023258 -0.000803031)
(0.13601 -0.0037727 -0.00157035)
(0.13988 -0.00511796 -0.00182483)
(0.1416 -0.0064277 -0.00091293)
(0.140812 -0.00724592 0.00118129)
(0.138991 -0.00677173 0.00377051)
(0.137382 -0.00482646 0.00583024)
(0.135552 -0.0021727 0.0064551)
(0.132853 0.000121202 0.00559917)
(0.130164 0.00146735 0.0038613)
(0.128979 0.00197619 0.00145475)
(0.129684 0.00212972 -0.00152562)
(0.131394 0.00225941 -0.00414406)
(0.133102 0.00211351 -0.00530726)
(0.134611 0.00136659 -0.00510261)
(0.136432 0.000373951 -0.00462207)
(0.138934 -0.000192126 -0.00463983)
(0.141749 -0.000417378 -0.00518393)
(0.144276 -0.000953778 -0.00630107)
(0.146542 -0.00210544 -0.0080554)
(0.1489 -0.00219232 -0.00775759)
(0.152401 -0.00275928 -0.0101958)
(0.155114 -0.00337154 -0.0122283)
(0.155357 -0.0043329 -0.0133771)
(0.153292 -0.00512506 -0.0129615)
(0.15084 -0.00521356 -0.0108134)
(0.149218 -0.00483799 -0.00776319)
(0.148052 -0.00447347 -0.00477902)
(0.146745 -0.00409754 -0.00200843)
(0.145627 -0.00341366 0.000690804)
(0.145086 -0.00259675 0.00288277)
(0.144691 -0.00227661 0.0038697)
(0.143705 -0.00267053 0.00372937)
(0.141936 -0.00313295 0.00316856)
(0.139778 -0.00300433 0.00263166)
(0.137575 -0.00238726 0.00199213)
(0.135508 -0.00165751 0.000910482)
(0.13387 -0.000923506 -0.000544609)
(0.133145 -0.000435008 -0.0019209)
(0.133745 -0.000839805 -0.00273846)
(0.135784 -0.00227434 -0.00287705)
(0.139244 -0.00403822 -0.00261718)
(0.142923 -0.00521817 -0.00206499)
(0.144735 -0.00588974 -0.000828579)
(0.143941 -0.00618839 0.00139342)
(0.141732 -0.00573308 0.00410293)
(0.139419 -0.00412087 0.0062988)
(0.136917 -0.0015577 0.00720934)
(0.133565 0.000970352 0.00690345)
(0.130009 0.00244284 0.00594818)
(0.127792 0.00274825 0.0044021)
(0.12765 0.00251868 0.00217398)
(0.128981 0.00226129 5.69472e-05)
(0.130715 0.00187675 -0.000804022)
(0.132399 0.00109876 -0.000611523)
(0.134224 0.000169614 -0.000583162)
(0.136596 -0.000335202 -0.00126057)
(0.139588 -0.000384193 -0.00225386)
(0.142788 -0.000593598 -0.0034913)
(0.145777 -0.00132238 -0.0053497)
(0.147317 -0.000494517 -0.00466479)
(0.151496 -0.000935331 -0.00728578)
(0.155612 -0.00146617 -0.00977005)
(0.157961 -0.0022417 -0.0115952)
(0.157674 -0.00293886 -0.0120877)
(0.15576 -0.00315948 -0.0108485)
(0.153695 -0.0030524 -0.0083856)
(0.151833 -0.00299097 -0.00558247)
(0.14975 -0.0028947 -0.00285291)
(0.147563 -0.00240489 -0.000133154)
(0.145851 -0.00169201 0.00235349)
(0.144618 -0.00128426 0.00389397)
(0.143353 -0.00143649 0.00418608)
(0.141819 -0.00176658 0.0035657)
(0.140308 -0.00178619 0.00253711)
(0.138984 -0.00149601 0.00147902)
(0.137797 -0.00114467 0.000449988)
(0.136967 -0.000732412 -0.000707724)
(0.136925 -0.000302191 -0.00190358)
(0.137854 -0.000477198 -0.00265201)
(0.139474 -0.00175487 -0.00255538)
(0.141656 -0.00358396 -0.00185395)
(0.143976 -0.00477624 -0.00093811)
(0.145257 -0.00499333 0.0003366)
(0.144841 -0.00466591 0.00228244)
(0.143266 -0.00393766 0.00458596)
(0.141249 -0.00261397 0.00652691)
(0.138691 -0.000536846 0.00762465)
(0.135207 0.00171432 0.00783248)
(0.131321 0.00310696 0.00740671)
(0.128374 0.00317936 0.00641776)
(0.127183 0.00240425 0.0048882)
(0.12756 0.00146573 0.00331806)
(0.128864 0.000690577 0.00256263)
(0.130662 1.61404e-05 0.00265663)
(0.132697 -0.000526837 0.00264071)
(0.134898 -0.000658143 0.00184336)
(0.137498 -0.000331046 0.000585515)
(0.140534 -1.56955e-05 -0.00073033)
(0.143762 -9.41142e-05 -0.00238664)
(0.145973 0.00162492 -0.00179196)
(0.150219 0.00122315 -0.00420372)
(0.154681 0.000565144 -0.00673153)
(0.158019 -0.000243786 -0.00904803)
(0.159274 -0.000763329 -0.0105237)
(0.158743 -0.000829768 -0.0104349)
(0.157194 -0.00082683 -0.00881921)
(0.154951 -0.00109761 -0.00644144)
(0.152032 -0.00134172 -0.00396622)
(0.148846 -0.00107102 -0.00143095)
(0.146075 -0.000422114 0.00115236)
(0.143997 -3.95366e-05 0.00313565)
(0.142437 -0.000157588 0.00390585)
(0.141298 -0.000461092 0.00360616)
(0.140701 -0.000645044 0.00277796)
(0.140463 -0.000775799 0.00188964)
(0.140155 -0.00101326 0.00116676)
(0.139758 -0.00115042 0.000582527)
(0.139738 -0.000996148 0.000158743)
(0.140423 -0.00106866 0.0001348)
(0.141493 -0.00210509 0.000794735)
(0.142491 -0.00369512 0.00192798)
(0.143292 -0.00457886 0.00297846)
(0.14372 -0.00418146 0.00387926)
(0.143522 -0.00313562 0.00507351)
(0.1426 -0.00210463 0.00642773)
(0.140965 -0.00109011 0.00738426)
(0.138564 0.000333583 0.00776825)
(0.135364 0.00217279 0.00783387)
(0.131796 0.00373024 0.00778378)
(0.128799 0.00419491 0.00745569)
(0.127175 0.00353059 0.00671094)
(0.127067 0.00243234 0.00594612)
(0.128187 0.00156746 0.00572045)
(0.130126 0.00107671 0.00596195)
(0.1324 0.000819528 0.00589089)
(0.134678 0.000852105 0.00497767)
(0.136994 0.00120501 0.0035162)
(0.139551 0.00160381 0.00195191)
(0.142477 0.00177297 0.000261842)
(0.146241 0.00241299 8.79907e-06)
(0.149692 0.00203177 -0.00202786)
(0.153349 0.0014999 -0.00426998)
(0.156539 0.000780409 -0.00655288)
(0.158696 0.000251563 -0.00843632)
(0.159748 0.000330968 -0.00929081)
(0.159686 0.000788151 -0.00886998)
(0.158276 0.000943263 -0.0075289)
(0.155496 0.000610148 -0.00574598)
(0.152008 0.000277795 -0.00368262)
(0.148777 0.000310576 -0.00134163)
(0.146373 0.000395804 0.000897394)
(0.144891 0.000251061 0.00242235)
(0.144268 2.00414e-05 0.0030099)
(0.144424 -0.000190304 0.00295032)
(0.144973 -0.00050328 0.00276071)
(0.145368 -0.000862276 0.00285177)
(0.145426 -0.000947279 0.00324204)
(0.145501 -0.000636253 0.00357314)
(0.145889 -0.000396876 0.00349295)
(0.146212 -0.000904188 0.00339037)
(0.145938 -0.00204338 0.00392423)
(0.145267 -0.00275846 0.00494435)
(0.144622 -0.00223434 0.00557076)
(0.143969 -0.00082013 0.00558945)
(0.142958 0.000584992 0.00544629)
(0.141362 0.00168611 0.00554646)
(0.139144 0.00282685 0.0058391)
(0.136305 0.00431262 0.00597898)
(0.133093 0.00568194 0.00586053)
(0.130194 0.00616738 0.00567372)
(0.128405 0.00558451 0.00546709)
(0.128156 0.00451726 0.00528099)
(0.12933 0.00359507 0.0053047)
(0.131471 0.00305584 0.00561908)
(0.133906 0.00282882 0.00592573)
(0.136211 0.00281285 0.00571567)
(0.138392 0.002902 0.00480121)
(0.140693 0.00289848 0.00341042)
(0.143273 0.00272363 0.0018028)
(0.145171 0.00121046 0.00112675)
(0.148198 0.000667113 -0.000567322)
(0.151351 0.000368035 -0.0023412)
(0.154135 9.49062e-06 -0.00425806)
(0.156114 -0.000332514 -0.00612464)
(0.157324 -0.000202152 -0.00746943)
(0.158026 0.000534736 -0.00790626)
(0.158136 0.00141059 -0.00744694)
(0.15721 0.00185212 -0.00639817)
(0.155068 0.00173069 -0.00501189)
(0.152294 0.00119161 -0.00331257)
(0.149805 0.000262907 -0.00139054)
(0.148221 -0.00105845 0.000392151)
(0.147675 -0.00236131 0.00164235)
(0.147924 -0.00323014 0.00229426)
(0.14844 -0.00371845 0.0025957)
(0.148646 -0.00399018 0.0029741)
(0.148399 -0.00381304 0.00353059)
(0.147988 -0.00294958 0.00380695)
(0.147654 -0.00173616 0.00329478)
(0.147127 -0.000773292 0.00218757)
(0.146134 -0.000370761 0.00145228)
(0.144951 -0.000282996 0.00161136)
(0.144011 0.000115524 0.00208876)
(0.143325 0.00113029 0.00217989)
(0.142751 0.00235388 0.00198494)
(0.142261 0.00334304 0.00201104)
(0.141807 0.00425522 0.00232333)
(0.14097 0.00556577 0.00252007)
(0.139428 0.00713672 0.00235976)
(0.137502 0.00818267 0.00210983)
(0.135937 0.00813603 0.0020232)
(0.135264 0.00725112 0.00206889)
(0.135372 0.00611056 0.00226655)
(0.135907 0.00507015 0.00278173)
(0.136583 0.00425438 0.00362554)
(0.137394 0.00373631 0.00442132)
(0.13856 0.00340708 0.0046235)
(0.140272 0.00290323 0.00400389)
(0.142513 0.00206659 0.00272368)
(0.145167 -0.00040573 0.00450793)
(0.146879 -0.000780081 0.00288435)
(0.148486 -0.000644622 0.000904597)
(0.149827 -0.000258749 -0.00129478)
(0.150643 0.000199622 -0.0035245)
(0.15079 0.000759637 -0.00549657)
(0.15039 0.00145651 -0.00692221)
(0.14981 0.00212368 -0.00756843)
(0.149437 0.00250674 -0.00736114)
(0.149416 0.00242327 -0.00642941)
(0.149628 0.00182229 -0.00506257)
(0.149852 0.000678641 -0.00354248)
(0.15009 -0.0009303 -0.00196818)
(0.150528 -0.00266511 -0.000315458)
(0.151237 -0.00403202 0.00131669)
(0.151926 -0.0047644 0.00264906)
(0.152024 -0.0048541 0.00354802)
(0.151236 -0.00438627 0.00412921)
(0.149806 -0.00355837 0.00441696)
(0.148261 -0.00265232 0.00414574)
(0.146878 -0.00185116 0.00317496)
(0.145728 -0.00113871 0.00198131)
(0.144896 -0.000552773 0.001247)
(0.144422 -0.000128968 0.00113878)
(0.144237 0.000282609 0.0013534)
(0.144359 0.000888502 0.0015892)
(0.144852 0.00172312 0.00175685)
(0.145575 0.00279235 0.00175861)
(0.14608 0.00415878 0.00134632)
(0.146003 0.00568317 0.000376347)
(0.145416 0.00690155 -0.000926268)
(0.144701 0.00739969 -0.00208142)
(0.144125 0.00719956 -0.0027239)
(0.143609 0.00655783 -0.0026213)
(0.142935 0.00560209 -0.00161329)
(0.142095 0.00442339 0.000299603)
(0.141413 0.00325351 0.0026865)
(0.141327 0.00228025 0.00471947)
(0.142079 0.00139518 0.00572992)
(0.143481 0.000434329 0.0055614)
(0.152664 0.0010293 0.0056475)
(0.154369 0.00093309 0.00560029)