/*--------------------------------*- C++ -*----------------------------------*\
| =========                 |                                                 |
| \\      /  F ield         | OpenFOAM: The Open Source CFD Toolbox           |
|  \\    /   O peration     | Version:  2306                                  |
|   \\  /    A nd           | Website:  www.openfoam.com                      |
|    \\/     M anipulation  |                                                 |
\*---------------------------------------------------------------------------*/
FoamFile
{
    version     2.0;
    format      ascii;
    arch        "LSB;label=32;scalar=64";
    class       volScalarField;
    location    "10";
    object      p;
}
// * * * * * * * * * * * * * * * * * * * * * * * * * * * * * * * * * * * * * //

dimensions      [0 2 -2 0 0 0 0];

internalField   nonuniform List<scalar> 
60000
(
1.9594e-05
-2.97073e-05
-6.96018e-05
-8.05368e-05
-6.34489e-05
-3.30365e-05
-7.56989e-06
-1.00862e-05
-4.05065e-05
-8.40506e-05
-0.000122585
-0.000150418
-0.000168283
-0.000171581
-0.00016063
-0.00014683
-0.000140546
-0.000133642
-0.00010881
-7.39351e-05
-5.25227e-05
-4.25108e-05
-2.57296e-05
-1.39787e-05
-3.72958e-05
-9.49643e-05
-0.000163144
-0.000225729
-0.000266813
-0.00024916
-0.000154308
-3.67439e-05
2.16436e-05
1.80336e-05
-1.99843e-05
-5.99878e-05
-6.90646e-05
-3.36949e-05
1.78779e-05
4.2277e-05
2.05904e-05
-2.87403e-05
-6.88407e-05
-7.99411e-05
-6.29326e-05
-3.24649e-05
-6.89211e-06
-9.45814e-06
-4.0121e-05
-8.40135e-05
-0.00012276
-0.000150615
-0.00016852
-0.000171946
-0.000161145
-0.0001475
-0.000141239
-0.00013445
-0.000109593
-7.45312e-05
-5.30709e-05
-4.31848e-05
-2.60776e-05
-1.36464e-05
-3.63817e-05
-9.36973e-05
-0.000162302
-0.000225827
-0.0002685
-0.000252253
-0.000157599
-3.91231e-05
2.03816e-05
1.71327e-05
-2.02625e-05
-6.06825e-05
-7.02944e-05
-3.48443e-05
1.74978e-05
4.29231e-05
2.13569e-05
-2.81764e-05
-6.86709e-05
-7.97852e-05
-6.24437e-05
-3.206e-05
-6.12922e-06
-9.13133e-06
-4.09522e-05
-8.59884e-05
-0.000125139
-0.000152617
-0.000170044
-0.000173181
-0.0001622
-0.000148334
-0.000142112
-0.000135679
-0.000110876
-7.546e-05
-5.39175e-05
-4.42152e-05
-2.61801e-05
-1.27638e-05
-3.45656e-05
-9.22378e-05
-0.000161799
-0.000226659
-0.000271397
-0.000256742
-0.000161122
-4.08966e-05
1.96774e-05
1.71013e-05
-2.07374e-05
-6.22438e-05
-7.28905e-05
-3.7728e-05
1.62174e-05
4.30998e-05
2.16923e-05
-2.82815e-05
-6.92843e-05
-8.02876e-05
-6.24243e-05
-3.14717e-05
-4.95008e-06
-8.92442e-06
-4.35547e-05
-9.12734e-05
-0.000131236
-0.000157687
-0.000173683
-0.000175697
-0.000163868
-0.000149282
-0.000142964
-0.000137125
-0.00011254
-7.6723e-05
-5.51425e-05
-4.5693e-05
-2.61205e-05
-1.07693e-05
-3.17028e-05
-9.05297e-05
-0.000161696
-0.000228276
-0.00027567
-0.000262516
-0.00016475
-4.149e-05
1.98886e-05
1.68544e-05
-2.19394e-05
-6.51858e-05
-7.70866e-05
-4.17409e-05
1.3978e-05
4.2792e-05
2.14643e-05
-2.91343e-05
-7.08221e-05
-8.14935e-05
-6.2833e-05
-3.00282e-05
-3.3103e-06
-8.40757e-06
-4.72443e-05
-9.99449e-05
-0.000141791
-0.000166754
-0.000180201
-0.000179926
-0.000166212
-0.000150084
-0.00014326
-0.000138148
-0.000114096
-7.81816e-05
-5.69689e-05
-4.80732e-05
-2.61593e-05
-7.55336e-06
-2.78486e-05
-8.84831e-05
-0.000161644
-0.000230389
-0.000281055
-0.000271423
-0.000171582
-4.36423e-05
1.96308e-05
1.63401e-05
-2.41512e-05
-6.9852e-05
-8.28292e-05
-4.65583e-05
1.11831e-05
4.135e-05
2.10241e-05
-3.03999e-05
-7.33475e-05
-8.4734e-05
-6.52033e-05
-2.95766e-05
-4.45375e-07
-8.94373e-06
-5.23663e-05
-0.00011113
-0.000156274
-0.000179983
-0.000190093
-0.000186365
-0.000169586
-0.000150815
-0.000142658
-0.000137961
-0.000114568
-7.91136e-05
-5.91488e-05
-5.17158e-05
-2.67456e-05
-2.92719e-06
-2.21043e-05
-8.56706e-05
-0.000161557
-0.000232408
-0.000287295
-0.00028362
-0.000185012
-5.2106e-05
1.387e-05
1.24309e-05
-2.73549e-05
-7.65314e-05
-9.02506e-05
-5.17654e-05
8.61672e-06
4.06481e-05
2.11823e-05
-3.09203e-05
-7.67038e-05
-9.00836e-05
-7.26201e-05
-3.38117e-05
2.117e-06
-5.82376e-06
-6.05166e-05
-0.000127776
-0.000175306
-0.000196766
-0.000202805
-0.000194913
-0.000174329
-0.000152139
-0.000141556
-0.000136505
-0.000113301
-7.84367e-05
-6.06384e-05
-5.63521e-05
-2.82528e-05
3.20314e-06
-1.35243e-05
-8.12493e-05
-0.000163279
-0.000233945
-0.000292784
-0.00029618
-0.00020016
-6.5226e-05
3.52762e-06
2.48713e-06
-3.62305e-05
-8.68894e-05
-0.000100552
-5.74422e-05
6.46276e-06
3.95542e-05
2.32748e-05
-2.83574e-05
-7.62548e-05
-9.34577e-05
-8.24143e-05
-4.51601e-05
-1.83135e-07
8.27026e-07
-6.0051e-05
-0.000145891
-0.00020292
-0.000219981
-0.000218775
-0.000204725
-0.000179284
-0.000154113
-0.000141962
-0.00013546
-0.000111024
-7.59084e-05
-5.98988e-05
-6.06217e-05
-3.06231e-05
1.04856e-05
-1.63892e-06
-7.44744e-05
-0.000161287
-0.000233464
-0.000291809
-0.000296787
-0.000201646
-6.58682e-05
2.96432e-06
-5.08937e-06
-4.78965e-05
-0.000103805
-0.000117065
-6.81828e-05
3.0397e-06
4.04964e-05
2.39716e-05
-2.28844e-05
-6.75495e-05
-8.62579e-05
-8.44712e-05
-5.68e-05
-6.42828e-06
8.72618e-06
-4.93645e-05
-0.000152764
-0.000230925
-0.000253028
-0.00024162
-0.000218621
-0.000185259
-0.000155295
-0.000143353
-0.000139019
-0.000112957
-7.32281e-05
-5.57562e-05
-6.16352e-05
-3.24984e-05
1.7906e-05
1.2274e-05
-6.58629e-05
-0.000159939
-0.000232116
-0.000284747
-0.000282237
-0.000180387
-4.27262e-05
2.28679e-05
2.92792e-06
-5.55339e-05
-0.000125498
-0.000141941
-8.66073e-05
-7.65027e-06
3.60549e-05
2.21487e-05
-1.91609e-05
-5.92245e-05
-7.18484e-05
-7.50624e-05
-6.10003e-05
-1.05688e-05
2.04301e-05
-2.59578e-05
-0.000141136
-0.000249505
-0.000289371
-0.000273617
-0.000237706
-0.000195915
-0.000160202
-0.000145171
-0.000143505
-0.000121142
-7.87751e-05
-5.30274e-05
-5.30281e-05
-2.98533e-05
2.52651e-05
2.47166e-05
-5.77845e-05
-0.000159934
-0.00023321
-0.000278241
-0.000263258
-0.000147305
-2.58494e-06
6.43338e-05
2.95493e-05
-5.03081e-05
-0.000138604
-0.000175166
-0.000112369
-2.07218e-05
2.89972e-05
1.57103e-05
-1.9048e-05
-4.56246e-05
-4.86973e-05
-5.18128e-05
-6.00037e-05
-1.3818e-05
3.46896e-05
1.065e-05
-0.000105815
-0.000242971
-0.000320624
-0.000313197
-0.00026639
-0.000209364
-0.000166895
-0.000150955
-0.000149277
-0.000128108
-8.82204e-05
-6.16018e-05
-5.71719e-05
-2.85085e-05
3.02602e-05
3.16801e-05
-5.43207e-05
-0.000160228
-0.00023623
-0.000277237
-0.000255672
-0.000132058
2.45745e-05
0.000107473
7.2848e-05
-2.92445e-05
-0.000143209
-0.000205929
-0.000143747
-4.16955e-05
1.53772e-05
2.72895e-06
-2.56309e-05
-3.41248e-05
-1.69031e-05
-1.20657e-05
-2.58027e-05
-1.75628e-05
4.30155e-05
5.09951e-05
-4.95647e-05
-0.000204592
-0.000323226
-0.000352747
-0.000304537
-0.000232406
-0.00017498
-0.000154399
-0.000154652
-0.000135185
-9.7072e-05
-6.56198e-05
-6.78201e-05
-4.7825e-05
1.17899e-05
2.41002e-05
-5.91386e-05
-0.000158596
-0.000232641
-0.000269323
-0.00024911
-0.000142811
1.25407e-05
0.000123242
0.000113075
1.13824e-05
-0.000123627
-0.000200789
-0.000172363
-6.71055e-05
-5.55238e-06
-1.25385e-05
-3.50934e-05
-3.75571e-05
2.01916e-06
3.04967e-05
1.50737e-05
-7.64747e-06
4.19179e-05
7.90289e-05
9.96616e-06
-0.000141689
-0.000288963
-0.000366444
-0.000346432
-0.000262673
-0.000187175
-0.000156392
-0.000158333
-0.000142621
-0.000106029
-8.58757e-05
-7.37598e-05
-6.41672e-05
-2.22385e-05
-3.83651e-06
-7.76619e-05
-0.000153669
-0.00021281
-0.000244265
-0.000225012
-0.000153938
-2.4646e-05
8.8643e-05
0.00012865
5.90853e-05
-7.51267e-05
-0.000171901
-0.000190814
-8.96798e-05
-2.71107e-05
-3.13103e-05
-4.58036e-05
-4.69831e-05
1.37769e-06
5.02125e-05
4.49444e-05
2.4159e-05
3.33312e-05
8.89367e-05
5.58833e-05
-7.4277e-05
-0.000228196
-0.000344044
-0.000368216
-0.00029356
-0.000198694
-0.000157181
-0.000160371
-0.000152476
-0.000113775
-8.67679e-05
-7.5909e-05
-6.64518e-05
-4.87633e-05
-7.02799e-05
-0.00010298
-0.000143295
-0.000184715
-0.000210908
-0.000203987
-0.000149963
-5.84885e-05
4.2795e-05
0.000118024
8.68566e-05
-1.26975e-05
-0.000113774
-0.000150566
-0.000102835
-5.10451e-05
-5.6505e-05
-5.81117e-05
-5.47998e-05
-2.0404e-05
4.29547e-05
5.17892e-05
2.96732e-05
2.31599e-05
8.19354e-05
8.11133e-05
-1.78495e-05
-0.000157141
-0.000288899
-0.000356903
-0.000312925
-0.000213049
-0.000156394
-0.000159458
-0.000161116
-0.000130519
-9.10851e-05
-7.32579e-05
-6.05768e-05
-5.40371e-05
-7.76416e-05
-0.000107139
-0.000134442
-0.000156501
-0.000169806
-0.000179459
-0.000141162
-8.62721e-05
-8.22025e-06
7.1315e-05
8.2425e-05
2.85153e-05
-5.13366e-05
-9.87874e-05
-9.94934e-05
-7.48521e-05
-8.67533e-05
-7.25113e-05
-5.34797e-05
-1.86439e-05
3.00947e-05
4.05314e-05
2.40291e-05
2.31389e-05
6.47775e-05
8.54537e-05
1.6604e-05
-9.83508e-05
-0.000221135
-0.000308156
-0.000302941
-0.000223407
-0.000160967
-0.000155905
-0.00016106
-0.000143389
-0.00010313
-7.65927e-05
-5.99558e-05
-5.1285e-05
-7.49391e-05
-0.000109553
-0.000123524
-0.000128588
-0.000141196
-0.000154448
-0.000124188
-9.42265e-05
-4.5291e-05
2.7295e-05
5.70311e-05
3.7049e-05
-1.3431e-05
-5.74126e-05
-8.55146e-05
-9.64077e-05
-0.000102228
-8.72459e-05
-5.43848e-05
-1.77796e-05
1.95887e-05
2.65318e-05
1.06921e-05
9.76707e-06
3.73345e-05
6.36551e-05
2.17018e-05
-6.25323e-05
-0.000162043
-0.000242448
-0.000262516
-0.000214208
-0.000161063
-0.000153862
-0.000160179
-0.000148332
-0.000112197
-7.97558e-05
-6.41806e-05
-6.00635e-05
-8.25852e-05
-0.000118028
-0.000124947
-0.000106712
-0.000115441
-0.000135996
-0.000116206
-8.84584e-05
-5.59419e-05
-3.65323e-06
3.23139e-05
3.73398e-05
5.19543e-06
-3.2802e-05
-6.86121e-05
-9.51968e-05
-0.000108968
-8.47518e-05
-4.9104e-05
-1.85445e-05
1.80927e-05
2.57539e-05
2.75863e-06
-6.6671e-06
-5.75969e-06
2.55999e-05
-5.34821e-06
-5.40946e-05
-0.000103434
-0.000158429
-0.000198026
-0.000193825
-0.000162719
-0.000138727
-0.000149253
-0.000143817
-0.000113084
-8.34256e-05
-6.67298e-05
-6.25796e-05
-8.09239e-05
-0.000125003
-0.000130536
-9.64519e-05
-8.82668e-05
-0.000114606
-0.000113129
-7.80384e-05
-4.61774e-05
-2.3472e-05
-2.33616e-08
2.48067e-05
9.27246e-06
-2.1091e-05
-6.4317e-05
-0.000100073
-0.000106217
-7.48431e-05
-3.1566e-05
-3.64991e-07
2.50241e-05
2.52586e-05
-8.41539e-06
-3.49325e-05
-2.41918e-05
-1.51699e-06
-1.69027e-05
-5.65113e-05
-8.90513e-05
-9.64143e-05
-0.000117212
-0.000139947
-0.000148127
-0.00016811
-0.000149344
-0.000144317
-0.000120157
-9.9577e-05
-8.84175e-05
-7.88467e-05
-8.25614e-05
-0.000109151
-0.000121533
-8.8717e-05
-6.31475e-05
-7.8669e-05
-9.48761e-05
-7.18843e-05
-4.03063e-05
-3.49251e-05
-2.31524e-05
-8.4579e-06
6.55526e-06
-2.99733e-05
-8.33462e-05
-0.000108706
-9.78683e-05
-6.13142e-05
-2.56976e-05
-5.34782e-06
7.72861e-06
5.05621e-06
-2.11222e-05
-4.82201e-05
-4.88301e-05
-3.82833e-05
-4.4533e-05
-4.75116e-05
-6.48013e-05
-7.84262e-05
-9.40685e-05
-0.000111492
-0.000116682
-0.000111719
-0.000130895
-0.000134686
-0.000123095
-0.00011209
-0.000118619
-0.000124723
-0.000125161
-0.000122728
-0.000113667
-8.28205e-05
-4.90488e-05
-4.68035e-05
-7.07416e-05
-7.69998e-05
-6.17967e-05
-5.12696e-05
-3.49996e-05
1.55505e-05
1.4997e-05
-3.67214e-05
-9.76422e-05
-0.000113965
-0.000166419
-0.000119381
-6.12967e-05
-1.74882e-05
1.61397e-05
1.21793e-05
-1.41594e-05
-4.27374e-05
-5.15299e-05
-5.18081e-05
-7.44174e-05
-0.000104912
-0.000101911
-0.000105143
-9.77397e-05
-9.43741e-05
-0.000101187
-0.000113054
-0.000130368
-0.000133746
-0.000124574
-0.000118752
-0.0001273
-0.00014
-0.000151055
-0.000149097
-0.000129365
-8.7309e-05
-3.62082e-05
-2.82937e-05
-6.09704e-05
-0.000105648
-9.05456e-05
-5.65001e-05
-2.11628e-05
2.78838e-05
2.30396e-05
-3.17295e-05
-0.000107616
-0.000155393
-0.000223237
-0.000179609
-0.000109796
-4.57104e-05
-6.73989e-06
-3.31386e-06
-2.88144e-05
-4.70447e-05
-4.6991e-05
-3.02496e-05
-3.42605e-05
-6.70417e-05
-9.61125e-05
-0.000114671
-0.0001109
-9.78812e-05
-9.45924e-05
-0.000110103
-0.00012701
-0.000131081
-0.000126668
-0.00012387
-0.000129795
-0.000143482
-0.000154
-0.000152303
-0.000125533
-9.42005e-05
-3.78507e-05
-9.00011e-06
-3.89949e-05
-9.14397e-05
-9.87796e-05
-6.64473e-05
-2.44164e-05
4.38238e-05
4.04232e-05
-8.51402e-06
-0.000109672
-0.000190799
-0.000187925
-0.000175874
-0.000136955
-8.84953e-05
-4.1417e-05
-1.84482e-05
-2.6309e-05
-4.69378e-05
-5.5164e-05
-4.8996e-05
-3.8177e-05
-3.786e-05
-5.08992e-05
-7.52391e-05
-9.29898e-05
-0.000119509
-0.000113332
-0.000125158
-0.000131022
-0.00012778
-0.000124713
-0.000125088
-0.000125868
-0.000122161
-0.000119041
-0.000116342
-0.000110642
-9.37879e-05
-4.86925e-05
-5.92284e-06
-1.60023e-05
-6.03761e-05
-8.24204e-05
-6.90149e-05
-4.16061e-05
1.2748e-05
7.33834e-05
1.84388e-05
-6.86092e-05
-0.000149378
-0.000148022
-0.000157977
-0.000146032
-0.000115436
-7.26522e-05
-4.78167e-05
-3.99574e-05
-4.73154e-05
-4.79041e-05
-3.73118e-05
-2.94688e-05
-4.43248e-05
-7.29978e-05
-0.000102758
-0.000124119
-0.000137399
-0.00013816
-0.000134844
-0.000122314
-0.0001004
-8.91804e-05
-9.69604e-05
-0.000109762
-0.000129373
-0.000130561
-0.000118812
-9.39273e-05
-6.88773e-05
-3.80579e-05
-4.63726e-06
-4.74957e-07
-3.43039e-05
-7.34706e-05
-9.29682e-05
-8.66955e-05
-5.38821e-05
-8.38325e-06
-1.46497e-05
-5.57027e-05
-0.00011005
-0.000115074
-0.000134921
-0.000147445
-0.000133343
-0.000108829
-7.6391e-05
-5.66673e-05
-5.20888e-05
-7.03012e-05
-5.07851e-05
-3.76518e-05
-4.52308e-05
-7.37472e-05
-0.000106291
-0.000131108
-0.000149856
-0.000156353
-0.00015472
-0.000145258
-0.0001205
-0.000100478
-0.000101695
-0.000112711
-0.000107617
-9.93305e-05
-9.32551e-05
-8.15258e-05
-5.30469e-05
-1.35913e-05
1.75635e-05
1.80242e-05
-2.93726e-05
-9.88517e-05
-0.0001617
-0.000146858
-0.00012062
-9.71343e-05
-6.29995e-05
-6.21433e-05
-8.60927e-05
6.6244e-05
-9.09932e-09
-3.92873e-05
-2.96954e-05
1.04877e-05
4.25172e-05
5.04388e-05
2.08312e-05
-4.14157e-05
-0.000111585
-0.000163805
-0.000192678
-0.000205877
-0.000209401
-0.000204993
-0.000196944
-0.000191239
-0.00018254
-0.000155368
-0.000112222
-7.45533e-05
-5.32129e-05
-4.17018e-05
-3.8447e-05
-4.63458e-05
-7.38507e-05
-0.000126199
-0.00019584
-0.000262844
-0.00027306
-0.000169371
-7.99377e-06
8.19965e-05
7.81161e-05
4.9712e-05
3.97685e-05
4.08236e-05
5.87836e-05
9.49917e-05
0.000107193
6.61643e-05
-3.35947e-08
-3.96842e-05
-3.02112e-05
1.06331e-05
4.34973e-05
5.2645e-05
2.36734e-05
-3.84588e-05
-0.000109118
-0.000162095
-0.000191691
-0.000205366
-0.000209218
-0.000205074
-0.000197265
-0.0001917
-0.000183187
-0.000156182
-0.000113188
-7.54639e-05
-5.39127e-05
-4.21645e-05
-3.86339e-05
-4.61812e-05
-7.34334e-05
-0.000125585
-0.000195609
-0.000263944
-0.000276433
-0.000174634
-1.29969e-05
7.88084e-05
7.56626e-05
4.72197e-05
3.71408e-05
3.80427e-05
5.57478e-05
9.24703e-05
0.00010608
6.63287e-05
-1.01668e-07
-4.03797e-05
-3.05606e-05
1.11795e-05
4.59846e-05
5.60408e-05
2.69332e-05
-3.63837e-05
-0.000108705
-0.000162837
-0.00019288
-0.000206468
-0.000210194
-0.000206041
-0.000198315
-0.0001928
-0.000184525
-0.000157801
-0.000114919
-7.68676e-05
-5.47983e-05
-4.25729e-05
-3.85467e-05
-4.58635e-05
-7.28086e-05
-0.000124773
-0.000195534
-0.000265438
-0.00028049
-0.00018038
-1.71949e-05
7.73207e-05
7.41151e-05
4.4578e-05
3.43383e-05
3.53931e-05
5.25374e-05
8.95018e-05
0.000104893
6.62431e-05
-7.63037e-07
-4.17437e-05
-3.07855e-05
1.3736e-05
5.03128e-05
6.06995e-05
2.97105e-05
-3.69322e-05
-0.00011245
-0.000167876
-0.000197531
-0.000209971
-0.00021276
-0.000208054
-0.000200087
-0.000194706
-0.000186506
-0.000160099
-0.000117278
-7.86299e-05
-5.56512e-05
-4.25544e-05
-3.80932e-05
-4.49426e-05
-7.19143e-05
-0.000123747
-0.000195466
-0.000267163
-0.000285175
-0.000185912
-1.94635e-05
7.85228e-05
7.3999e-05
4.17044e-05
3.10744e-05
3.28247e-05
4.94994e-05
8.64374e-05
0.000103578
6.53605e-05
-2.94561e-06
-4.49211e-05
-3.20476e-05
1.71145e-05
5.58235e-05
6.70392e-05
3.20535e-05
-4.08104e-05
-0.000121511
-0.00017822
-0.000206245
-0.000216193
-0.000217092
-0.000211104
-0.00020237
-0.000196721
-0.000188676
-0.000162639
-0.00011995
-8.06726e-05
-5.66035e-05
-4.21271e-05
-3.69643e-05
-4.34222e-05
-7.06525e-05
-0.000122617
-0.000195196
-0.000269233
-0.000291804
-0.000194247
-2.32607e-05
8.03323e-05
7.43369e-05
3.81679e-05
2.66876e-05
2.98956e-05
4.68721e-05
8.37358e-05
0.000102172
6.38648e-05
-6.57252e-06
-5.037e-05
-3.60101e-05
1.94585e-05
6.34584e-05
7.45026e-05
3.5801e-05
-4.68103e-05
-0.000135745
-0.000194202
-0.000219322
-0.000225328
-0.000223441
-0.000215374
-0.000205106
-0.000198646
-0.0001905
-0.000164691
-0.000122144
-8.24492e-05
-5.7701e-05
-4.1729e-05
-3.52991e-05
-4.11562e-05
-6.89516e-05
-0.000121262
-0.000194702
-0.000272211
-0.000303081
-0.000211795
-3.71701e-05
7.4501e-05
7.09327e-05
3.20952e-05
2.00193e-05
2.54718e-05
4.41563e-05
8.1545e-05
0.000100946
6.25484e-05
-9.64116e-06
-5.58344e-05
-4.19484e-05
1.96975e-05
7.19476e-05
8.82858e-05
4.41127e-05
-4.99661e-05
-0.000152506
-0.000214888
-0.000236591
-0.000237328
-0.000231921
-0.00022108
-0.000208515
-0.000200282
-0.000191916
-0.000165928
-0.000122961
-8.27515e-05
-5.81216e-05
-4.15849e-05
-3.38301e-05
-3.83564e-05
-6.64923e-05
-0.000119594
-0.000194249
-0.000276252
-0.00031872
-0.000238741
-6.46274e-05
5.63462e-05
5.74535e-05
1.77208e-05
6.94922e-06
1.60602e-05
3.82115e-05
7.82661e-05
9.94369e-05
6.17131e-05
-7.71408e-06
-5.41186e-05
-4.41743e-05
1.97965e-05
8.11462e-05
0.0001087
6.54003e-05
-4.24053e-05
-0.000163583
-0.000236949
-0.000257642
-0.00025261
-0.000242781
-0.000227909
-0.00021232
-0.000202574
-0.00019359
-0.000166862
-0.00012245
-8.07108e-05
-5.63172e-05
-4.07287e-05
-3.30949e-05
-3.58248e-05
-6.35566e-05
-0.000117834
-0.000194138
-0.000279474
-0.000329592
-0.000261079
-9.47282e-05
3.17913e-05
3.94625e-05
-4.50972e-06
-1.49718e-05
-1.62559e-06
2.29058e-05
6.68436e-05
9.4355e-05
5.50329e-05
-1.79593e-06
-4.02752e-05
-3.35736e-05
2.44997e-05
9.11972e-05
0.00013573
0.000103128
-1.47721e-05
-0.000158811
-0.000251931
-0.000280376
-0.000271597
-0.000257473
-0.000237165
-0.000216453
-0.000204416
-0.000195515
-0.000168899
-0.000123434
-7.82956e-05
-5.2444e-05
-3.76728e-05
-3.2246e-05
-3.46294e-05
-6.13618e-05
-0.000116877
-0.000195727
-0.000281537
-0.000329381
-0.000261805
-0.000106402
1.16378e-05
2.43812e-05
-2.47304e-05
-4.37379e-05
-2.64314e-05
9.59538e-07
4.54918e-05
7.67633e-05
4.73998e-05
3.13544e-06
-2.69125e-05
-1.56282e-05
3.55119e-05
9.89103e-05
0.000162861
0.000155032
3.95885e-05
-0.000129001
-0.000251251
-0.000299039
-0.000294839
-0.000276474
-0.000248342
-0.000222826
-0.000208083
-0.000197603
-0.000171959
-0.000124975
-7.95731e-05
-5.1748e-05
-3.41475e-05
-3.00994e-05
-3.50354e-05
-6.1651e-05
-0.000117426
-0.000198777
-0.000283182
-0.000323722
-0.00024929
-9.69264e-05
7.48753e-06
1.4676e-05
-3.75508e-05
-7.02735e-05
-5.78688e-05
-3.00592e-05
2.17428e-05
6.08104e-05
4.53835e-05
1.14137e-05
-9.42727e-06
-1.13032e-06
4.03099e-05
9.57743e-05
0.000175189
0.000204286
0.000112863
-7.00188e-05
-0.000224733
-0.00030311
-0.000316997
-0.000303499
-0.000260842
-0.000227657
-0.00021204
-0.0002013
-0.000173125
-0.000124813
-8.13697e-05
-5.41738e-05
-3.65117e-05
-3.11884e-05
-3.86249e-05
-6.66075e-05
-0.000120411
-0.000201201
-0.000283586
-0.000321281
-0.000236337
-8.59634e-05
1.445e-05
1.67561e-05
-4.1485e-05
-8.81002e-05
-9.22302e-05
-6.95231e-05
-9.29241e-06
4.40899e-05
3.43808e-05
1.26445e-05
5.7276e-06
1.72409e-05
4.56381e-05
8.26927e-05
0.000163916
0.000228746
0.000179925
6.20605e-06
-0.000169986
-0.00028113
-0.000327942
-0.000337204
-0.000279003
-0.000232761
-0.000214749
-0.000204413
-0.000174152
-0.000123476
-8.65759e-05
-6.24118e-05
-4.58336e-05
-4.255e-05
-5.21529e-05
-7.83171e-05
-0.000125849
-0.000199495
-0.000276544
-0.000324155
-0.000235214
-9.19852e-05
1.11966e-05
2.79813e-05
-3.08786e-05
-8.91411e-05
-0.000112333
-0.000103962
-4.50575e-05
1.62611e-05
7.71879e-06
4.84684e-06
1.59615e-05
3.39904e-05
5.08907e-05
7.32702e-05
0.000147665
0.000224222
0.000216144
7.10633e-05
-0.000102938
-0.000229769
-0.000313584
-0.000343637
-0.000305757
-0.000243079
-0.000216769
-0.000206727
-0.000177756
-0.000137846
-9.88057e-05
-7.78561e-05
-6.23238e-05
-6.25841e-05
-7.79721e-05
-0.00010573
-0.000135554
-0.000190387
-0.000275854
-0.000315453
-0.000234404
-0.000112526
-6.33691e-06
3.10696e-05
-1.03981e-05
-7.13228e-05
-0.000107826
-0.00011471
-7.70811e-05
-2.09247e-05
-2.52252e-05
-1.25155e-05
1.95825e-05
3.62503e-05
5.57584e-05
6.58964e-05
0.000105843
0.000183062
0.000224151
0.0001084
-4.87629e-05
-0.000168283
-0.000267686
-0.000336206
-0.000321073
-0.000257408
-0.00021831
-0.000206524
-0.0001835
-0.000144
-0.000106723
-8.39372e-05
-6.78376e-05
-7.5046e-05
-0.000103741
-0.000127828
-0.000140409
-0.000169652
-0.000236472
-0.000275438
-0.000214527
-0.000124019
-3.82482e-05
1.36474e-05
6.36938e-06
-4.22988e-05
-8.30554e-05
-0.000108085
-9.09913e-05
-5.29959e-05
-5.16539e-05
-3.32712e-05
-2.95788e-05
2.0051e-05
5.1342e-05
5.87134e-05
7.70389e-05
0.000144905
0.000203625
0.000115302
-1.87656e-05
-0.000119772
-0.000207211
-0.000299208
-0.000327499
-0.000274696
-0.000222438
-0.000204052
-0.000189055
-0.000156625
-0.000110286
-7.9554e-05
-6.01288e-05
-6.65947e-05
-9.83076e-05
-0.000124215
-0.000133145
-0.000147381
-0.000213559
-0.000232986
-0.000187055
-0.000121037
-6.5549e-05
-1.31677e-05
8.4716e-06
-1.60677e-05
-5.05672e-05
-7.27585e-05
-8.94817e-05
-7.05183e-05
-7.35577e-05
-4.96079e-05
-3.27451e-05
8.28488e-06
4.72639e-05
5.41072e-05
5.38263e-05
0.000102497
0.000164622
0.000110694
-3.03145e-06
-8.65076e-05
-0.000153852
-0.000240771
-0.00030279
-0.000280438
-0.000223538
-0.000196165
-0.000190788
-0.000167146
-0.00011812
-7.3319e-05
-4.88939e-05
-5.75942e-05
-9.01363e-05
-0.000119138
-0.000128345
-0.00013335
-0.000179874
-0.000200463
-0.000159727
-0.000109815
-8.01206e-05
-3.11135e-05
5.42887e-06
4.05144e-06
-2.35043e-05
-5.02482e-05
-9.22015e-05
-7.58834e-05
-8.86311e-05
-5.72711e-05
-3.12022e-05
4.63964e-06
4.38781e-05
5.12623e-05
3.63408e-05
5.45802e-05
0.000106468
8.24052e-05
-1.75543e-06
-7.5339e-05
-0.000113797
-0.000170252
-0.000242338
-0.000262133
-0.000227808
-0.000197554
-0.000184959
-0.000169139
-0.000122747
-7.28473e-05
-4.28567e-05
-5.06441e-05
-8.3747e-05
-0.000117618
-0.000130642
-0.000128287
-0.00014614
-0.000181953
-0.000145359
-9.87441e-05
-7.53803e-05
-3.62154e-05
-9.21138e-07
1.70354e-05
5.88124e-07
-2.98714e-05
-6.55274e-05
-8.28534e-05
-9.06049e-05
-6.65204e-05
-1.85867e-05
-2.12051e-07
3.60403e-05
4.88609e-05
2.94337e-05
2.14799e-05
5.70082e-05
1.86292e-05
-3.57412e-05
-6.7297e-05
-6.85695e-05
-9.23185e-05
-0.000157615
-0.000213833
-0.000222645
-0.000208097
-0.00019438
-0.000177342
-0.000125875
-6.35834e-05
-3.66287e-05
-4.65304e-05
-8.01556e-05
-0.000115736
-0.000136294
-0.000127698
-0.000123444
-0.000146291
-0.000140647
-0.000101518
-6.52323e-05
-3.71773e-05
-8.7277e-06
1.39333e-05
7.81567e-06
-1.59816e-05
-4.88738e-05
-7.86945e-05
-8.42797e-05
-6.86476e-05
-3.39644e-05
-5.5031e-06
2.36131e-05
3.21783e-05
1.03969e-05
-1.20645e-05
-4.61942e-06
-1.01117e-05
-4.13537e-05
-8.18621e-05
-6.52012e-05
-2.28394e-05
-4.74687e-05
-0.00012589
-0.000187031
-0.000202983
-0.000189192
-0.000169696
-0.000135945
-9.74178e-05
-7.09462e-05
-6.45823e-05
-8.09435e-05
-0.000109921
-0.000138594
-0.000126259
-0.000100189
-0.000102496
-0.000113896
-0.000105303
-7.07475e-05
-3.96721e-05
-1.14001e-05
8.21284e-06
-4.33744e-06
-3.04216e-05
-5.34527e-05
-7.20958e-05
-7.95929e-05
-4.9019e-05
-1.91628e-05
-4.57466e-06
3.02039e-06
2.98099e-06
-1.24285e-05
-3.14538e-05
-3.91286e-05
-4.4904e-05
-3.63052e-05
-4.89445e-05
-3.72655e-05
-2.52891e-05
-3.08795e-05
-7.01612e-05
-0.000115519
-0.000147089
-0.000162992
-0.000161952
-0.000138335
-0.000114537
-0.000104677
-0.000108024
-0.000118016
-0.000125616
-0.000125977
-0.000111467
-8.71856e-05
-8.12326e-05
-8.97209e-05
-0.000101883
-8.86869e-05
-5.30877e-05
-1.85042e-05
7.50793e-06
-9.85355e-06
-4.88106e-05
-8.11517e-05
-9.06537e-05
-0.000127503
-7.99286e-05
-2.91764e-05
2.7413e-06
9.36587e-06
8.37689e-06
-1.48855e-05
-3.33543e-05
-3.9664e-05
-5.82526e-05
-8.12604e-05
-8.12711e-05
-4.4609e-05
-5.29235e-05
-5.04621e-05
-5.90907e-05
-8.60653e-05
-0.000113949
-0.000134347
-0.000143775
-0.000141218
-0.000135684
-0.000135083
-0.000142934
-0.000151207
-0.000156591
-0.000141993
-0.000113971
-8.66741e-05
-8.02356e-05
-9.94849e-05
-0.000110853
-8.77883e-05
-4.31746e-05
-4.24074e-07
2.41686e-05
-8.70857e-06
-5.99135e-05
-0.00011662
-0.00014207
-0.000169779
-0.000120085
-6.37892e-05
-1.45926e-05
4.84338e-06
3.8835e-07
-3.86076e-05
-4.77642e-05
-4.33238e-05
-7.62663e-06
-3.19283e-05
-5.20499e-05
-6.36523e-05
-7.38422e-05
-7.64469e-05
-6.56711e-05
-7.57499e-05
-0.000100235
-0.000124463
-0.000136608
-0.000136764
-0.0001331
-0.000136227
-0.000150606
-0.000172121
-0.000186537
-0.000189347
-0.000146319
-9.77949e-05
-6.52648e-05
-7.28251e-05
-9.52746e-05
-8.81418e-05
-5.27286e-05
-5.87473e-06
2.80065e-05
1.72719e-05
-3.80657e-05
-0.000114266
-0.000161877
-0.000146306
-0.000136694
-0.000103781
-6.93251e-05
-3.05623e-05
-1.49219e-05
-2.73278e-05
-4.76962e-05
-5.21045e-05
-5.17875e-05
-4.06156e-05
-3.98568e-05
-4.56049e-05
-5.6229e-05
-5.55347e-05
-5.17524e-05
-7.62775e-05
-0.00010147
-0.000123978
-0.000132038
-0.000129479
-0.000122359
-0.000112279
-0.0001124
-0.000120467
-0.000130938
-0.000138386
-0.000124266
-8.85795e-05
-5.41036e-05
-5.90316e-05
-9.03077e-05
-0.000100107
-7.39582e-05
-3.80296e-05
-2.79318e-06
3.47112e-05
-1.43146e-05
-7.39688e-05
-0.000126333
-0.00013507
-0.000136498
-0.000121444
-9.24743e-05
-5.9662e-05
-3.91394e-05
-3.68451e-05
-4.79748e-05
-5.07543e-05
-4.12686e-05
-2.83016e-05
-3.56193e-05
-5.68781e-05
-8.00171e-05
-9.76372e-05
-0.000100721
-0.000111622
-0.000119943
-0.000122052
-0.000110835
-9.86867e-05
-0.000101032
-0.00010988
-0.000118023
-0.000119284
-0.000117208
-0.000105543
-8.80011e-05
-6.33263e-05
-3.68242e-05
-3.14397e-05
-5.26382e-05
-7.85054e-05
-8.15706e-05
-7.19722e-05
-5.0463e-05
-3.24311e-05
-3.24003e-05
-6.31348e-05
-0.000105971
-0.000105946
-0.000123281
-0.000134017
-0.000112225
-8.9905e-05
-6.86594e-05
-5.44975e-05
-4.86588e-05
-5.99276e-05
-5.11617e-05
-3.39382e-05
-4.12948e-05
-6.6152e-05
-9.30306e-05
-0.000111641
-0.000130911
-0.000144387
-0.000159536
-0.000153096
-0.000129508
-0.000104451
-9.58856e-05
-9.9648e-05
-0.000100978
-9.92302e-05
-9.79343e-05
-8.91594e-05
-6.83019e-05
-3.12734e-05
-3.30999e-06
-1.27012e-06
-3.42613e-05
-8.38301e-05
-9.4279e-05
-0.000116149
-0.000100078
-8.30083e-05
-6.37114e-05
-6.33872e-05
-8.1587e-05
7.35958e-05
5.61786e-05
5.84783e-05
4.89669e-05
2.30085e-05
9.86815e-06
1.03098e-05
5.91681e-06
-2.03291e-05
-5.70593e-05
-9.14621e-05
-0.00012201
-0.000148908
-0.000166957
-0.000176762
-0.000190529
-0.00020921
-0.000209925
-0.000172947
-0.000117186
-7.41953e-05
-4.79508e-05
-3.35776e-05
-2.92921e-05
-3.33696e-05
-5.72814e-05
-0.0001062
-0.000165
-0.000227329
-0.000258077
-0.000215572
-0.000103612
-8.16768e-06
3.56563e-05
7.78036e-05
0.000118479
0.000127424
0.000114411
0.000104147
9.58776e-05
7.1178e-05
5.46155e-05
5.8173e-05
5.01652e-05
2.4915e-05
1.1815e-05
1.32033e-05
9.29327e-06
-1.69255e-05
-5.41301e-05
-8.92074e-05
-0.00012058
-0.000148203
-0.000166779
-0.000176749
-0.000190418
-0.000209327
-0.000210696
-0.000174294
-0.00011857
-7.55237e-05
-4.92457e-05
-3.47401e-05
-3.01998e-05
-3.39152e-05
-5.73968e-05
-0.000105832
-0.000164407
-0.00022723
-0.000258458
-0.000217368
-0.000106027
-1.06896e-05
3.2942e-05
7.45778e-05
0.000115246
0.000123961
0.000110413
0.000100041
9.24382e-05
6.8023e-05
5.31974e-05
5.94535e-05
5.37385e-05
2.79062e-05
1.44725e-05
1.59912e-05
1.19953e-05
-1.48365e-05
-5.29976e-05
-8.86849e-05
-0.000120627
-0.000148536
-0.000167517
-0.000177332
-0.000190771
-0.000210202
-0.0002126
-0.000176626
-0.000120419
-7.70189e-05
-5.05749e-05
-3.57944e-05
-3.08708e-05
-3.40618e-05
-5.70999e-05
-0.000105159
-0.000163919
-0.00022705
-0.000259972
-0.000220625
-0.00010898
-1.30396e-05
3.0312e-05
7.14811e-05
0.000112833
0.000121936
0.000107414
9.57892e-05
8.80492e-05
6.39219e-05
5.14634e-05
6.25757e-05
5.92311e-05
3.26953e-05
1.78425e-05
1.81214e-05
1.29534e-05
-1.55176e-05
-5.51287e-05
-9.09738e-05
-0.000122893
-0.000150413
-0.000169391
-0.000178715
-0.000191835
-0.000212089
-0.000216877
-0.000180193
-0.000122974
-7.8873e-05
-5.20192e-05
-3.67503e-05
-3.13413e-05
-3.40355e-05
-5.6548e-05
-0.000104273
-0.000163821
-0.000227716
-0.000262946
-0.000225516
-0.000112225
-1.44123e-05
2.86124e-05
6.92384e-05
0.000111812
0.00012204
0.000106449
9.25115e-05
8.33078e-05
5.88169e-05
4.82527e-05
6.47134e-05
6.73369e-05
4.01915e-05
2.24989e-05
1.95337e-05
1.15907e-05
-1.98675e-05
-6.13306e-05
-9.64602e-05
-0.000126919
-0.000153524
-0.000172085
-0.000180716
-0.000193448
-0.000214628
-0.000221218
-0.000184655
-0.000126252
-8.14595e-05
-5.40979e-05
-3.80921e-05
-3.21528e-05
-3.40185e-05
-5.56384e-05
-0.000103491
-0.000164525
-0.000229635
-0.000267816
-0.000233357
-0.000117411
-1.56769e-05
2.81111e-05
6.79368e-05
0.000111727
0.000123684
0.000107701
9.12495e-05
7.91085e-05
5.36978e-05
4.32748e-05
6.44923e-05
7.79438e-05
5.06006e-05
2.97105e-05
2.19321e-05
8.34754e-06
-2.81317e-05
-7.20216e-05
-0.000105293
-0.000132591
-0.000157354
-0.000175101
-0.000183014
-0.000195192
-0.000217728
-0.000225272
-0.000188878
-0.000129378
-8.42031e-05
-5.67617e-05
-4.02232e-05
-3.38806e-05
-3.48916e-05
-5.49332e-05
-0.000103474
-0.000166447
-0.000233336
-0.00027561
-0.00024747
-0.000129871
-2.15925e-05
2.58978e-05
6.66019e-05
0.000111354
0.000124866
0.000109977
9.23104e-05
7.66585e-05
5.0228e-05
3.75517e-05
6.37821e-05
8.93553e-05
6.65015e-05
4.20376e-05
2.81343e-05
5.79346e-06
-3.9232e-05
-8.70633e-05
-0.000117263
-0.000139481
-0.000161264
-0.000177818
-0.000185159
-0.000196553
-0.000218898
-0.000227595
-0.000192046
-0.000131978
-8.59699e-05
-5.83997e-05
-4.2423e-05
-3.67917e-05
-3.71358e-05
-5.49459e-05
-0.0001039
-0.000170045
-0.000239256
-0.000292913
-0.000268515
-0.000154685
-4.0807e-05
1.28143e-05
5.90317e-05
0.00010748
0.000121392
0.000108936
9.36454e-05
7.63497e-05
4.94705e-05
3.34888e-05
6.09867e-05
9.58641e-05
8.31827e-05
5.95751e-05
4.24502e-05
9.8449e-06
-4.84904e-05
-0.000105229
-0.000131946
-0.000147068
-0.000164701
-0.000179872
-0.000187076
-0.000197337
-0.000217786