/*--------------------------------*- C++ -*----------------------------------*\
| =========                 |                                                 |
| \\      /  F ield         | OpenFOAM: The Open Source CFD Toolbox           |
|  \\    /   O peration     | Version:  2306                                  |
|   \\  /    A nd           | Website:  www.openfoam.com                      |
|    \\/     M anipulation  |                                                 |
\*---------------------------------------------------------------------------*/
FoamFile
{
    version     2.0;
    format      ascii;
    arch        "LSB;label=32;scalar=64";
    class       surfaceScalarField;
    location    "10";
    object      phi;
}
// * * * * * * * * * * * * * * * * * * * * * * * * * * * * * * * * * * * * * //

dimensions      [0 3 -1 0 0 0 0];

oriented        oriented;

internalField   nonuniform List<scalar> 
175300
(
4.0381e-06
2.06185e-07
-1.11056e-06
4.18819e-06
3.62019e-07
-8.61838e-07
4.37708e-06
3.67428e-07
-6.77248e-07
4.64561e-06
3.02847e-07
-4.5784e-07
4.97222e-06
1.74246e-07
-5.34197e-08
5.30817e-06
1.79485e-07
3.53605e-07
5.53002e-06
3.32741e-07
8.22521e-07
5.53334e-06
6.1087e-07
1.28584e-06
5.34025e-06
8.60963e-07
1.65097e-06
5.08074e-06
9.29704e-07
1.8141e-06
4.86888e-06
8.16957e-07
1.74589e-06
4.71426e-06
6.35874e-07
1.54419e-06
4.57238e-06
4.55429e-07
1.35779e-06
4.41618e-06
2.82423e-07
1.28079e-06
4.23281e-06
1.12482e-07
1.30745e-06
4.00467e-06
-2.55763e-08
1.37322e-06
3.72966e-06
-1.04191e-07
1.41277e-06
3.48027e-06
-1.9277e-07
1.38378e-06
3.36014e-06
-3.01485e-07
1.25823e-06
3.37202e-06
-3.35841e-07
1.00917e-06
3.41964e-06
-2.92668e-07
6.84765e-07
3.49083e-06
-3.43243e-07
4.03481e-07
3.65182e-06
-4.30491e-07
1.88691e-07
3.89481e-06
-4.05791e-07
-4.03634e-08
4.12837e-06
-1.92868e-07
-2.30894e-07
4.33339e-06
9.80786e-08
-3.45275e-07
4.53426e-06
2.48895e-07
-2.61122e-07
4.71532e-06
1.66145e-07
-7.98562e-08
4.83838e-06
-1.47785e-07
2.47094e-08
4.95513e-06
-7.37022e-07
-8.43872e-08
5.11658e-06
-1.17462e-06
-4.98113e-07
5.2295e-06
-1.07684e-06
-1.06837e-06
5.16787e-06
-5.64504e-07
-1.49534e-06
4.94879e-06
-2.71417e-08
-1.76354e-06
4.62913e-06
3.60157e-07
-2.01116e-06
4.24021e-06
5.22619e-07
-2.14272e-06
3.87151e-06
3.90124e-07
-2.05187e-06
3.67408e-06
9.72883e-08
-1.85154e-06
3.70576e-06
-7.45829e-08
-1.64618e-06
-8.555e-09
-1.39555e-06
1.3186e-05
7.15177e-07
-3.22761e-06
1.37558e-05
1.12132e-06
-2.5291e-06
1.4533e-05
9.86337e-07
-1.91299e-06
1.55475e-05
6.04131e-07
-1.13336e-06
1.67071e-05
1.63902e-07
4.8367e-08
1.78318e-05
2.2269e-07
1.32605e-06
1.85602e-05
7.98537e-07
2.77324e-06
1.85875e-05
1.79748e-06
4.17374e-06
1.79675e-05
2.70929e-06
5.23685e-06
1.71049e-05
2.99723e-06
5.65203e-06
1.63825e-05
2.62103e-06
5.3767e-06
1.5876e-05
1.97133e-06
4.72745e-06
1.54612e-05
1.33676e-06
4.13318e-06
1.50086e-05
7.7049e-07
3.83458e-06
1.44262e-05
2.56479e-07
3.81345e-06
1.36679e-05
-1.47157e-07
3.92722e-06
1.27922e-05
-4.40549e-07
4.0189e-06
1.20167e-05
-8.09565e-07
3.94815e-06
1.15695e-05
-1.23522e-06
3.60616e-06
1.14573e-05
-1.40582e-06
2.94328e-06
1.15146e-05
-1.31082e-06
2.09592e-06
1.17209e-05
-1.39322e-06
1.32258e-06
1.21598e-05
-1.51003e-06
6.43654e-07
1.27769e-05
-1.13434e-06
-6.74375e-08
1.34222e-05
-3.5713e-07
-5.87499e-07
1.40954e-05
4.50242e-07
-7.81647e-07
1.48494e-05
6.0669e-07
-4.65209e-07
1.564e-05
-9.95525e-08
5.29651e-08
1.63868e-05
-1.60495e-06
2.86872e-07
1.71113e-05
-3.68795e-06
-8.55727e-08
1.7726e-05
-4.87839e-06
-1.25537e-06
1.79157e-05
-4.12534e-06
-2.80519e-06
1.75128e-05
-2.08547e-06
-4.07722e-06
1.6698e-05
-1.13404e-07
-4.98861e-06
1.56927e-05
1.14435e-06
-5.65654e-06
1.45844e-05
1.48726e-06
-5.83998e-06
1.35082e-05
9.35832e-07
-5.5127e-06
1.27512e-05
8.39862e-08
-5.04991e-06
1.25295e-05
-2.96816e-07
-4.60008e-06
2.72093e-08
-3.98548e-06
2.41384e-05
1.3007e-06
-5.73752e-06
2.51637e-05
1.94421e-06
-4.66485e-06
2.66738e-05
1.44436e-06
-3.6568e-06
2.86299e-05
3.37854e-07
-2.37607e-06
3.08654e-05
-7.6043e-07
-3.86503e-07
3.30806e-05
-7.00332e-07
1.81054e-06
3.46781e-05
4.7758e-07
4.36945e-06
3.50562e-05
2.58967e-06
6.89941e-06
3.41436e-05
4.65495e-06
8.88953e-06
3.25649e-05
5.54814e-06
9.79183e-06
3.11017e-05
5.01648e-06
9.47644e-06
3.00692e-05
3.76127e-06
8.42381e-06
2.93218e-05
2.45492e-06
7.36021e-06
2.85854e-05
1.31034e-06
6.70775e-06
2.76342e-05
3.31993e-07
6.46581e-06
2.63607e-05
-4.0963e-07
6.47278e-06
2.48374e-05
-9.81745e-07
6.55624e-06
2.33601e-05
-1.71755e-06
6.50555e-06
2.22877e-05
-2.58268e-06
6.09218e-06
2.17407e-05
-3.0108e-06
5.17473e-06
2.15852e-05
-2.94695e-06
3.93192e-06
2.17946e-05
-3.09994e-06
2.73246e-06
2.24256e-05
-3.15626e-06
1.5975e-06
2.33653e-05
-2.13976e-06
3.50863e-07
2.44381e-05
-4.5696e-07
-5.77677e-07
2.56842e-05
9.52626e-07
-8.67353e-07
2.71923e-05
7.52174e-07
-2.55502e-07
2.88731e-05
-1.25641e-06
6.77284e-07
3.057e-05
-5.02394e-06
1.37767e-06
3.22402e-05
-9.57429e-06
1.00045e-06
3.35947e-05
-1.19055e-05
-7.531e-07
3.40238e-05
-9.95063e-06
-3.35342e-06
3.33092e-05
-5.2783e-06
-5.75178e-06
3.18749e-05
-8.42553e-07
-7.60815e-06
3.01903e-05
1.89343e-06
-8.86827e-06
2.83962e-05
2.54137e-06
-9.16571e-06
2.65154e-05
1.41117e-06
-8.63012e-06
2.48135e-05
-1.28203e-07
-7.97962e-06
2.37744e-05
-6.91127e-07
-7.48509e-06
1.76427e-08
-6.7789e-06
3.6992e-05
1.70549e-06
-8.74496e-06
3.82355e-05
2.50818e-06
-7.66271e-06
4.04318e-05
1.3788e-06
-6.56642e-06
4.34015e-05
-9.54537e-07
-5.0611e-06
4.69129e-05
-3.34743e-06
-2.60851e-06
5.06027e-05
-3.94768e-06
7.53091e-07
5.36825e-05
-2.08687e-06
4.50015e-06
5.51294e-05
1.55458e-06
8.47378e-06
5.44492e-05
5.45161e-06
1.18634e-05
5.22472e-05
7.70358e-06
1.3799e-05
4.97844e-05
7.54296e-06
1.39174e-05
4.79199e-05
5.81853e-06
1.27209e-05
4.66926e-05
3.70907e-06
1.12348e-05
4.56968e-05
1.80451e-06
1.01423e-05
4.45044e-05
2.43598e-07
9.49163e-06
4.28702e-05
-8.67274e-07
9.13871e-06
4.07712e-05
-1.66434e-06
9.02022e-06
3.84386e-05
-2.65696e-06
8.98133e-06
3.63104e-05
-3.87691e-06
8.67322e-06
3.47594e-05
-4.61351e-06
7.74944e-06
3.38772e-05
-4.80243e-06
6.33614e-06
3.37254e-05
-5.34454e-06
4.90273e-06
3.43321e-05
-5.53709e-06
3.44419e-06
3.5486e-05
-3.70822e-06
1.70704e-06
3.69661e-05
-5.88444e-07
9.30004e-08
3.88517e-05
1.47958e-06
-3.05924e-07
4.12684e-05
6.39864e-07
5.77207e-07
4.40026e-05
-3.46242e-06
2.30651e-06
4.67573e-05
-1.05783e-05
4.02285e-06
4.95647e-05
-1.89633e-05
4.33882e-06
5.212e-05
-2.33877e-05
2.33554e-06
5.33908e-05
-2.01277e-05
-1.42045e-06
5.28338e-05
-1.16777e-05
-5.4466e-06
5.10424e-05
-3.39035e-06
-8.85903e-06
4.88416e-05
1.91163e-06
-1.12743e-05
4.65179e-05
3.42087e-06
-1.20544e-05
4.38896e-05
1.78812e-06
-1.13946e-05
4.09342e-05
-4.94184e-07
-1.04999e-05
3.83226e-05
-1.23214e-06
-1.00513e-05
-1.41376e-07
-9.61733e-06
5.23269e-05
1.89986e-06
-1.17872e-05
5.29646e-05
2.69733e-06
-1.1398e-05
5.52808e-05
6.49699e-07
-1.09029e-05
5.88681e-05
-3.61106e-06
-9.83984e-06
6.34863e-05
-8.47716e-06
-7.48989e-06
6.88641e-05
-1.11233e-05
-3.48271e-06
7.41945e-05
-9.34295e-06
1.62003e-06
7.79421e-05
-3.6623e-06
7.32622e-06
7.8732e-05
3.12094e-06
1.28636e-05
7.66119e-05
8.04382e-06
1.67218e-05
7.3148e-05
9.3815e-06
1.81172e-05
7.00753e-05
7.80571e-06
1.73599e-05
6.80638e-05
4.98494e-06
1.57311e-05
6.67536e-05
2.16432e-06
1.4319e-05
6.54757e-05
-1.32303e-07
1.3255e-05
6.37561e-05
-1.63992e-06
1.23216e-05
6.13684e-05
-2.51928e-06
1.16343e-05
5.82859e-05
-3.4719e-06
1.13518e-05
5.48001e-05
-4.67876e-06
1.11764e-05
5.15138e-05
-5.47859e-06
1.04767e-05
4.8984e-05
-6.05353e-06
9.16337e-06
4.76605e-05
-7.61467e-06
7.81093e-06
4.77187e-05
-8.67376e-06
6.36922e-06
4.88223e-05
-6.18199e-06
4.29675e-06
5.05741e-05
-1.21766e-06
2.09552e-06
5.3037e-05
2.03907e-06
1.21517e-06
5.63463e-05
4.76915e-07
2.43613e-06
6.00195e-05
-6.37702e-06
5.3362e-06
6.33727e-05
-1.77656e-05
8.67814e-06
6.68022e-05
-3.11259e-05
1.0529e-05
7.08542e-05
-3.97797e-05
9.16061e-06
7.42401e-05
-3.66786e-05
4.64292e-06
7.52662e-05
-2.38441e-05
-1.49973e-06
7.40908e-05
-9.84031e-06
-7.51423e-06
7.19139e-05
-8.83866e-08
-1.21877e-05
6.94197e-05
3.63325e-06
-1.42949e-05
6.63727e-05
2.07337e-06
-1.38205e-05
6.22615e-05
-8.3698e-07
-1.25535e-05
5.75623e-05
-1.71711e-06
-1.19651e-05
-3.20543e-07
-1.19461e-05
7.1899e-05
2.24033e-06
-1.3862e-05
7.06817e-05
2.77705e-06
-1.46938e-05
7.18591e-05
-4.08175e-07
-1.55594e-05
7.46688e-05
-7.11933e-06
-1.59172e-05
7.89546e-05
-1.57007e-05
-1.48703e-05
8.49389e-05
-2.24325e-05
-1.17467e-05
9.25363e-05
-2.34178e-05
-6.29385e-06
0.000100191
-1.71013e-05
1.10373e-06
0.000104903
-5.9931e-06
9.49211e-06
0.000104884
3.96147e-06
1.66907e-05
0.000101323
8.90495e-06
2.07653e-05
9.69582e-05
8.89453e-06
2.15061e-05
9.37695e-05
5.96349e-06
2.03184e-05
9.19406e-05
2.22892e-06
1.89757e-05
9.06349e-05
-9.92309e-07
1.79103e-05
8.90953e-05
-2.9742e-06
1.65767e-05
8.68809e-05
-3.77354e-06
1.5004e-05
8.36055e-05
-4.30609e-06
1.39085e-05
7.90554e-05
-4.94831e-06
1.35197e-05
7.36733e-05
-5.17528e-06
1.30639e-05
6.84237e-05
-5.70814e-06
1.20169e-05
6.44946e-05
-8.69177e-06
1.10087e-05
6.27858e-05
-1.18553e-05
1.00503e-05
6.31255e-05
-9.57459e-06
8.07098e-06
6.47521e-05
-2.4786e-06
5.32394e-06
6.74943e-05
2.67873e-06
3.99951e-06
7.147e-05
6.39459e-07
5.60349e-06
7.59264e-05
-9.21843e-06
9.69151e-06
7.93326e-05
-2.49474e-05
1.45028e-05
8.17504e-05
-4.34708e-05
1.79481e-05
8.56664e-05
-5.80214e-05
1.84467e-05
9.18145e-05
-5.88782e-05
1.50119e-05
9.71406e-05
-4.44266e-05
7.836e-06
9.92231e-05
-2.35796e-05
-1.55827e-06
9.86399e-05
-6.50209e-06
-1.02204e-05
9.67871e-05
1.98473e-06
-1.52328e-05
9.39339e-05
1.99199e-06
-1.58255e-05
8.92875e-05
-9.81985e-07
-1.42777e-05
8.27541e-05
-1.80016e-06
-1.31828e-05
-1.01025e-07
-1.323e-05
9.77659e-05
3.09896e-06
-1.43199e-05
9.43658e-05
3.07759e-06
-1.61306e-05
9.38256e-05
-1.18002e-06
-1.83334e-05
9.43196e-05
-9.91672e-06
-2.03849e-05
9.54993e-05
-2.20545e-05
-2.17217e-05
9.85225e-05
-3.38813e-05
-2.13184e-05
0.000104809
-4.04602e-05
-1.8119e-05
0.000114973
-3.8028e-05
-1.1538e-05
0.000126212
-2.61442e-05
-1.38108e-06
0.000132875
-9.68176e-06
1.026e-05
0.000132449
2.64272e-06
1.93397e-05
0.000127942
7.13588e-06
2.35533e-05
0.000123534
5.7104e-06
2.38576e-05
0.000120986
1.5989e-06
2.30344e-05
0.000119612
-2.63479e-06
2.26524e-05
0.000118319
-5.22678e-06
2.18707e-05
0.000116628
-5.82631e-06
1.98101e-05
0.000114022
-5.58091e-06
1.73817e-05
0.000109569
-5.15622e-06
1.59872e-05
0.000102889
-4.1082e-06
1.53928e-05
9.47191e-05
-3.61124e-06
1.45633e-05
8.67195e-05
-7.33721e-06
1.39228e-05
8.11078e-05
-1.33623e-05
1.37223e-05
7.89902e-05
-1.28883e-05
1.23714e-05
7.95609e-05
-4.16369e-06
9.43058e-06
8.20298e-05
3.54957e-06
7.73378e-06
8.6312e-05
1.75829e-06
9.64e-06
9.18468e-05
-1.09161e-05
1.44023e-05
9.65614e-05
-3.04079e-05
1.91703e-05
9.8378e-05
-5.17701e-05
2.21412e-05
9.89934e-05
-7.02848e-05
2.42206e-05
0.000103431
-7.84816e-05
2.51189e-05
0.000112548
-6.93021e-05
2.11677e-05
0.000121349
-4.63967e-05
1.0716e-05
0.000126035
-2.08048e-05
-3.1014e-06
0.000126861
-3.86799e-06
-1.3343e-05
0.000125199
5.86832e-07
-1.68143e-05
0.000120945
-9.9737e-07
-1.57517e-05
0.000113644
-1.22869e-06
-1.3991e-05
8.91347e-07
-1.34818e-05
0.000129385
4.60865e-06
-1.32564e-05
0.000124849
3.76798e-06
-1.52969e-05
0.000124057
-1.25198e-06
-1.8159e-05
0.000123197
-1.04776e-05
-2.10803e-05
0.000119956
-2.3751e-05
-2.443e-05
0.00011643
-3.90445e-05
-2.80152e-05
0.000116469
-5.20233e-05
-2.9253e-05
0.000122785
-5.70171e-05
-2.60501e-05
0.000136012
-5.05268e-05
-1.78844e-05
0.00015131
-3.36797e-05
-4.76062e-06
0.000159957
-1.44468e-05
1.03581e-05
0.00015943
-1.40713e-06
2.0974e-05
0.00015519
1.92585e-06
2.48499e-05
0.000152343
-9.45153e-07
2.49833e-05
0.000151283
-5.69845e-06
2.54055e-05
0.000150273
-8.80088e-06
2.63611e-05
0.000148905
-9.03878e-06
2.54912e-05
0.000147477
-7.7428e-06
2.22988e-05
0.000144785
-5.991e-06
1.91387e-05
0.000139056
-3.38938e-06
1.75895e-05
0.000129777
-1.11109e-06
1.66888e-05
0.000117909
-4.01312e-06
1.62809e-05
0.000106384
-1.1781e-05
1.67804e-05
9.89589e-05
-1.41223e-05
1.64027e-05
9.6574e-05
-5.33222e-06
1.37132e-05
9.79046e-05
4.8742e-06
1.16509e-05
0.000102032
4.39122e-06
1.35423e-05
0.000108548
-1.00492e-05
1.83547e-05
0.000116052
-3.26589e-05
2.17914e-05
0.000121114
-5.51058e-05
2.20314e-05
0.000120641
-7.23656e-05
2.2926e-05
0.000118634
-8.40004e-05
2.82881e-05
0.000123548
-8.52557e-05
3.24774e-05
0.000136038
-7.0293e-05
2.65927e-05
0.00014865
-4.27198e-05
1.0642e-05
0.000155714
-1.63016e-05
-6.43252e-06
0.000157045
-3.59768e-06
-1.53769e-05
0.000154158
-1.18582e-06
-1.65696e-05
0.000147494
-1.76165e-08
-1.45737e-05
2.70449e-06
-1.30258e-05
0.000160833
5.51687e-06
-1.06115e-05
0.000157421
4.38035e-06
-1.1842e-05
0.000158728
-6.47157e-07
-1.45318e-05
0.000160111
-8.82616e-06
-1.74642e-05
0.000155533
-1.98695e-05
-2.15895e-05
0.000145327
-3.45612e-05
-2.86375e-05
0.000136347
-5.181e-05
-3.63969e-05
0.000134482
-6.51396e-05
-3.91556e-05
0.000142238
-6.74473e-05
-3.48611e-05
0.000159045
-5.73724e-05
-2.35973e-05
0.000176842
-3.86396e-05
-6.22968e-06
0.000184964
-1.90712e-05
1.20604e-05
0.000183597
-7.66927e-06
2.22104e-05
0.000181334
-7.02308e-06
2.40738e-05
0.000182134
-1.17361e-05
2.42151e-05
0.000182891
-1.47837e-05
2.66124e-05
0.000181506
-1.35096e-05
2.86431e-05
0.000180305
-1.04459e-05
2.69004e-05
0.000180258
-7.54799e-06
2.25648e-05
0.000178535
-4.03604e-06
1.93796e-05
0.000172168
-3.83334e-07
1.80268e-05
0.000159801
-1.51447e-06
1.78747e-05
0.000142837
-8.1588e-06
1.89372e-05
0.000127362
-1.16555e-05
1.96103e-05
0.000118731
-4.10067e-06
1.77556e-05
0.000117161
6.96268e-06
1.55894e-05
0.000120692
7.6641e-06
1.6972e-05
0.000127781
-7.32184e-06
2.08838e-05
0.000137143
-3.16535e-05
2.23041e-05
0.000146295
-5.45055e-05
1.921e-05
0.000150066
-6.82151e-05
1.72607e-05
0.00014583
-7.6085e-05
2.39685e-05
0.000141712
-8.28598e-05
3.61932e-05
0.000148746
-8.24281e-05
3.96226e-05
0.000165306
-6.46022e-05
2.6621e-05
0.000179923
-3.51962e-05
6.25899e-06
0.000184857
-1.04411e-05
-9.93222e-06
0.000181537
2.83239e-07
-1.57645e-05
0.000175146
2.97936e-06
-1.47705e-05
4.2869e-06
-1.18821e-05
0.000177177
6.66129e-06
-6.64454e-06
0.00017785
3.87782e-06
-4.97758e-06
0.000184503
-2.04631e-06
-5.24679e-06
0.000193635
-9.04734e-06
-7.39302e-06
0.000195301
-1.45657e-05
-1.22258e-05
0.000184238
-2.30401e-05
-2.16568e-05
0.000167629
-3.98346e-05
-3.56625e-05
0.000156423
-5.97428e-05
-4.77631e-05
0.000155428
-7.0885e-05
-5.0614e-05
0.000165916
-7.00146e-05
-4.33118e-05
0.000185811
-5.99404e-05
-2.65958e-05
0.000203943
-4.25658e-05
-3.57144e-06
0.000209461
-2.38326e-05
1.52124e-05
0.000206723
-1.5668e-05
2.17067e-05
0.000207483
-2.01021e-05
2.08908e-05
0.000212368
-2.51618e-05
2.18978e-05
0.000213292
-2.08061e-05
2.57294e-05
0.000209703
-1.17468e-05
2.6868e-05
0.000208473
-6.23809e-06
2.32053e-05
0.000211515
-4.55113e-06
1.87909e-05
0.000213772
-3.58326e-06
1.70738e-05
0.000208252
-4.49982e-06
1.76994e-05
0.000191277
-6.98652e-06
1.96035e-05
0.000168256
-6.3368e-06
2.12486e-05
0.000150133
1.64526e-06
2.08425e-05
0.000142593
1.10289e-05
1.95373e-05
0.000144339
9.86132e-06
2.04789e-05
0.000151941
-6.96044e-06
2.26082e-05
0.000162695
-3.25445e-05
2.08387e-05
0.000174301
-5.40824e-05
1.29511e-05
0.000182332
-6.26347e-05
6.75085e-06
0.000181145
-6.3152e-05
1.36369e-05
0.000172009
-6.64279e-05
3.14442e-05
0.000168525
-7.64437e-05
4.46669e-05
0.000180338
-7.67251e-05
3.87329e-05
0.000197955
-5.45176e-05
1.82283e-05
0.000205121
-1.98125e-05
-2.29161e-06
0.000198466
4.23821e-06
-1.35133e-05
0.000187703
1.13418e-05
-1.47349e-05
9.12482e-06
-1.05906e-05
0.0001895
1.17436e-05
-4.3739e-06
0.000188815
7.3532e-06
1.60872e-06
0.000195159
-1.16012e-06
7.33007e-06
0.000210649
-1.12774e-05
9.81649e-06
0.00022535
-1.47602e-05
5.65132e-06
0.00022437
-1.32117e-05
-6.89831e-06
0.000207235
-2.11366e-05
-2.57462e-05
0.000188047
-4.30312e-05
-4.65108e-05
0.000178476
-6.20284e-05
-6.07213e-05
0.00018061
-6.9094e-05
-6.16725e-05
0.000194017
-6.86323e-05
-4.93415e-05
0.000215915
-6.28296e-05
-2.58273e-05
0.000234323
-4.82154e-05
2.53683e-07
0.000238101
-3.07973e-05
1.62328e-05
0.000233855
-2.67306e-05
1.88742e-05
0.000235204
-3.3543e-05
1.70553e-05
0.000240911
-3.20496e-05
1.8647e-05
0.000241089
-1.717e-05
2.1747e-05
0.000235949
-2.34885e-06
2.10268e-05
0.000234266
1.65155e-06
1.69955e-05
0.000240889
-5.58041e-06
1.45479e-05
0.000248862
-1.62589e-05
1.57749e-05
0.000243632
-1.71092e-05
1.85692e-05
0.000221202
-4.66383e-06
2.05903e-05
0.000194721
1.08731e-05
2.14345e-05
0.000178613
1.90917e-05
2.25529e-05
0.000175734
1.26434e-05
2.49284e-05
0.000181649
-8.75104e-06
2.59819e-05
0.000192355
-3.72409e-05
2.0482e-05
0.000205868
-5.88132e-05
6.44419e-06
0.000217412
-6.24037e-05
-6.43009e-06
0.000219892
-5.22682e-05
-3.94012e-06
0.000210038
-4.63428e-05
1.91875e-05
0.000197752
-5.69587e-05
4.22284e-05
0.000198793
-7.34054e-05
4.52611e-05
0.000212236
-6.67601e-05
2.76895e-05
0.000220492
-3.11326e-05
5.4634e-06
0.000214936
5.6821e-06
-1.04045e-05
0.000202854
2.03481e-05
-1.51956e-05
1.74913e-05
-1.12577e-05
0.000215283
2.03736e-05
-9.32542e-06
0.000209015
1.59903e-05
-1.55244e-06
0.000208543
4.79368e-06
7.84838e-06
0.000220593
-1.18567e-05
1.88444e-05
0.000242578
-1.83606e-05
2.18096e-05
0.00025693
-1.02073e-05
1.16274e-05
0.000250152
-4.47577e-06
-1.01591e-05
0.000228923
-1.96625e-05
-3.59231e-05
0.000210433
-4.25064e-05
-5.9789e-05
0.000205081
-5.73505e-05
-7.33465e-05
0.000211781
-6.47659e-05
-7.05965e-05
0.000228181
-7.05187e-05
-5.14778e-05
0.000251302
-7.00391e-05
-2.23394e-05
0.000268281
-5.60083e-05
3.56243e-06
0.000268927
-3.90767e-05
1.47063e-05
0.000262102
-3.50689e-05
1.37716e-05
0.000261979
-3.58754e-05
1.19474e-05
0.000267893
-2.62172e-05
1.49773e-05
0.000270117
-7.68278e-06
1.85173e-05
0.000265805
6.79589e-06
1.76354e-05
0.000263788
1.90165e-06
1.46768e-05
0.000272653
-2.26813e-05
1.44214e-05
0.000282775
-3.70962e-05
1.69251e-05
0.000275266
-1.86085e-05
1.83203e-05
0.000251198
1.31349e-05
1.91618e-05
0.000229141
2.71491e-05
2.33876e-05
0.000218995
1.84203e-05
2.97996e-05
0.000217978
-4.65117e-06
3.0947e-05
0.000222861
-3.4784e-05
2.13413e-05
0.000235398
-6.26455e-05
2.97329e-06
0.000251517
-7.08271e-05
-1.49581e-05
0.000259574
-5.27968e-05
-1.959e-05
0.000252066
-3.30365e-05
1.52309e-06
0.000235162
-3.38269e-05
3.33287e-05
0.000224668
-5.60296e-05
4.8072e-05
0.000228226
-6.53013e-05
3.67566e-05
0.000235219
-3.85205e-05
1.43671e-05
0.000235296
2.39823e-06
-5.23034e-06
0.00022937
2.33822e-05
-1.56376e-05
2.45502e-05
-1.56406e-05
0.000254316
2.7729e-05
-1.69222e-05
0.00024448
2.73488e-05
-1.27112e-05
0.000237367
1.4668e-05
-7.03488e-06
0.000241357
-7.43868e-06
6.02466e-06
0.000260341
-2.10614e-05
1.94122e-05
0.000283688
-1.23998e-05
1.88006e-05
0.000291268
3.27167e-06
3.22208e-06
0.0002769
1.46012e-06
-2.28517e-05
0.000253071
-1.77031e-05
-4.99254e-05
0.000238518
-3.67939e-05
-7.39484e-05
0.00023995
-5.18085e-05
-8.47265e-05
0.000252069
-6.69876e-05
-7.5157e-05
0.000270885
-8.02988e-05
-4.80389e-05
0.000291028
-7.80318e-05
-1.6089e-05
0.000300619
-5.81096e-05
5.1755e-06
0.000296144
-3.90046e-05
9.21167e-06
0.000289121
-3.16573e-05
6.54404e-06
0.000290609
-2.73979e-05
8.89557e-06
0.000298828
-1.66868e-05
1.6188e-05
0.000303909
-1.59425e-08
2.04817e-05
0.000301331
6.48298e-06
1.88426e-05
0.000299199
-1.43224e-05
1.53666e-05
0.000306021
-4.24362e-05
1.41293e-05
0.000313064
-3.78753e-05
1.42682e-05
0.000306542
-3.84357e-06
1.59364e-05
0.000289699
2.06015e-05
2.34801e-05
0.000273719
2.05838e-05
3.43194e-05
0.000262657
7.07295e-06
3.54523e-05
0.000256891
-1.61083e-05
2.13657e-05
0.000261859
-4.92546e-05
-4.60018e-07
0.000279459
-7.41792e-05
-1.97076e-05
0.000295788
-6.42023e-05
-2.8453e-05
0.000295079
-3.31892e-05
-1.41945e-05
0.000278308
-1.86661e-05
2.10858e-05
0.000259846
-3.29002e-05
4.73401e-05
0.0002519
-4.95874e-05
4.60348e-05
0.000253625
-3.53772e-05
2.53377e-05
0.000257762
-1.83125e-06
2.22349e-06
0.000260786
2.02029e-05
-1.46774e-05
2.57415e-05
-2.01043e-05
0.000301547
2.77071e-05
-2.30828e-05
0.000294823
3.26337e-05
-2.31626e-05
0.000285353
2.369e-05
-2.358e-05
0.000280738
1.01353e-06
-1.58284e-05
0.000289868
-1.71536e-05
-1.50099e-07
0.000313004
-1.53039e-05
8.91025e-06
0.000332056
2.20508e-06
3.38959e-06
0.000328624
1.29481e-05
-1.48715e-05
0.000305146
4.79319e-06
-3.89848e-05
0.000282423
-1.1827e-05
-6.66236e-05
0.000276439
-3.13767e-05
-8.85148e-05
0.000285747
-5.4639e-05
-9.18392e-05
0.000301773
-7.90048e-05
-7.27163e-05
0.000319031
-8.96098e-05
-3.95985e-05
0.000330587
-7.41723e-05
-1.02809e-05
0.000330769
-4.63347e-05
2.24259e-06
0.000324062
-2.75271e-05
1.32248e-06
0.000320392
-2.08283e-05
2.39458e-06
0.000325188
-1.72865e-05
1.1977e-05
0.000335786
-9.03604e-06
2.3662e-05
0.000343416
-6.60582e-08
2.7372e-05
0.000341981
-7.32879e-06
2.12587e-05
0.000337096
-3.00172e-05
1.29131e-05
0.000337377
-4.07038e-05
1.07744e-05
0.000338027
-2.44327e-05
1.64402e-05
0.000330017
-7.12998e-07
2.85565e-05
0.000316116
1.22798e-05
3.89871e-05
0.000304488
1.37156e-05
3.53349e-05
0.00029717
2.70359e-06
1.61683e-05
0.000296568
-2.63416e-05
-6.63064e-06
0.000309484
-6.2268e-05
-2.42504e-05
0.00032952
-7.07743e-05
-3.14554e-05
0.000337025
-4.35101e-05
-2.18341e-05
0.000324419
-1.72065e-05
9.90413e-06
0.000302952
-1.63247e-05
4.32909e-05
0.000286522
-2.70642e-05
5.31844e-05
0.00028109
-2.0486e-05
3.81463e-05
0.000284635
2.16938e-06
1.25674e-05
0.000293261
1.77938e-05
-1.00678e-05
2.21593e-05
-2.16585e-05
0.000342257
2.33704e-05
-2.43364e-05
0.000345669
2.59923e-05
-3.02743e-05
0.000341676
2.20181e-05
-3.34845e-05
0.000332374
7.12409e-06
-2.80259e-05
0.000329082
-7.94819e-06
-1.54126e-05
0.000343414
-1.13607e-05
-5.34753e-06
0.000367792
-3.69017e-07
-5.16223e-06
0.000378229
1.44457e-05
-1.35862e-05
0.000362977
1.92026e-05
-3.0227e-05
0.000337142
1.24135e-05
-5.59852e-05
0.000323359
-4.53107e-06
-8.47099e-05
0.000327862
-3.21918e-05
-0.000100503
0.000342191
-6.65476e-05
-9.30035e-05
0.00035743
-9.00364e-05
-6.50132e-05
0.000367862
-8.36089e-05
-3.07813e-05
0.000369475
-5.37353e-05
-8.88696e-06
0.00036412
-2.57084e-05
-4.20046e-06
0.000358761
-1.2256e-05
-3.84642e-06
0.000359302
-1.02515e-05
6.60972e-06
0.000368099
-1.05175e-05
2.4033e-05
0.000380841
-8.39476e-06
3.44143e-05
0.000386274
-9.43179e-06
2.92008e-05
0.000378062
-1.86965e-05
1.69327e-05
0.000363313
-2.82258e-05
1.19994e-05
0.000351215
-2.59241e-05
1.77839e-05
0.000343683
-1.40357e-05
2.68843e-05
0.00034095
-1.87908e-06
2.9998e-05
0.000342135
8.2186e-06
2.10554e-05
0.000342056
1.13888e-05
2.35075e-06
0.000340564
-6.78833e-06
-1.53668e-05
0.000347751
-4.45612e-05
-2.78572e-05
0.000366302
-6.98156e-05
-3.10645e-05
0.000378951
-5.58197e-05
-2.14364e-05
0.000370422
-2.57308e-05
5.62631e-06
0.000348643
-1.20307e-05
3.81848e-05
0.000329428
-1.1143e-05
5.40207e-05
0.000320761
-3.18763e-06
4.54426e-05
0.000321237
1.43691e-05
2.35178e-05
0.000326775
2.51003e-05
4.84389e-07
2.42621e-05
-1.5758e-05
0.000363252
1.82458e-05
-1.29306e-05
0.000374382
1.12567e-05
-2.44946e-05
0.000381383
7.15956e-06
-2.77227e-05
0.000376907
1.8616e-06
-2.18015e-05
0.000367379
-2.13846e-06
-1.21945e-05
0.000370167
-1.64259e-06
-6.31553e-06
0.000391737
4.47226e-06
-6.98167e-06
0.000414104
1.50334e-05
-1.24114e-05
0.000414442
2.79837e-05
-2.43821e-05
0.000395247
3.25304e-05
-4.58383e-05
0.00037968
2.37117e-05
-7.55389e-05
0.000380663
-2.3731e-06
-0.000100146
0.000392562
-4.29849e-05
-0.000105346
0.000405606
-7.90236e-05
-8.76919e-05
0.000414043
-8.46294e-05
-5.56667e-05
0.00041497
-5.85466e-05
-2.6361e-05
0.000409962
-2.56436e-05
-1.19586e-05
0.00040461
-5.7912e-06
-7.6343e-06
0.000403504
-8.69547e-07
5.68416e-07
0.000408022
-3.50212e-06
1.73e-05
0.000416755
-8.20673e-06
3.23803e-05
0.000422889
-1.30815e-05
3.41174e-05
0.000417292
-1.54036e-05
2.32844e-05
0.000399196
-1.34647e-05
1.20323e-05
0.000379991
-1.04818e-05
8.71885e-06
0.000372066
-1.15234e-05
1.12559e-05
0.000377667
-1.47329e-05
1.27108e-05
0.000387171
-8.61065e-06
7.44491e-06
0.000389311
5.80379e-06
-3.34241e-06
0.000385155
5.36185e-06
-1.3504e-05
0.000386741
-2.44372e-05
-1.97512e-05
0.000401197
-6.03443e-05
-2.15621e-05
0.000417131
-6.38973e-05
-1.43943e-05
0.000416175
-4.04959e-05
7.96234e-06
0.000398904
-1.98006e-05
3.71272e-05
0.000379493
-6.20521e-06
5.26264e-05
0.000367021
1.14813e-05
4.57046e-05
0.000360707
3.13358e-05
2.9707e-05
0.000356904
3.9283e-05
1.53167e-05
3.06993e-05
1.67967e-06
0.00038518
1.80616e-05
4.87376e-06
0.000397899
9.79193e-07
-7.25716e-06
0.000411368
-7.41514e-06
-1.48702e-05
0.000415074
-8.81521e-06
-1.29337e-05
0.000407646
-2.72304e-06
-3.27893e-06
0.000402279
9.17301e-06
4.7868e-06
0.000413211
1.95318e-05
3.85374e-06
0.000437978
2.54796e-05
-5.54504e-06
0.000456699
3.30071e-05
-1.79232e-05
0.000457218
4.31429e-05
-3.30741e-05
0.000450311
4.59597e-05
-5.77476e-05
0.000451805
2.95878e-05
-8.76879e-05
0.000461284
-1.02195e-05
-0.000106659
0.000469784
-5.44263e-05
-0.000103164
0.000473024
-7.19727e-05
-7.94483e-05
0.000469812
-5.37005e-05
-4.84514e-05
0.00046215
-2.29113e-05
-2.44136e-05
0.000455505
-2.37498e-06
-1.15868e-05
0.000453567
4.4654e-06
-2.52107e-06
0.000454739
4.39387e-06
1.15012e-05
0.00045617
-1.10093e-06
2.75322e-05
0.000455183
-9.11785e-06
3.36494e-05
0.000448647
-1.09386e-05
2.52925e-05
0.000436587
-3.0203e-06
1.02775e-05
0.000426078
3.13996e-06
-9.61126e-07
0.000425058
-5.04055e-06
-2.63627e-06
0.000432734
-2.34466e-05
3.51746e-06
0.000438743
-2.76826e-05
8.11116e-06
0.000435114
-8.03426e-06
4.51773e-06
0.000426921
9.14026e-06
-1.70499e-06
0.000425034
-5.29137e-06
-5.47877e-06
0.000435667
-4.13829e-05
-7.59718e-06
0.000453422
-6.19978e-05
-3.68295e-06
0.000463133
-5.23655e-05
1.20702e-05
0.000455818
-2.99082e-05
3.57701e-05
0.000436997
-5.95169e-06
5.07242e-05
0.000416736
2.12514e-05
4.64667e-05
0.000399728
4.64898e-05
3.23805e-05
0.000386911
5.53201e-05
2.12217e-05
4.14026e-05
1.37739e-05
0.000424981
2.96815e-05
2.47591e-05
0.00043676
9.97838e-06
1.63191e-05
0.000448195
-2.32243e-06
7.33329e-06
0.000452381
-5.21162e-06
2.98299e-06
0.000447856
3.17661e-06
4.79643e-06
0.000441729
2.11656e-05
1.10474e-05
0.000444913
3.87249e-05
1.47225e-05
0.000460977
4.54937e-05
1.08854e-05
0.000482747
4.30801e-05
1.37202e-06
0.000501788
4.19311e-05
-1.22423e-05
0.000517658
4.4752e-05
-3.06357e-05
0.000533515
4.05431e-05
-5.8341e-05
0.000546474
1.5394e-05
-8.75426e-05
0.000551066
-2.30718e-05
-0.000102449
0.000546478
-4.67836e-05
-9.25388e-05
0.000536128
-3.9809e-05
-6.48987e-05
0.000523806
-1.76204e-05
-3.65141e-05
0.000512899
-5.16918e-07
-1.75478e-05
0.000505305
7.97613e-06
-5.75141e-06
0.000501045
1.09925e-05
6.98118e-06
0.000497042
7.90685e-06
2.19041e-05
0.000489838
1.53778e-06
2.99964e-05
0.000480541
8.24048e-07
2.23701e-05
0.000476041
8.09974e-06
3.93142e-06
0.000482121
1.22556e-05
-1.12492e-05
0.000495677
-2.42667e-06
-1.02248e-05
0.000503806
-3.01503e-05
3.01468e-06
0.000497646
-4.24266e-05
1.44358e-05
0.000482492
-2.34841e-05
1.84905e-05
0.00047135
3.24476e-06
2.21867e-05
0.000471636
7.00834e-06
2.34063e-05
0.000483032
-1.74627e-05
1.44299e-05
0.000500994
-4.59437e-05
4.98597e-06
0.000515272
-5.19393e-05
1.20947e-05
0.000514496
-3.34027e-05
3.32886e-05
0.000496821
-3.2129e-06
4.69421e-05
0.000469508
2.91009e-05
4.05055e-05
0.000442767
5.52504e-05
2.71114e-05
0.000424942
6.41046e-05
2.30152e-05
5.20384e-05
2.61463e-05
0.000468718
4.87405e-05
4.05689e-05
0.00048196
3.25224e-05
3.68015e-05
0.0004971
2.13286e-05
2.26995e-05
0.000507711
1.54388e-05
9.99517e-06
0.000508774
1.69939e-05
8.42767e-06
0.000503346
2.82407e-05
1.82926e-05
0.000500649
4.59743e-05
2.96361e-05
0.000506586
6.01679e-05
3.00907e-05
0.000519199
6.09385e-05
1.8303e-05
0.000536012
4.81897e-05
5.53704e-06
0.000559167
3.14415e-05
-2.51986e-06
0.00058879
1.88332e-05
-1.71273e-05
0.000615329
7.90189e-06
-4.80177e-05
0.000624987
-6.95773e-06
-7.97456e-05
0.000618588
-2.03191e-05
-9.13852e-05
0.000607614
-2.09835e-05
-8.01531e-05
0.000598758
-1.12363e-05
-5.69595e-05
0.000589828
-7.67713e-07
-3.2366e-05
0.000577989
7.92143e-06
-1.29997e-05
0.000564003
1.54644e-05
-8.03861e-07
0.000549939
1.71443e-05
9.07817e-06
0.00053722
1.29246e-05
1.96072e-05
0.000529259
8.32888e-06
2.5356e-05
0.000532296
6.19682e-06
1.93791e-05
0.000550539
1.66823e-07
5.67966e-06
0.000575976
-1.8984e-05
-2.19445e-06
0.000588137
-4.57273e-05
6.75225e-06
0.000575527
-5.77072e-05
2.65457e-05
0.000550462
-3.84445e-05
4.51374e-05
0.000533527
-1.47169e-06
5.75533e-05
0.000531903
2.38955e-05
5.67764e-05
0.000540496
1.82976e-05
3.59343e-05
0.000554287
-1.19534e-05
9.85278e-06
0.000566876
-3.70034e-05
2.0806e-06
0.000566218
-3.16027e-05
1.67305e-05
0.000545989
-1.31628e-06
3.40682e-05
0.00051306
3.5251e-05
3.46592e-05
0.000482376
6.28061e-05
2.42595e-05
0.00046498
7.30647e-05
2.20503e-05
6.58486e-05
3.19676e-05
0.000527426
7.80957e-05
1.74722e-05
0.000540318
5.75254e-05
1.64354e-05
0.000554859
4.08616e-05
1.60649e-05
0.000565128
3.05226e-05
1.63845e-05
0.000567222
2.65952e-05
1.87519e-05
0.000562517
3.0453e-05
2.42542e-05
0.000558087
4.07908e-05
3.23213e-05
0.000561169
5.03585e-05
3.87676e-05
0.000572201
5.02154e-05
3.7417e-05
0.000586808
3.70146e-05
2.68013e-05
0.000603705
1.65295e-05
1.13927e-05
0.000625566
-7.46165e-07
-7.16158e-06
0.000653783
-1.10815e-05
-3.07952e-05
0.000679883
-1.69191e-05
-5.53838e-05
0.000691756
-1.63924e-05
-7.27876e-05
0.000687892
-8.06309e-06
-7.82081e-05
0.000677377
3.31575e-06
-7.30015e-05
0.000667833
1.16971e-05
-5.82184e-05
0.000659451
1.57223e-05
-3.77649e-05
0.00064879
1.6604e-05
-2.07635e-05
0.000633472
1.55408e-05
-1.14762e-05
0.000616003
1.41414e-05
-2.95334e-06
0.000604855
1.2252e-05
9.4912e-06
0.000606572
4.04384e-06
2.22312e-05
0.000620648
-1.47906e-05
2.61201e-05
0.000638123
-4.05954e-05
2.11137e-05
0.000646241
-6.16264e-05
2.0054e-05
0.000637171
-6.38478e-05
3.34199e-05
0.00061732
-3.98089e-05
5.49905e-05
0.000599017
2.70073e-06
6.66332e-05
0.000588577
3.7881e-05
5.56296e-05
0.000586718
4.04179e-05
2.48124e-05
0.000593781
8.84913e-06
-5.78188e-06
0.000605808
-2.97809e-05
-1.45866e-05
0.000610485
-4.03401e-05
1.13988e-06
0.000595662
-1.39136e-05
2.31605e-05
0.000565834
3.00955e-05
3.3441e-05
0.000537479