/*--------------------------------*- C++ -*----------------------------------*\
| =========                 |                                                 |
| \\      /  F ield         | OpenFOAM: The Open Source CFD Toolbox           |
|  \\    /   O peration     | Version:  2306                                  |
|   \\  /    A nd           | Website:  www.openfoam.com                      |
|    \\/     M anipulation  |                                                 |
\*---------------------------------------------------------------------------*/
FoamFile
{
    version     2.0;
    format      ascii;
    arch        "LSB;label=32;scalar=64";
    class       volScalarField;
    location    "10";
    object      pMean;
}
// * * * * * * * * * * * * * * * * * * * * * * * * * * * * * * * * * * * * * //

dimensions      [0 2 -2 0 0 0 0];

internalField   nonuniform List<scalar> 
60000
(
-6.1448e-06
-1.33369e-05
-1.09019e-05
-2.85889e-06
6.41651e-06
1.21744e-05
9.82737e-06
-4.18804e-07
-1.25365e-05
-1.79198e-05
-1.29479e-05
-9.2254e-07
1.27046e-05
2.39404e-05
3.08338e-05
3.27588e-05
2.98531e-05
2.27522e-05
1.17201e-05
-2.88198e-06
-1.75874e-05
-2.76976e-05
-3.32588e-05
-3.76267e-05
-4.15657e-05
-4.18119e-05
-3.32657e-05
-1.24923e-05
1.82622e-05
5.18742e-05
7.8933e-05
9.32607e-05
9.65455e-05
9.41761e-05
8.97779e-05
8.46076e-05
7.66374e-05
6.09865e-05
3.7234e-05
1.20663e-05
-5.92675e-06
-1.34777e-05
-1.12551e-05
-3.33209e-06
5.86837e-06
1.15323e-05
9.06882e-06
-1.31365e-06
-1.35514e-05
-1.90026e-05
-1.39894e-05
-1.86746e-06
1.18517e-05
2.31974e-05
3.0244e-05
3.2363e-05
2.96312e-05
2.26693e-05
1.17498e-05
-2.77374e-06
-1.74495e-05
-2.75551e-05
-3.31847e-05
-3.77743e-05
-4.20854e-05
-4.2813e-05
-3.47212e-05
-1.42291e-05
1.65055e-05
5.03707e-05
7.78697e-05
9.2698e-05
9.64222e-05
9.4401e-05
9.02618e-05
8.53498e-05
7.76339e-05
6.21146e-05
3.82419e-05
1.27224e-05
-6.90368e-06
-1.47632e-05
-1.2644e-05
-4.72385e-06
4.5337e-06
1.02548e-05
7.77819e-06
-2.76748e-06
-1.52776e-05
-2.08697e-05
-1.57061e-05
-3.28285e-06
1.07029e-05
2.22703e-05
2.95461e-05
3.18943e-05
2.93379e-05
2.24893e-05
1.16531e-05
-2.83251e-06
-1.75202e-05
-2.76357e-05
-3.33354e-05
-3.81583e-05
-4.28887e-05
-4.4212e-05
-3.67715e-05
-1.66623e-05
1.40631e-05
4.82696e-05
7.62818e-05
9.16345e-05
9.581e-05
9.40948e-05
9.01017e-05
8.5297e-05
7.7748e-05
6.22962e-05
3.82035e-05
1.22232e-05
-9.1508e-06
-1.72715e-05
-1.51205e-05
-7.07987e-06
2.3271e-06
8.16098e-06
5.68756e-06
-5.09959e-06
-1.80187e-05
-2.38256e-05
-1.83693e-05
-5.31853e-06
9.25119e-06
2.12429e-05
2.88548e-05
3.14764e-05
2.90965e-05
2.23138e-05
1.14998e-05
-2.98016e-06
-1.76954e-05
-2.78099e-05
-3.35566e-05
-3.86369e-05
-4.38261e-05
-4.58301e-05
-3.91815e-05
-1.96633e-05
1.10054e-05
4.55812e-05
7.41097e-05
8.99511e-05
9.45388e-05
9.31172e-05
8.92124e-05
8.43748e-05
7.68684e-05
6.14209e-05
3.70269e-05
1.04865e-05
-1.21434e-05
-2.0615e-05
-1.84554e-05
-1.02475e-05
-6.65008e-07
5.22139e-06
2.77068e-06
-8.21704e-06
-2.15528e-05
-2.76842e-05
-2.19271e-05
-7.99145e-06
7.54483e-06
2.02487e-05
2.83452e-05
3.12901e-05
2.90525e-05
2.22675e-05
1.13831e-05
-3.16146e-06
-1.79161e-05
-2.80295e-05
-3.3886e-05
-3.93868e-05
-4.5236e-05
-4.80804e-05
-4.24516e-05
-2.3765e-05
6.7438e-06
4.1797e-05
7.10081e-05
8.74853e-05
9.26538e-05
9.16883e-05
8.80327e-05
8.3268e-05
7.57496e-05
6.01936e-05
3.53814e-05
8.14634e-06
-1.56164e-05
-2.47924e-05
-2.29239e-05
-1.46875e-05
-4.90154e-06
1.06394e-06
-1.43549e-06
-1.2326e-05
-2.56497e-05
-3.19407e-05
-2.59586e-05
-1.10837e-05
5.73566e-06
1.95056e-05
2.82964e-05
3.16549e-05
2.95612e-05
2.26468e-05
1.14367e-05
-3.46092e-06
-1.85007e-05
-2.87862e-05
-3.51371e-05
-4.1794e-05
-4.90074e-05
-5.30025e-05
-4.85638e-05
-3.08943e-05
-5.21273e-07
3.54596e-05
6.60415e-05
8.36773e-05
8.99546e-05
9.01404e-05
8.72208e-05
8.29931e-05
7.58065e-05
5.98805e-05
3.4093e-05
5.72269e-06
-1.8908e-05
-2.94804e-05
-2.84226e-05
-2.07702e-05
-1.11869e-05
-5.16158e-06
-7.65627e-06
-1.85451e-05
-3.14815e-05
-3.67337e-05
-2.99643e-05
-1.40535e-05
4.1862e-06
1.92637e-05
2.8959e-05
3.2832e-05
3.0914e-05
2.37825e-05
1.19491e-05
-3.82366e-06
-1.96531e-05
-3.03458e-05
-3.72592e-05
-4.56217e-05
-5.53876e-05
-6.1469e-05
-5.85522e-05
-4.18532e-05
-1.13634e-05
2.61954e-05
5.91462e-05
7.8571e-05
8.62089e-05
8.78979e-05
8.66366e-05
8.3965e-05
7.81797e-05
6.24389e-05
3.51745e-05
4.50102e-06
-2.10921e-05
-3.40637e-05
-3.43094e-05
-2.77408e-05
-1.90278e-05
-1.32303e-05
-1.55831e-05
-2.66784e-05
-4.00375e-05
-4.46661e-05
-3.5445e-05
-1.70661e-05
3.31309e-06
1.99834e-05
3.05555e-05
3.48281e-05
3.3073e-05
2.57794e-05
1.32011e-05
-3.79328e-06
-2.0722e-05
-3.14299e-05
-3.76847e-05
-4.65693e-05
-5.86343e-05
-6.73996e-05
-6.61998e-05
-5.03929e-05
-1.9874e-05
1.85881e-05
5.28272e-05
7.35283e-05
8.17952e-05
8.42415e-05
8.42866e-05
8.37329e-05
8.0996e-05
6.74574e-05
3.95788e-05
5.74267e-06
-2.08117e-05
-3.64549e-05
-3.87772e-05
-3.39917e-05
-2.70367e-05
-2.22113e-05
-2.44478e-05
-3.54863e-05
-4.95885e-05
-5.53603e-05
-4.54536e-05
-2.38673e-05
4.30332e-07
2.0097e-05
3.23161e-05
3.70844e-05
3.53504e-05
2.81054e-05
1.53559e-05
-2.2172e-06
-1.95305e-05
-2.90551e-05
-3.27886e-05
-4.00579e-05
-5.3139e-05
-6.44013e-05
-6.50079e-05
-5.00633e-05
-1.96794e-05
1.85168e-05
5.13942e-05
6.99063e-05
7.61528e-05
7.73919e-05
7.73803e-05
7.83987e-05
7.94921e-05
7.02114e-05
4.42092e-05
9.1671e-06
-1.72739e-05
-3.56418e-05
-3.99965e-05
-3.72698e-05
-3.283e-05
-2.99656e-05
-3.26409e-05
-4.35795e-05
-5.88413e-05
-6.69319e-05
-5.87005e-05
-3.58739e-05
-7.89156e-06
1.55092e-05
3.02266e-05
3.64021e-05
3.53068e-05
2.85063e-05
1.65171e-05
2.20464e-07
-1.52008e-05
-2.22884e-05
-2.21401e-05
-2.58716e-05
-3.82144e-05
-5.11418e-05
-5.35232e-05
-3.97129e-05
-1.02964e-05
2.61274e-05
5.56027e-05
6.97108e-05
7.12736e-05
6.89044e-05
6.72187e-05
6.88875e-05
7.36905e-05
7.07141e-05
4.94235e-05
1.50281e-05
-7.1236e-06
-2.77322e-05
-3.45625e-05
-3.46266e-05
-3.36789e-05
-3.37597e-05
-3.71854e-05
-4.7937e-05
-6.43838e-05
-7.60732e-05
-7.19898e-05
-5.10742e-05
-2.16695e-05
4.60321e-06
2.1761e-05
2.95525e-05
2.99095e-05
2.45125e-05
1.37357e-05
-7.55935e-07
-1.29652e-05
-1.54846e-05
-9.74359e-06
-8.49252e-06
-1.82882e-05
-3.11416e-05
-3.50631e-05
-2.33123e-05
3.08027e-06
3.57429e-05
6.09936e-05
7.09726e-05
6.79247e-05
6.14729e-05
5.71364e-05
5.86918e-05
6.67208e-05
7.12657e-05
5.70351e-05
2.59855e-05
1.16826e-05
-1.12923e-05
-2.04989e-05
-2.37665e-05
-2.70055e-05
-3.13895e-05
-3.67389e-05
-4.66442e-05
-6.35283e-05
-7.87893e-05
-8.02664e-05
-6.40117e-05
-3.61532e-05
-9.41757e-06
8.45084e-06
1.6755e-05
1.79421e-05
1.43963e-05
6.11445e-06
-5.92179e-06
-1.49544e-05
-1.36302e-05
-2.28999e-06
6.3293e-06
2.17558e-06
-8.26787e-06
-1.26777e-05
-3.96079e-06
1.66574e-05
4.30816e-05
6.41737e-05
7.29245e-05
6.92192e-05
6.05992e-05
5.36282e-05
5.39807e-05
6.37147e-05
7.40962e-05
6.82009e-05
4.31905e-05
3.11372e-05
7.32061e-06
-3.3788e-06
-7.98003e-06
-1.44865e-05
-2.30235e-05
-3.13658e-05
-4.0439e-05
-5.68144e-05
-7.47228e-05
-8.20886e-05
-7.19752e-05
-4.77743e-05
-2.17919e-05
-4.56969e-06
2.56915e-06
3.40073e-06
1.02637e-06
-4.29988e-06
-1.26125e-05
-1.8639e-05
-1.51824e-05
-1.21966e-06
1.40212e-05
1.87141e-05
1.44769e-05
1.16186e-05
1.70949e-05
3.12884e-05
4.99398e-05
6.65202e-05
7.61033e-05
7.56392e-05
6.80248e-05
6.00493e-05
5.78087e-05
6.55365e-05
7.69408e-05
7.79145e-05
5.99505e-05
4.53296e-05
2.32062e-05
1.17047e-05
7.13903e-06
1.97016e-07
-1.04174e-05
-2.05952e-05
-2.97509e-05
-4.49239e-05
-6.4323e-05
-7.67947e-05
-7.3285e-05
-5.44079e-05
-3.05343e-05
-1.34467e-05
-6.71466e-06
-6.57972e-06
-8.73411e-06
-1.1775e-05
-1.64399e-05
-2.06439e-05
-1.74608e-05
-4.49774e-06
1.26827e-05
2.44617e-05
2.83301e-05
2.91405e-05
3.28611e-05
4.20152e-05
5.5135e-05
6.90012e-05
7.9669e-05
8.39758e-05
8.03925e-05
7.30053e-05
6.79625e-05
7.0452e-05
7.80162e-05
8.08369e-05
6.8808e-05
5.45725e-05
3.79084e-05
2.74981e-05
2.27364e-05
1.6276e-05
5.61519e-06
-5.57474e-06
-1.55417e-05
-2.94732e-05
-4.91539e-05
-6.50504e-05
-6.76363e-05
-5.50317e-05
-3.41353e-05
-1.62271e-05
-8.15983e-06
-8.16325e-06
-1.07845e-05
-1.33451e-05
-1.56484e-05
-1.75764e-05
-1.54063e-05
-5.70105e-06
9.55557e-06
2.47415e-05
3.46841e-05
3.88043e-05
4.16174e-05
4.67355e-05
5.51295e-05
6.56986e-05
7.67548e-05
8.55629e-05
8.71547e-05
8.30476e-05
7.74029e-05
7.47412e-05
7.5769e-05
7.64337e-05
6.99644e-05
6.11722e-05
5.19436e-05
4.37034e-05
3.79754e-05
3.14109e-05
2.13405e-05
9.50678e-06
-1.74353e-06
-1.47945e-05
-3.30375e-05
-5.02013e-05
-5.68996e-05
-5.0233e-05
-3.39695e-05
-1.70154e-05
-7.66448e-06
-6.73312e-06
-9.74871e-06
-1.26898e-05
-1.37994e-05
-1.30976e-05
-9.70239e-06
-1.57452e-06
1.05289e-05
2.48896e-05
3.76395e-05
4.5357e-05
4.76201e-05
4.80388e-05
5.12744e-05
5.77956e-05
6.6737e-05
7.69538e-05
8.30371e-05
8.33106e-05
7.98158e-05
7.54216e-05
7.23669e-05
7.04597e-05
6.76481e-05
6.42304e-05
6.0152e-05
5.3984e-05
4.77032e-05
4.05299e-05
3.11975e-05
2.0096e-05
8.48001e-06
-4.74359e-06
-2.04827e-05
-3.62459e-05
-4.45827e-05
-4.168e-05
-3.02085e-05
-1.63249e-05
-7.5767e-06
-6.18259e-06
-8.90421e-06
-1.13135e-05
-1.10606e-05
-7.61189e-06
-2.30831e-06
4.76351e-06
1.37232e-05
2.49407e-05
3.76826e-05
4.78792e-05
5.11436e-05
4.91475e-05
4.8867e-05
5.26798e-05
6.0058e-05
6.91894e-05
7.63906e-05
7.89279e-05
7.68693e-05
7.24636e-05
6.83774e-05
6.59269e-05
6.54814e-05
6.40128e-05
6.35739e-05
5.95644e-05
5.40106e-05
4.73028e-05
3.75523e-05
2.58832e-05
1.39922e-05
1.1553e-06
-1.27833e-05
-2.50376e-05
-3.12693e-05
-2.95511e-05
-2.16081e-05
-1.20215e-05
-5.12994e-06
-3.25059e-06
-5.01726e-06
-7.0285e-06
-6.28753e-06
-2.9423e-06
2.00837e-06
8.02651e-06
1.491e-05
2.31659e-05
3.44348e-05
4.5569e-05
5.01803e-05
4.77233e-05
4.52964e-05
4.80471e-05
5.47837e-05
6.29561e-05
7.04998e-05
7.54345e-05
7.59865e-05
7.16804e-05
6.58804e-05
6.22535e-05
6.21408e-05
6.02126e-05
6.12558e-05
5.80068e-05
5.21994e-05
4.5261e-05
3.65111e-05
2.62152e-05
1.57849e-05
4.13049e-06
-8.71874e-06
-2.0091e-05
-2.60689e-05
-2.38461e-05
-1.73087e-05
-1.09573e-05
-6.89016e-06
-4.68691e-06
-3.83188e-06
-2.53943e-06
-1.57123e-08
3.58574e-06
7.93334e-06
1.38897e-05
2.10605e-05
2.91246e-05
3.90968e-05
4.90685e-05
5.39105e-05
5.1098e-05
4.63041e-05
4.61171e-05
5.03402e-05
5.64028e-05
6.3211e-05
6.89309e-05
7.06677e-05
6.66741e-05
6.0281e-05
5.64665e-05
5.71438e-05
4.66529e-05
4.69547e-05
4.30395e-05
3.67301e-05
3.01045e-05
2.27404e-05
1.49218e-05
7.40478e-06
-1.02302e-06
-1.07624e-05
-1.95603e-05
-2.54422e-05
-2.63489e-05
-2.29789e-05
-1.82058e-05
-1.43815e-05
-1.205e-05
-1.04242e-05
-8.89952e-06
-6.55668e-06
-3.54871e-06
-4.49707e-07
5.46698e-06
1.53794e-05
2.69774e-05
3.75793e-05
4.55399e-05
4.80198e-05
4.42394e-05
3.75267e-05
3.48702e-05
3.82912e-05
4.49562e-05
5.28286e-05
5.97714e-05
6.09688e-05
5.54667e-05
4.80154e-05
4.4017e-05
4.41853e-05
3.12454e-05
3.501e-05
3.42757e-05
2.96704e-05
2.2419e-05
1.34161e-05
4.16751e-06
-4.48514e-06
-1.30364e-05
-2.24256e-05
-3.05736e-05
-3.5576e-05
-3.5739e-05
-3.33047e-05
-2.95994e-05
-2.62703e-05
-2.3839e-05
-2.13891e-05
-1.82662e-05
-1.49727e-05
-1.20389e-05
-8.90812e-06
-3.24586e-06
7.17604e-06
2.09814e-05
3.30538e-05
4.05863e-05
4.15837e-05
3.44476e-05
2.3541e-05
1.67711e-05
1.85003e-05
2.6371e-05
3.53485e-05
4.25563e-05
4.31491e-05
3.74192e-05
3.00274e-05
2.56349e-05
2.6188e-05
2.83368e-05
3.50699e-05
3.72278e-05
3.46648e-05
2.88232e-05
2.09929e-05
1.23964e-05
4.12311e-06
-3.75683e-06
-1.33975e-05
-2.41439e-05
-3.22762e-05
-3.61236e-05
-3.62662e-05
-3.42214e-05
-3.16793e-05
-2.95281e-05
-2.69825e-05
-2.33243e-05
-1.92118e-05
-1.47729e-05
-9.92179e-06
-3.26039e-06
7.57754e-06
2.18374e-05
3.52985e-05
4.44399e-05
4.57705e-05
3.77596e-05
2.39229e-05
1.25094e-05
1.06845e-05
1.74617e-05
2.65037e-05
3.35763e-05
3.29782e-05
2.60866e-05
1.893e-05
1.6397e-05
2.01365e-05
2.39057e-05
2.87496e-05
3.04239e-05
2.9223e-05
2.56119e-05
1.98147e-05
1.2997e-05
6.30555e-06
4.67939e-08
-6.37477e-06
-1.38027e-05
-2.09936e-05
-2.65382e-05
-2.95765e-05
-3.00487e-05
-2.8069e-05
-2.42898e-05
-1.95726e-05
-1.44954e-05
-9.52122e-06
-4.17188e-06
2.03785e-06
9.07936e-06
1.74456e-05
2.73265e-05
3.70673e-05
4.38799e-05
4.59435e-05
4.1906e-05
3.18381e-05
2.14981e-05
1.82943e-05
2.27965e-05
3.01231e-05
3.54908e-05
3.61145e-05
3.11713e-05
2.26273e-05
1.80095e-05
1.90168e-05
1.59293e-05
1.60907e-05
1.50549e-05
1.37798e-05
1.18282e-05
9.23696e-06
5.90668e-06
1.56131e-06
-3.50396e-06
-8.73215e-06
-1.5383e-05
-2.21264e-05
-2.63561e-05
-2.74333e-05
-2.58412e-05
-2.16637e-05
-1.58867e-05
-9.31539e-06
-3.02576e-06
1.8433e-06
5.53295e-06
8.99652e-06
1.30493e-05
1.86107e-05
2.62127e-05
3.41804e-05
3.97411e-05
4.07764e-05
3.68871e-05
2.7735e-05
1.6264e-05
8.93871e-06
8.95102e-06
1.34881e-05
1.91177e-05
2.25624e-05
2.2381e-05
1.94692e-05
1.64138e-05
1.54352e-05
8.23982e-06
4.27075e-06
4.94828e-07
-2.12932e-06
-3.22924e-06
-3.50007e-06
-4.73563e-06
-7.59042e-06
-1.10451e-05
-1.52424e-05
-2.07838e-05
-2.60527e-05
-2.9475e-05
-2.98781e-05
-2.73302e-05
-2.21172e-05
-1.44632e-05
-4.97672e-06
5.17629e-06
1.36879e-05
1.89556e-05
2.194e-05
2.39722e-05
2.58036e-05
2.83202e-05
3.17549e-05
3.45441e-05
3.39821e-05
2.84214e-05
1.79949e-05
4.06833e-06
-6.5849e-06
-9.1464e-06
-5.22241e-06
2.4884e-06
1.01071e-05
1.50017e-05
1.67568e-05
1.49556e-05
1.16506e-05
2.46681e-05
6.68748e-09
-1.0016e-05
-1.14251e-05
-1.14589e-05
-1.55971e-05
-2.58001e-05
-4.0812e-05
-5.45195e-05
-5.92524e-05
-5.29306e-05
-4.04303e-05
-2.7852e-05
-1.77858e-05
-9.69107e-06
-3.05176e-06
1.27739e-06
2.25449e-06
-1.17386e-06
-8.80345e-06
-1.7116e-05
-2.09553e-05
-1.85942e-05
-1.20758e-05
-3.42783e-06
6.96121e-06
2.13933e-05
4.33316e-05
7.43478e-05
0.000111425
0.000145225
0.00016566
0.000171827
0.000170254
0.000166873
0.000162554
0.000154263
0.000135942
0.000103713
6.25701e-05
2.57417e-05
7.73334e-07
-9.54394e-06
-1.11057e-05
-1.11981e-05
-1.53559e-05
-2.56371e-05
-4.0848e-05
-5.48318e-05
-5.98032e-05
-5.36026e-05
-4.1146e-05
-2.85787e-05
-1.85142e-05
-1.03987e-05
-3.69609e-06
7.43986e-07
1.84341e-06
-1.49985e-06
-9.13384e-06
-1.75889e-05
-2.1702e-05
-1.96971e-05
-1.35703e-05
-5.31201e-06
4.75564e-06
1.89236e-05
4.06203e-05
7.14435e-05
0.000108482
0.000142513
0.000163395
0.000170026
0.00016887
0.000165882
0.000162003
0.000154266
0.000136545
0.00010479
6.38035e-05
2.63635e-05
9.87753e-07
-9.61671e-06
-1.1262e-05
-1.14318e-05
-1.56716e-05
-2.61945e-05
-4.18005e-05
-5.62288e-05
-6.14577e-05
-5.52439e-05
-4.26264e-05
-2.99236e-05
-1.97915e-05
-1.16051e-05
-4.7637e-06
-1.22271e-07
1.19873e-06
-1.97802e-06
-9.56416e-06
-1.81262e-05
-2.24615e-05
-2.07329e-05
-1.49211e-05
-7.01813e-06
2.76524e-06
1.66996e-05
3.81504e-05
6.8763e-05
0.000105705
0.000139923
0.000161211
0.000168269
0.000167495
0.000164887
0.000161522
0.000154406
0.000137255
0.000105824
6.47853e-05
2.60858e-05
2.55137e-07
-1.05763e-05
-1.22931e-05
-1.26591e-05
-1.71959e-05
-2.81858e-05
-4.43476e-05
-5.92654e-05
-6.46245e-05
-5.81115e-05
-4.50142e-05
-3.19479e-05
-2.16287e-05
-1.33021e-05
-6.23972e-06
-1.30477e-06
3.48932e-07
-2.54726e-06
-9.95617e-06
-1.84656e-05
-2.28354e-05
-2.11768e-05
-1.54903e-05
-7.85534e-06
1.67285e-06
1.53659e-05
3.65868e-05
6.69295e-05
0.000103669
0.000137901
0.000159344
0.000166582
0.000166052
0.00016377
0.000161003
0.000154574
0.000137887
0.000106493
6.50749e-05
2.45988e-05
-1.66742e-06
-1.26401e-05
-1.44105e-05
-1.51536e-05
-2.02474e-05
-3.1883e-05
-4.86184e-05
-6.38679e-05
-6.91495e-05
-6.20707e-05
-4.81758e-05
-3.44727e-05
-2.382e-05
-1.52995e-05
-7.98671e-06
-2.72754e-06
-7.14026e-07
-3.25509e-06
-1.03682e-05
-1.86758e-05
-2.29204e-05
-2.11809e-05
-1.55071e-05
-8.10172e-06
1.09281e-06
1.4464e-05
3.52843e-05
6.51976e-05
0.000101657
0.000135902
0.000157406
0.000164598
0.000164154
0.000162158
0.000160091
0.000154518
0.000138266
0.000106623
6.44056e-05
2.21469e-05
-4.65946e-06
-1.5805e-05
-1.77623e-05
-1.90448e-05
-2.50314e-05
-3.74305e-05
-5.46401e-05
-6.98572e-05
-7.45895e-05
-6.66291e-05
-5.17005e-05
-3.70909e-05
-2.58936e-05
-1.71024e-05
-9.55927e-06
-4.02879e-06
-1.7023e-06
-3.94702e-06
-1.08506e-05
-1.9082e-05
-2.3408e-05
-2.18996e-05
-1.6709e-05
-1.01058e-05
-1.76566e-06
1.08449e-05
3.09327e-05
6.02548e-05
9.66193e-05
0.000131488
0.00015375
0.000161319
0.000161064
0.000159484
0.000158336
0.000153944
0.000138411
0.000106402
6.3021e-05
2.0589e-05
-6.73674e-06
-1.80585e-05
-2.05178e-05
-2.29825e-05
-3.05372e-05
-4.43819e-05
-6.23599e-05
-7.75047e-05
-8.11459e-05
-7.1665e-05
-5.53008e-05
-3.94684e-05
-2.73941e-05
-1.81259e-05
-1.03467e-05
-4.65784e-06
-2.15989e-06
-4.31338e-06
-1.14804e-05
-2.04634e-05
-2.58406e-05
-2.55564e-05
-2.19288e-05
-1.73597e-05
-1.11058e-05
-9.33742e-08
1.8986e-05
4.78764e-05
8.48287e-05
0.000121462
0.00014576
0.000154623
0.000154976
0.000154079
0.000154407
0.000152077
0.000138304
0.00010683
6.26109e-05
2.36123e-05
-4.05061e-06
-1.58072e-05
-1.91388e-05
-2.32023e-05
-3.3069e-05
-4.94889e-05
-6.96124e-05
-8.59888e-05
-8.97406e-05
-7.88474e-05
-6.03652e-05
-4.25049e-05
-2.8855e-05
-1.86451e-05
-1.0424e-05
-4.52519e-06
-1.86514e-06
-4.092e-06
-1.21654e-05
-2.31749e-05
-3.11427e-05
-3.33279e-05
-3.22039e-05
-3.04314e-05
-2.70059e-05
-1.82598e-05
-2.94624e-07
2.88347e-05
6.69725e-05
0.000105839
0.000132769
0.000143515
0.000144577
0.00014424
0.000146215
0.000147053
0.00013704
0.000108616
6.57683e-05
3.36802e-05
6.38631e-06
-6.23943e-06
-1.14183e-05
-1.77294e-05
-3.02385e-05
-4.95633e-05
-7.30049e-05
-9.26303e-05
-9.85989e-05
-8.82539e-05
-6.81894e-05
-4.78521e-05
-3.19308e-05
-2.01374e-05
-1.11422e-05
-4.91084e-06
-1.99456e-06
-4.03968e-06
-1.28692e-05
-2.61385e-05
-3.72555e-05
-4.21703e-05
-4.30864e-05
-4.33636e-05
-4.221e-05
-3.55691e-05
-1.87719e-05
1.0572e-05
4.97882e-05
8.94764e-05
0.000116994
0.000128714
0.000130473
0.000130356
0.000133947
0.000138712
0.000134565
0.000112005
7.36465e-05
4.89293e-05
2.20758e-05
8.54638e-06
1.30724e-06
-7.50963e-06
-2.22626e-05
-4.37297e-05
-7.08156e-05
-9.52992e-05
-0.000105889
-9.83141e-05
-7.83023e-05
-5.60088e-05
-3.77423e-05
-2.4307e-05
-1.43747e-05
-7.53695e-06
-4.15738e-06
-5.85886e-06
-1.44293e-05
-2.83376e-05
-4.09976e-05
-4.74862e-05
-4.94329e-05
-5.06819e-05
-5.10084e-05
-4.61765e-05
-3.10274e-05
-2.20983e-06
3.71109e-05
7.62094e-05
0.000102398
0.00011337
0.000115443
0.000116034
0.00012103
0.000129975
0.000133337
0.000118452
8.58615e-05
6.81315e-05
3.98167e-05
2.37175e-05
1.41122e-05
3.71405e-06
-1.1564e-05
-3.30801e-05
-6.19791e-05
-9.15491e-05
-0.000108382
-0.000106059
-8.84745e-05
-6.59072e-05
-4.58777e-05
-3.12075e-05
-2.08264e-05
-1.34796e-05
-9.38872e-06
-1.03982e-05
-1.80436e-05
-3.08993e-05
-4.29402e-05
-4.87489e-05
-4.95601e-05
-5.02284e-05
-5.09872e-05
-4.7529e-05
-3.49599e-05
-8.75176e-06
2.86314e-05
6.59229e-05
9.0447e-05
0.00010086
0.000103477
0.000105649
0.00011251
0.000125383
0.000136259
0.000130043
0.000103406
8.67874e-05
5.69939e-05
3.75734e-05
2.47034e-05
1.26975e-05
-1.58159e-06
-2.05674e-05
-4.86987e-05
-8.12022e-05
-0.000105008
-0.000109629
-9.6712e-05
-7.57909e-05
-5.54613e-05
-4.00123e-05
-2.98389e-05
-2.24321e-05
-1.77619e-05
-1.8081e-05
-2.50531e-05
-3.63315e-05
-4.602e-05
-4.94427e-05
-4.76481e-05
-4.56867e-05
-4.54599e-05
-4.28804e-05
-3.33113e-05
-1.14527e-05
2.20198e-05
5.67751e-05
8.04926e-05
9.14117e-05
9.48279e-05
9.81372e-05
0.000106509
0.000121816
0.000138093
0.000139992
0.000119846
0.000100256
7.10213e-05
4.93355e-05
3.3844e-05
2.05159e-05
6.87756e-06
-9.31088e-06
-3.47915e-05
-6.85387e-05
-9.69561e-05
-0.00010784
-0.000101101
-8.36425e-05
-6.39073e-05
-4.82017e-05
-3.83828e-05
-3.16857e-05
-2.71731e-05
-2.75921e-05
-3.47141e-05
-4.49098e-05
-5.24841e-05
-5.38184e-05
-4.9724e-05
-4.41865e-05
-4.01305e-05
-3.60801e-05
-2.83382e-05
-1.16202e-05
1.68638e-05
4.78585e-05
7.13577e-05
8.44709e-05
9.02407e-05
9.40651e-05
0.000102196
0.00011681
0.000134452
0.000141826
0.0001286
0.000105746
8.02583e-05
5.90855e-05
4.27973e-05
2.88898e-05
1.54611e-05
8.86176e-07
-2.17085e-05
-5.43544e-05
-8.52787e-05
-0.000100543
-9.86834e-05
-8.58355e-05
-6.838e-05
-5.26451e-05
-4.24731e-05
-3.6169e-05
-3.20886e-05
-3.18119e-05
-3.69359e-05
-4.48204e-05
-5.11387e-05
-5.23509e-05
-4.79398e-05
-3.96805e-05
-3.13416e-05
-2.44267e-05
-1.70011e-05
-4.39328e-06
1.77161e-05
4.26042e-05
6.3604e-05
7.81113e-05
8.69921e-05
9.19286e-05
9.83567e-05
0.00010973
0.000124548
0.000133882
0.000127161
0.000103077
8.36327e-05
6.55251e-05
5.08381e-05
3.68815e-05
2.27686e-05
8.19605e-06
-1.19163e-05
-4.1585e-05
-7.21391e-05
-8.92084e-05
-9.01104e-05
-8.10276e-05
-6.67034e-05
-5.08881e-05
-3.93702e-05
-3.36697e-05
-3.0903e-05
-2.99216e-05
-3.14821e-05
-3.56912e-05
-3.99679e-05
-4.10132e-05
-3.74598e-05
-2.88223e-05
-1.8106e-05
-9.17753e-06
-1.89334e-06
7.30666e-06
2.30029e-05
4.13993e-05
5.83196e-05
7.23159e-05
8.30435e-05
8.90483e-05
9.40176e-05
0.000100977
0.000110219
0.000118426
0.000116704
0.000101286
8.91808e-05
7.48548e-05
6.09705e-05
4.58788e-05
2.9627e-05
1.36314e-05
-4.99873e-06
-3.06559e-05
-5.80929e-05
-7.49073e-05
-7.7845e-05
-7.12362e-05
-6.00373e-05
-4.62005e-05
-3.44138e-05
-2.89121e-05
-2.8636e-05
-2.93184e-05
-2.96253e-05
-2.98114e-05
-3.0981e-05
-3.08938e-05
-2.76178e-05
-1.92961e-05
-6.98807e-06
4.52259e-06
1.21301e-05
1.86382e-05
2.89622e-05
4.18122e-05
5.46753e-05
6.77121e-05
7.98851e-05
8.75558e-05
9.20634e-05
9.6313e-05
0.000101217
0.000105654
0.000107179
9.9989e-05
9.40567e-05
8.34739e-05
7.02805e-05
5.42111e-05
3.5896e-05
1.80766e-05
-1.37552e-07
-2.17526e-05
-4.50332e-05
-6.10076e-05
-6.45851e-05
-5.93367e-05
-5.09744e-05
-4.06881e-05
-3.06663e-05
-2.42532e-05
-2.24956e-05
-2.30928e-05
-2.29606e-05
-2.14642e-05
-1.97675e-05
-1.84005e-05
-1.53654e-05
-8.36702e-06
3.45376e-06
1.5871e-05
2.40216e-05
2.80373e-05
3.38367e-05
4.35186e-05
5.43973e-05
6.64722e-05
7.89371e-05
8.79042e-05
9.21649e-05
9.38342e-05
9.53724e-05
9.77398e-05
0.000100364
9.40978e-05
9.29288e-05
8.60361e-05
7.4704e-05
6.02022e-05
4.27179e-05
2.45331e-05
7.06309e-06
-1.09399e-05
-2.87768e-05
-4.00957e-05
-4.31712e-05
-4.12629e-05
-3.73925e-05
-3.30933e-05
-2.76875e-05
-2.2497e-05
-1.90202e-05
-1.66506e-05
-1.42569e-05
-1.14878e-05
-9.80448e-06
-8.48436e-06
-5.56736e-06
4.79015e-07
1.11196e-05
2.35097e-05
3.21935e-05
3.52313e-05
3.78521e-05
4.50234e-05
5.51725e-05
6.65227e-05
7.79432e-05
8.65573e-05
9.06745e-05
9.07205e-05
8.92907e-05
8.91835e-05
9.14993e-05
7.96241e-05
8.10233e-05
7.79467e-05
7.06787e-05
6.01169e-05
4.62461e-05
3.10295e-05
1.6635e-05
2.24764e-06
-1.20193e-05
-2.22808e-05
-2.49583e-05
-2.10253e-05
-1.86333e-05
-1.98803e-05
-2.14882e-05
-2.06417e-05
-1.77214e-05
-1.41133e-05
-1.13088e-05
-9.15703e-06
-6.8581e-06
-3.68246e-06
1.76119e-06
8.70307e-06
1.76544e-05
2.8768e-05
3.81334e-05
4.15196e-05
4.18695e-05
4.51484e-05
5.29102e-05
6.22456e-05
7.19271e-05
7.8921e-05
8.11975e-05
7.9582e-05
7.66273e-05
7.50208e-05
7.63689e-05
6.451e-05
6.56097e-05
6.23007e-05
5.56653e-05
4.74937e-05
3.79866e-05
2.69492e-05
1.56401e-05
4.39279e-06
-6.65495e-06
-1.50463e-05
-2.00265e-05
-2.08446e-05
-2.00893e-05
-1.94015e-05
-1.9548e-05
-1.96647e-05
-1.83715e-05
-1.59626e-05
-1.33924e-05
-1.21054e-05
-1.2097e-05
-9.42058e-06
-2.24036e-06
7.83418e-06
1.82466e-05
2.73926e-05
3.47307e-05
3.76341e-05
3.71083e-05
3.87919e-05
4.49504e-05
5.41838e-05
6.30209e-05
6.85476e-05
6.91795e-05
6.5783e-05
6.19136e-05
6.0399e-05
6.17119e-05
5.25094e-05
5.55788e-05
5.41476e-05
4.84132e-05
4.06215e-05
3.07884e-05
2.01384e-05
9.58423e-06
-1.54507e-06
-1.33144e-05
-2.30187e-05
-2.89017e-05
-3.17194e-05
-3.29353e-05
-3.3276e-05
-3.30807e-05
-3.23492e-05
-3.04866e-05
-2.76287e-05
-2.47405e-05
-2.26252e-05
-2.07356e-05
-1.65404e-05
-8.12861e-06
3.50362e-06
1.49574e-05
2.39947e-05
2.96931e-05
3.11849e-05
3.00233e-05
3.09876e-05
3.70437e-05
4.57072e-05
5.32465e-05
5.66868e-05
5.5568e-05
5.11326e-05
4.70374e-05
4.61855e-05
4.86162e-05
4.85167e-05
5.32039e-05
5.42189e-05
5.10066e-05
4.43262e-05
3.53573e-05
2.57712e-05
1.72851e-05
8.32946e-06
-2.41345e-06
-1.45389e-05
-2.50838e-05
-3.29706e-05
-3.83255e-05
-4.16614e-05
-4.33841e-05
-4.40417e-05
-4.30338e-05
-4.04578e-05
-3.7074e-05
-3.30867e-05
-2.88228e-05
-2.33674e-05
-1.47257e-05
-2.60516e-06
1.11e-05
2.32569e-05
3.13192e-05
3.32996e-05
3.01316e-05
2.75273e-05
3.04886e-05
3.8321e-05
4.61005e-05
4.94401e-05
4.79263e-05
4.28537e-05
3.87929e-05
3.89414e-05
4.30144e-05
3.74701e-05
4.10934e-05
4.25296e-05
4.12703e-05
3.72916e-05
3.08592e-05
2.34073e-05
1.64325e-05
1.01494e-05
4.24354e-06
-2.28292e-06
-8.86772e-06
-1.49737e-05
-2.01164e-05
-2.41529e-05
-2.71572e-05
-2.87256e-05
-2.81501e-05
-2.5841e-05
-2.25163e-05
-1.83966e-05
-1.35454e-05
-8.82965e-06
-3.33415e-06
3.99452e-06
1.29094e-05
2.08976e-05
2.61027e-05
2.70688e-05
2.32937e-05
1.89295e-05
1.96203e-05
2.65186e-05
3.48843e-05
3.99859e-05
4.07531e-05
3.83614e-05
3.40473e-05
3.18894e-05
3.35532e-05
2.65286e-05
2.76585e-05
2.72171e-05
2.54549e-05
2.25348e-05
1.85092e-05
1.4147e-05
9.68884e-06
4.98717e-06
-1.73023e-07
-6.91717e-06
-1.39028e-05
-1.89494e-05
-2.14279e-05
-2.18984e-05
-2.08035e-05
-1.85453e-05
-1.51418e-05
-1.09291e-05
-6.94876e-06
-3.87816e-06
-9.09566e-07
2.56137e-06
6.98163e-06
1.332e-05
2.05861e-05
2.64424e-05
2.89598e-05
2.753e-05
2.20895e-05
1.50765e-05
1.12603e-05
1.30259e-05
1.81936e-05
2.32007e-05
2.62743e-05
2.66685e-05
2.5452e-05
2.42617e-05
2.47669e-05
1.75752e-05
1.3365e-05
8.91343e-06
4.99199e-06
2.25899e-06
8.01409e-07
-7.03508e-07
-3.22498e-06
-6.61102e-06
-1.10518e-05
-1.65538e-05
-2.18298e-05
-2.53184e-05
-2.60759e-05
-2.45159e-05
-2.10648e-05
-1.53469e-05
-7.39422e-06
1.64448e-06
9.56245e-06
1.44789e-05
1.67168e-05
1.79728e-05
1.95959e-05
2.26067e-05
2.68786e-05
3.0937e-05
3.21141e-05
2.8803e-05
2.13877e-05
1.21133e-05
4.70996e-06
2.85852e-06
6.6746e-06
1.23119e-05
1.8063e-05
2.21557e-05
2.37724e-05
2.31937e-05
2.0995e-05
7.49546e-05
4.54237e-05
2.08477e-05
1.30311e-06
-1.03812e-05
-1.51854e-05
-1.88372e-05
-2.622e-05
-3.62476e-05
-4.38478e-05
-4.61528e-05
-4.47265e-05
-4.23329e-05
-3.96727e-05
-3.5992e-05
-3.08276e-05
-2.41523e-05
-1.6856e-05
-1.1391e-05
-9.77863e-06
-1.0025e-05
-7.81488e-06
-1.72195e-06
5.84724e-06
1.22831e-05
1.82165e-05
2.71609e-05
4.33223e-05
6.837e-05
0.000102097
0.000140382
0.000174925
0.000198057
0.000209568
0.000211938
0.000206026
0.00019196
0.000170624
0.000142566
0.000109054
7.60573e-05
4.68003e-05
2.23948e-05
2.86132e-06
-8.93101e-06
-1.38995e-05
-1.76941e-05
-2.52646e-05
-3.55284e-05
-4.33774e-05
-4.58798e-05
-4.4587e-05
-4.22876e-05
-3.97221e-05
-3.61488e-05
-3.10904e-05
-2.45559e-05
-1.74119e-05
-1.20652e-05
-1.05418e-05
-1.08676e-05
-8.72214e-06
-2.65816e-06
4.86289e-06
1.11938e-05
1.69321e-05
2.55583e-05
4.12741e-05
6.582e-05
9.90818e-05
0.000137087
0.000171677
0.000195086
0.000206913
0.000209697
0.000204315
0.000190843
0.000170147
0.000142739
0.000109771
7.72899e-05
4.81694e-05
2.37206e-05
3.82802e-06
-8.39904e-06
-1.36836e-05
-1.7634e-05
-2.53387e-05
-3.57942e-05
-4.38338e-05
-4.64383e-05
-4.51777e-05
-4.29219e-05
-4.04059e-05
-3.68369e-05
-3.17951e-05
-2.52936e-05
-1.81758e-05
-1.2818e-05
-1.13013e-05
-1.16932e-05
-9.62271e-06
-3.56112e-06
3.98003e-06
1.02658e-05
1.58526e-05
2.41515e-05
3.93575e-05
6.32647e-05
9.58838e-05
0.000133571
0.000168399
0.000192345
0.000204681
0.000208042
0.000203276
0.000190376
0.000170185
0.000143279
0.000110731
7.85212e-05
4.93354e-05
2.45196e-05
3.7422e-06
-9.44336e-06
-1.53757e-05
-1.95651e-05
-2.73311e-05
-3.78281e-05
-4.58853e-05
-4.84122e-05
-4.70163e-05
-4.47309e-05
-4.21993e-05
-3.85511e-05
-3.33612e-05
-2.66724e-05
-1.9345e-05
-1.37439e-05
-1.20623e-05
-1.2388e-05
-1.0282e-05
-4.11215e-06
3.57123e-06
9.8986e-06
1.53872e-05
2.33816e-05
3.81208e-05
6.13833e-05
9.32772e-05
0.000130582
0.000165743
0.000190445
0.000203455
0.000207516
0.000203434
0.00019102
0.000171071
0.000144339
0.000111931
7.98173e-05
5.03838e-05
2.49636e-05
2.77937e-06
-1.20783e-05
-1.9239e-05
-2.39164e-05
-3.16552e-05
-4.19523e-05
-4.97649e-05
-5.20113e-05
-5.03704e-05
-4.80065e-05
-4.54345e-05
-4.17247e-05
-3.62431e-05
-2.9119e-05
-2.12761e-05
-1.52442e-05
-1.32502e-05
-1.33347e-05
-1.09901e-05
-4.50151e-06
3.5106e-06
1.00027e-05
1.54032e-05
2.31001e-05
3.74218e-05
6.01794e-05
9.14419e-05
0.000128323
0.000163802
0.000189413
0.000203271
0.000208161
0.00020486
0.000192927
0.000172983
0.00014604
0.000113436
8.15347e-05
5.17538e-05
2.55967e-05
1.59809e-06
-1.58341e-05
-2.50384e-05
-3.06672e-05
-3.83705e-05
-4.81045e-05
-5.52843e-05
-5.7038e-05
-5.51139e-05
-5.26958e-05
-5.02014e-05
-4.63474e-05
-4.04575e-05
-3.26895e-05
-2.4107e-05
-1.7495e-05
-1.51902e-05
-1.51487e-05
-1.27258e-05
-5.96721e-06
2.54458e-06
9.41428e-06
1.4723e-05
2.1924e-05
3.56636e-05
5.8058e-05
8.91078e-05
0.000125886
0.000161845
0.000188611
0.000203671
0.000209651
0.000207366
0.000196108
0.000176165
0.000148747
0.000115637
8.45243e-05
5.41662e-05
2.72845e-05
1.28393e-06
-1.96315e-05
-3.20236e-05
-3.94417e-05
-4.73326e-05
-5.60679e-05
-6.19135e-05
-6.27353e-05
-6.04262e-05
-5.80126e-05
-5.56486e-05
-5.17652e-05
-4.54082e-05
-3.68202e-05
-2.73553e-05
-2.00687e-05
-1.75494e-05
-1.78414e-05
-1.62264e-05
-1.02903e-05
-2.17123e-06
4.63924e-06
9.60463e-06
1.59449e-05
2.86847e-05
5.07126e-05
8.22437e-05
0.000119896
0.000156873
0.000185288
0.000202356
0.000210309
0.00020986
0.000200026
0.000180664
0.000152965
0.000119283
8.97567e-05
5.86104e-05
3.09187e-05
3.06586e-06
-2.17105e-05
-3.85234e-05
-4.90121e-05
-5.81631e-05
-6.61098e-05
-6.98583e-05
-6.88958e-05
-6.56859e-05
-6.30048e-05
-6.07133e-05
-5.69839e-05
-5.02107e-05
-4.09066e-05
-3.06894e-05
-2.295e-05
-2.0501e-05
-2.16251e-05
-2.17546e-05
-1.80745e-05
-1.18971e-05
-6.42659e-06
-2.65581e-06
2.25035e-06
1.36153e-05
3.50343e-05
6.72767e-05
0.000106571
0.000145025
0.000175315
0.000194943
0.000206196
0.000209407
0.000202534
0.000185222
0.000158655
0.00012511
9.74339e-05
6.55234e-05
3.69099e-05
7.57322e-06
-2.03652e-05
-4.15091e-05
-5.62538e-05
-6.85243e-05
-7.76615e-05
-8.05414e-05
-7.79056e-05
-7.34117e-05
-7.01777e-05
-6.75756e-05
-6.35619e-05
-5.65235e-05
-4.66194e-05
-3.59267e-05
-2.81563e-05
-2.63202e-05
-2.89636e-05
-3.15042e-05
-3.03065e-05
-2.61148e-05
-2.21054e-05
-1.95683e-05
-1.58168e-05
-5.46459e-06
1.56542e-05
4.79106e-05
8.73179e-05
0.00012599
0.000157109