/*--------------------------------*- C++ -*----------------------------------*\
| =========                 |                                                 |
| \\      /  F ield         | OpenFOAM: The Open Source CFD Toolbox           |
|  \\    /   O peration     | Version:  2306                                  |
|   \\  /    A nd           | Website:  www.openfoam.com                      |
|    \\/     M anipulation  |                                                 |
\*---------------------------------------------------------------------------*/
FoamFile
{
    version     2.0;
    format      ascii;
    arch        "LSB;label=32;scalar=64";
    class       volScalarField;
    location    "10";
    object      pPrime2Mean;
}
// * * * * * * * * * * * * * * * * * * * * * * * * * * * * * * * * * * * * * //

dimensions      [0 4 -4 0 0 0 0];

internalField   nonuniform List<scalar> 
60000
(
3.50211e-09
6.68177e-09
1.35077e-08
2.01914e-08
2.44503e-08
2.59899e-08
2.52981e-08
2.29086e-08
2.00601e-08
1.97336e-08
2.44244e-08
3.2393e-08
3.87188e-08
3.9577e-08
3.44684e-08
2.55347e-08
1.62621e-08
9.43602e-09
5.64703e-09
4.1449e-09
5.13527e-09
1.06624e-08
2.07896e-08
3.16472e-08
3.89177e-08
4.07443e-08
3.81753e-08
3.46266e-08
3.2217e-08
3.05148e-08
2.97647e-08
2.93813e-08
2.72363e-08
2.33173e-08
1.85888e-08
1.39751e-08
1.06384e-08
9.28926e-09
8.05693e-09
5.15173e-09
3.35104e-09
6.40724e-09
1.32438e-08
2.00436e-08
2.44072e-08
2.59749e-08
2.52402e-08
2.2784e-08
1.98753e-08
1.95112e-08
2.42352e-08
3.23004e-08
3.87281e-08
3.96743e-08
3.46322e-08
2.57269e-08
1.64345e-08
9.55318e-09
5.70003e-09
4.13908e-09
5.08068e-09
1.05793e-08
2.07054e-08
3.15607e-08
3.88065e-08
4.06058e-08
3.80559e-08
3.45879e-08
3.23033e-08
3.06831e-08
2.99713e-08
2.96549e-08
2.75905e-08
2.3706e-08
1.89493e-08
1.4255e-08
1.08044e-08
9.36369e-09
8.10545e-09
5.14517e-09
3.14869e-09
6.12427e-09
1.30653e-08
2.00779e-08
2.46239e-08
2.62687e-08
2.54916e-08
2.29093e-08
1.98363e-08
1.9306e-08
2.39896e-08
3.21793e-08
3.87929e-08
3.991e-08
3.49788e-08
2.60847e-08
1.67077e-08
9.69433e-09
5.72212e-09
4.08205e-09
4.98653e-09
1.05069e-08
2.07023e-08
3.16098e-08
3.88444e-08
4.05762e-08
3.79406e-08
3.44462e-08
3.22572e-08
3.07364e-08
3.01301e-08
2.99732e-08
2.80563e-08
2.4225e-08
1.94034e-08
1.45539e-08
1.09268e-08
9.38771e-09
8.12689e-09
5.10459e-09
2.89311e-09
5.83805e-09
1.29955e-08
2.03338e-08
2.51538e-08
2.69517e-08
2.61511e-08
2.33941e-08
2.00587e-08
1.92237e-08
2.3749e-08
3.20542e-08
3.89258e-08
4.02954e-08
3.5524e-08
2.66263e-08
1.7096e-08
9.86566e-09
5.70759e-09
3.96008e-09
4.85858e-09
1.04857e-08
2.08474e-08
3.18658e-08
3.9084e-08
4.06765e-08
3.78305e-08
3.42066e-08
3.20943e-08
3.07085e-08
3.02643e-08
3.03439e-08
2.86443e-08
2.49003e-08
1.99849e-08
1.48897e-08
1.10055e-08
9.36079e-09
8.12613e-09
5.03089e-09
2.59386e-09
5.49946e-09
1.29274e-08
2.06826e-08
2.58791e-08
2.79315e-08
2.72015e-08
2.43124e-08
2.07106e-08
1.94799e-08
2.36531e-08
3.19192e-08
3.90155e-08
4.06812e-08
3.61428e-08
2.72927e-08
1.75932e-08
1.00822e-08
5.67535e-09
3.78247e-09
4.68077e-09
1.04729e-08
2.10573e-08
3.22217e-08
3.9477e-08
4.0994e-08
3.79301e-08
3.41617e-08
3.2194e-08
3.09868e-08
3.0625e-08
3.08455e-08
2.93472e-08
2.57453e-08
2.07788e-08
1.54033e-08
1.11644e-08
9.37114e-09
8.15262e-09
4.956e-09
2.26707e-09
5.09047e-09
1.28021e-08
2.10441e-08
2.67123e-08
2.91053e-08
2.85165e-08
2.56051e-08
2.18549e-08
2.03e-08
2.40038e-08
3.19572e-08
3.90661e-08
4.09334e-08
3.66544e-08
2.7947e-08
1.81493e-08
1.03494e-08
5.62617e-09
3.51197e-09
4.38302e-09
1.03786e-08
2.11855e-08
3.23534e-08
3.95233e-08
4.10857e-08
3.80985e-08
3.45018e-08
3.30244e-08
3.22099e-08
3.17693e-08
3.18272e-08
3.03365e-08
2.68302e-08
2.18625e-08
1.62463e-08
1.16055e-08
9.60824e-09
8.36109e-09
4.95879e-09
2.0565e-09
4.39224e-09
1.22806e-08
2.11623e-08
2.76643e-08
3.07847e-08
3.04678e-08
2.73338e-08
2.34343e-08
2.17736e-08
2.51097e-08
3.25552e-08
3.93448e-08
4.11443e-08
3.69931e-08
2.84658e-08
1.86768e-08
1.06443e-08
5.57538e-09
3.13908e-09
3.86962e-09
1.01177e-08
2.13819e-08
3.26595e-08
3.9389e-08
4.05329e-08
3.75049e-08
3.43619e-08
3.39913e-08
3.42867e-08
3.41873e-08
3.40202e-08
3.22036e-08
2.84619e-08
2.33056e-08
1.74576e-08
1.2428e-08
1.02209e-08
9.09338e-09
5.47175e-09
2.21699e-09
3.47261e-09
1.11803e-08
2.06998e-08
2.82192e-08
3.24679e-08
3.29412e-08
2.9886e-08
2.56281e-08
2.3704e-08
2.69653e-08
3.41595e-08
4.04196e-08
4.17041e-08
3.73616e-08
2.89079e-08
1.91682e-08
1.095e-08
5.54225e-09
2.71776e-09
3.22452e-09
9.87894e-09
2.20049e-08
3.36731e-08
3.96861e-08
3.9506e-08
3.54193e-08
3.20817e-08
3.28024e-08
3.48515e-08
3.61484e-08
3.68658e-08
3.537e-08
3.13608e-08
2.55161e-08
1.89307e-08
1.33455e-08
1.0948e-08
1.0245e-08
6.65458e-09
2.8427e-09
2.56913e-09
9.68109e-09
1.98008e-08
2.85236e-08
3.41052e-08
3.56765e-08
3.29943e-08
2.84793e-08
2.61316e-08
2.88618e-08
3.59546e-08
4.22759e-08
4.32416e-08
3.83818e-08
2.96603e-08
1.98588e-08
1.13965e-08
5.54405e-09
2.33381e-09
2.75084e-09
1.01239e-08
2.36232e-08
3.59837e-08
4.10116e-08
3.86123e-08
3.2192e-08
2.75189e-08
2.87769e-08
3.29766e-08
3.67892e-08
3.90322e-08
3.80584e-08
3.40631e-08
2.79221e-08
2.07953e-08
1.45726e-08
1.18129e-08
1.14532e-08
8.22843e-09
3.97316e-09
1.83189e-09
7.86902e-09
1.84183e-08
2.85163e-08
3.57195e-08
3.87009e-08
3.66536e-08
3.18077e-08
2.88856e-08
3.0936e-08
3.70274e-08
4.27672e-08
4.39696e-08
3.95148e-08
3.10502e-08
2.12347e-08
1.23564e-08
5.7753e-09
2.04275e-09
2.61232e-09
1.1321e-08
2.70188e-08
4.071e-08
4.50968e-08
4.0187e-08
3.04647e-08
2.31022e-08
2.37205e-08
2.96747e-08
3.64801e-08
4.1027e-08
4.07775e-08
3.67009e-08
3.04044e-08
2.28543e-08
1.62024e-08
1.29966e-08
1.28658e-08
1.01268e-08
5.47667e-09
1.48764e-09
5.76268e-09
1.60171e-08
2.73571e-08
3.65777e-08
4.15425e-08
4.07741e-08
3.56724e-08
3.17067e-08
3.28169e-08
3.78614e-08
4.20456e-08
4.24011e-08
3.85257e-08
3.14126e-08
2.27972e-08
1.40241e-08
6.55233e-09
1.94394e-09
2.74885e-09
1.34104e-08
3.24058e-08
4.87309e-08
5.35678e-08
4.68312e-08
3.3707e-08
2.23289e-08
2.0335e-08
2.62358e-08
3.50551e-08
4.19399e-08
4.30969e-08
3.96134e-08
3.37915e-08
2.6181e-08
1.88938e-08
1.45725e-08
1.40731e-08
1.18203e-08
6.50459e-09
1.56167e-09
3.8147e-09
1.27763e-08
2.42601e-08
3.51358e-08
4.25961e-08
4.40885e-08
3.95275e-08
3.44681e-08
3.45865e-08
3.89322e-08
4.13871e-08
3.9584e-08
3.48359e-08
2.882e-08
2.23042e-08
1.51658e-08
7.87431e-09
2.60464e-09
3.18349e-09
1.51494e-08
3.71483e-08
5.66959e-08
6.3404e-08
5.64774e-08
4.09654e-08
2.52451e-08
1.86509e-08
2.2178e-08
3.10392e-08
3.97578e-08
4.34175e-08
4.16935e-08
3.69662e-08
3.01158e-08
2.25319e-08
1.70113e-08
1.50883e-08
1.26097e-08
7.12218e-09
1.82117e-09
2.37472e-09
9.40477e-09
1.97323e-08
3.09161e-08
4.04151e-08
4.47439e-08
4.17722e-08
3.60347e-08
3.51921e-08
3.96173e-08
4.18719e-08
3.78207e-08
3.06877e-08
2.42622e-08
1.93514e-08
1.45167e-08
9.03579e-09
4.61603e-09
5.07998e-09
1.59733e-08
3.76983e-08
5.88756e-08
6.77672e-08
6.21519e-08
4.64206e-08
2.84327e-08
1.7311e-08
1.69332e-08
2.41546e-08
3.34587e-08
3.99779e-08
4.12776e-08
3.82031e-08
3.2847e-08
2.6142e-08
2.03185e-08
1.65916e-08
1.30769e-08
7.60441e-09
2.33283e-09
1.54701e-09
6.15263e-09
1.4413e-08
2.46828e-08
3.50843e-08
4.17161e-08
4.09456e-08
3.55861e-08
3.39559e-08
3.85156e-08
4.2276e-08
3.84017e-08
2.94001e-08
2.17231e-08
1.69841e-08
1.33991e-08
9.66941e-09
6.81194e-09
7.68735e-09
1.65049e-08
3.51324e-08
5.59917e-08
6.67805e-08
6.32153e-08
4.88892e-08
3.08673e-08
1.70659e-08
1.27222e-08
1.71057e-08
2.57931e-08
3.41285e-08
3.80232e-08
3.68961e-08
3.30321e-08
2.77432e-08
2.24041e-08
1.79712e-08
1.35153e-08
8.79035e-09
3.92448e-09
1.8593e-09
3.63213e-09
9.21693e-09
1.79892e-08
2.81569e-08
3.58749e-08
3.71056e-08
3.29655e-08
3.09447e-08
3.51486e-08
4.06105e-08
3.95132e-08
3.14843e-08
2.3163e-08
1.77361e-08
1.39504e-08
1.01562e-08
7.51417e-09
8.43012e-09
1.53618e-08
3.02141e-08
4.91792e-08
6.17012e-08
6.09394e-08
4.90013e-08
3.21523e-08
1.73449e-08
1.04941e-08
1.25981e-08
2.00293e-08
2.827e-08
3.39351e-08
3.47548e-08
3.22014e-08
2.78494e-08
2.30443e-08
1.88296e-08
1.43403e-08
1.06987e-08
6.3708e-09
3.68002e-09
3.08269e-09
5.77481e-09
1.23192e-08
2.11013e-08
2.84279e-08
3.07326e-08
2.82709e-08
2.67475e-08
3.04776e-08
3.64629e-08
3.80958e-08
3.30659e-08
2.57513e-08
1.99762e-08
1.55278e-08
1.09351e-08
7.75891e-09
8.85713e-09
1.47781e-08
2.58484e-08
4.08792e-08
5.29404e-08
5.4697e-08
4.60142e-08
3.18502e-08
1.78926e-08
9.64544e-09
9.80198e-09
1.57999e-08
2.32592e-08
2.96299e-08
3.28396e-08
3.23115e-08
2.86541e-08
2.37417e-08
1.97303e-08
1.57223e-08
1.25674e-08
8.72596e-09
6.0622e-09
4.55418e-09
5.35766e-09
9.25943e-09
1.53222e-08
2.06493e-08
2.28191e-08
2.18621e-08
2.15943e-08
2.54548e-08
3.18121e-08
3.53889e-08
3.29402e-08
2.69864e-08
2.1386e-08
1.6873e-08
1.21445e-08
8.95129e-09
1.06007e-08
1.62639e-08
2.41119e-08
3.4214e-08
4.33255e-08
4.59755e-08
4.01034e-08
2.95742e-08
1.83581e-08
1.03331e-08
8.56856e-09
1.2925e-08
1.99017e-08
2.63254e-08
3.04639e-08
3.14545e-08
2.90201e-08
2.46762e-08
2.07805e-08
1.70415e-08
1.19265e-08
9.7141e-09
8.54646e-09
7.56139e-09
7.30765e-09
8.66643e-09
1.13599e-08
1.37115e-08
1.46764e-08
1.48054e-08
1.62936e-08
2.08269e-08
2.76104e-08
3.27058e-08
3.26893e-08
2.80763e-08
2.23604e-08
1.73104e-08
1.25924e-08
9.70517e-09
1.16986e-08
1.73225e-08
2.37768e-08
3.08864e-08
3.75508e-08
3.96442e-08
3.5319e-08
2.64637e-08
1.738e-08
1.08486e-08
9.14713e-09
1.28126e-08
1.97675e-08
2.66327e-08
3.09858e-08
3.13674e-08
2.79581e-08
2.28194e-08
1.85558e-08
1.52204e-08
1.01783e-08
9.54028e-09
1.00121e-08
1.04298e-08
1.08928e-08
1.13944e-08
1.14945e-08
1.07858e-08
9.47377e-09
8.98892e-09
1.08467e-08
1.57799e-08
2.2858e-08
2.92872e-08
3.19789e-08
3.0326e-08
2.6241e-08
2.15921e-08
1.65678e-08
1.26466e-08
1.25917e-08
1.6114e-08
2.06128e-08
2.62071e-08
3.24398e-08
3.53262e-08
3.17185e-08
2.38219e-08
1.56484e-08
1.01695e-08
9.09952e-09
1.28179e-08
1.99357e-08
2.71815e-08
3.14668e-08
3.14952e-08
2.75921e-08
2.15797e-08
1.60836e-08
1.23968e-08
8.79673e-09
8.89758e-09
1.03518e-08
1.18085e-08
1.28985e-08
1.35625e-08
1.33244e-08
1.20021e-08
1.00683e-08
8.63367e-09
8.80053e-09
1.10804e-08
1.55709e-08
2.11203e-08
2.54192e-08
2.67414e-08
2.59014e-08
2.47552e-08
2.29201e-08
1.95183e-08
1.68119e-08
1.68194e-08
1.85878e-08
2.26621e-08
2.85704e-08
3.2277e-08
2.99308e-08
2.29672e-08
1.52485e-08
9.95191e-09
8.68093e-09
1.18785e-08
1.86617e-08
2.59955e-08
3.04197e-08
3.05549e-08
2.68445e-08
2.10935e-08
1.52557e-08
1.08979e-08
9.47617e-09
7.7192e-09
9.16123e-09
1.21253e-08
1.51932e-08
1.7101e-08
1.67266e-08
1.44998e-08
1.18572e-08
9.93407e-09
9.41385e-09
1.04696e-08
1.26593e-08
1.59464e-08
1.98098e-08
2.28557e-08
2.43397e-08
2.51161e-08
2.52018e-08
2.32363e-08
1.99328e-08
1.80847e-08
1.88072e-08
2.26429e-08
2.87925e-08
3.31493e-08
3.08755e-08
2.27929e-08
1.3674e-08
7.43638e-09
6.48475e-09
1.13503e-08
2.00479e-08
2.912e-08
3.49339e-08
3.57585e-08
3.23548e-08
2.68181e-08
2.06472e-08
1.46047e-08
1.66164e-08
1.12344e-08
8.92238e-09
9.26444e-09
1.11537e-08
1.33764e-08
1.45617e-08
1.40289e-08
1.23625e-08
1.07829e-08
1.01707e-08
1.08368e-08
1.24858e-08
1.44746e-08
1.66707e-08
1.92538e-08
2.16358e-08
2.3826e-08
2.54048e-08
2.502e-08
2.27155e-08
2.05606e-08
2.02556e-08
2.26119e-08
2.74588e-08
3.18717e-08
3.124e-08
2.44868e-08
1.49376e-08
7.05798e-09
4.7471e-09
9.69564e-09
1.98956e-08
3.14694e-08
3.95797e-08
4.18385e-08
3.87126e-08
3.36601e-08
2.89227e-08
2.34323e-08
1.8796e-08
1.42893e-08
1.12363e-08
9.83198e-09
9.46518e-09
1.00972e-08
1.1182e-08
1.18936e-08
1.19493e-08
1.17982e-08
1.19641e-08
1.27225e-08
1.40864e-08
1.57454e-08
1.74679e-08
1.91978e-08
2.08615e-08
2.22904e-08
2.32361e-08
2.32867e-08
2.20796e-08
2.03352e-08
1.94546e-08
2.03985e-08
2.33014e-08
2.6443e-08
2.64438e-08
2.16164e-08
1.41708e-08
7.94726e-09
5.46271e-09
8.19725e-09
1.5369e-08
2.41749e-08
3.10455e-08
3.38165e-08
3.27809e-08
3.01123e-08
2.71101e-08
2.34561e-08
1.91981e-08
1.37297e-08
9.5916e-09
7.61573e-09
7.82286e-09
9.82869e-09
1.27305e-08
1.53544e-08
1.67434e-08
1.68809e-08
1.65255e-08
1.59624e-08
1.53202e-08
1.52069e-08
1.63304e-08
1.83559e-08
2.07871e-08
2.29552e-08
2.41708e-08
2.41913e-08
2.27287e-08
2.03979e-08
1.84024e-08
1.74724e-08
1.80801e-08
2.01139e-08
2.15142e-08
1.99249e-08
1.55609e-08
1.09067e-08
8.26929e-09
9.10774e-09
1.35838e-08
1.9974e-08
2.55739e-08
2.86332e-08
2.92734e-08
2.85039e-08
2.6991e-08
2.40307e-08
1.97938e-08
1.45035e-08
9.7934e-09
7.09714e-09
7.00695e-09
9.21186e-09
1.27615e-08
1.63078e-08
1.84845e-08
1.91924e-08
1.9107e-08
1.8734e-08
1.87114e-08
1.89743e-08
1.93537e-08
2.04224e-08
2.25818e-08
2.51379e-08
2.70065e-08
2.71531e-08
2.47867e-08
2.0564e-08
1.60375e-08
1.24762e-08
1.14246e-08
1.35088e-08
1.69943e-08
1.9154e-08
1.86823e-08
1.62945e-08
1.40514e-08
1.35298e-08
1.56385e-08
1.97348e-08
2.36896e-08
2.65758e-08
2.81434e-08
2.81504e-08
2.68492e-08
2.40771e-08
3.28763e-09
2.84126e-15
3.51107e-09
1.23129e-08
2.25213e-08
3.02183e-08
3.30903e-08
3.10542e-08
2.65797e-08
2.43382e-08
2.74433e-08
3.35967e-08
3.76834e-08
3.69096e-08
3.18448e-08
2.47013e-08
1.79238e-08
1.28558e-08
9.32398e-09
6.79855e-09
6.15956e-09
1.04922e-08
2.18077e-08
3.73292e-08
5.11666e-08
5.8425e-08
5.81295e-08
5.29181e-08
4.46966e-08
3.38507e-08
2.45845e-08
2.19614e-08
2.26308e-08
2.1575e-08
1.76757e-08
1.34794e-08
1.1887e-08
1.29212e-08
1.36258e-08
9.9395e-09
3.42415e-09
3.13232e-12
3.34371e-09
1.20288e-08
2.22208e-08
2.99706e-08
3.2902e-08
3.08809e-08
2.63791e-08
2.41145e-08
2.72579e-08
3.35063e-08
3.76867e-08
3.69716e-08
3.19384e-08
2.48104e-08
1.80337e-08
1.295e-08
9.38973e-09
6.82006e-09
6.09803e-09
1.02806e-08
2.14055e-08
3.67765e-08
5.05884e-08
5.79712e-08
5.79058e-08
5.29671e-08
4.49913e-08
3.42476e-08
2.48901e-08
2.2168e-08
2.28897e-08
2.19474e-08
1.81036e-08
1.38743e-08
1.21891e-08
1.31163e-08
1.37752e-08
1.01068e-08
3.62423e-09
1.85764e-11
3.25228e-09
1.19606e-08
2.22876e-08
3.01895e-08
3.31747e-08
3.10789e-08
2.64116e-08
2.39963e-08
2.71223e-08
3.34707e-08
3.77625e-08
3.71121e-08
3.21096e-08
2.49905e-08
1.82045e-08
1.30944e-08
9.49004e-09
6.84802e-09
6.01988e-09
1.00705e-08
2.10826e-08
3.64066e-08
5.02626e-08
5.77754e-08
5.78917e-08
5.31717e-08
4.53643e-08
3.46182e-08
2.50468e-08
2.21989e-08
2.30621e-08
2.23433e-08
1.8606e-08
1.43162e-08
1.25111e-08
1.33577e-08
1.4039e-08
1.04133e-08
3.8964e-09
6.93605e-11
3.3198e-09
1.22495e-08
2.28934e-08
3.10419e-08
3.4068e-08
3.1802e-08
2.68248e-08
2.40989e-08
2.70802e-08
3.34846e-08
3.78922e-08
3.73097e-08
3.2333e-08
2.52147e-08
1.84089e-08
1.32661e-08
9.6107e-09
6.87952e-09
5.94641e-09
9.9456e-09
2.10055e-08
3.64403e-08
5.03945e-08
5.7957e-08
5.81029e-08
5.34425e-08
4.57138e-08
3.48851e-08
2.50148e-08
2.20086e-08
2.30606e-08
2.26636e-08
1.91095e-08
1.47754e-08
1.28637e-08
1.36923e-08
1.44863e-08
1.08971e-08
4.3239e-09
2.0863e-10
3.58033e-09
1.29218e-08
2.40567e-08
3.25626e-08
3.56531e-08
3.31775e-08
2.78298e-08
2.46487e-08
2.72612e-08
3.35416e-08
3.79909e-08
3.74594e-08
3.25033e-08
2.53917e-08
1.85869e-08
1.34297e-08
9.72463e-09
6.89555e-09
5.86863e-09
9.89838e-09
2.11479e-08
3.68249e-08
5.09255e-08
5.85032e-08
5.86078e-08
5.39451e-08
4.63107e-08
3.54351e-08
2.51493e-08
2.17791e-08
2.28627e-08
2.27486e-08
1.9441e-08
1.5165e-08
1.32704e-08
1.42215e-08
1.524e-08
1.16769e-08
5.08147e-09
5.18284e-10
4.01438e-09
1.38644e-08
2.56439e-08
3.46347e-08
3.78754e-08
3.52265e-08
2.95712e-08
2.59734e-08
2.80343e-08
3.38585e-08
3.81094e-08
3.75191e-08
3.25378e-08
2.54315e-08
1.86678e-08
1.35491e-08
9.82376e-09
6.87583e-09
5.70949e-09
9.73825e-09
2.11496e-08
3.70198e-08
5.12772e-08
5.90508e-08
5.94607e-08
5.51455e-08
4.79266e-08
3.72224e-08
2.63388e-08
2.21184e-08
2.27757e-08
2.26139e-08
1.94487e-08
1.53592e-08
1.37515e-08
1.50935e-08
1.65162e-08
1.29748e-08
6.53863e-09
1.14257e-09
4.55285e-09
1.49232e-08
2.74601e-08
3.70882e-08
4.05463e-08
3.77548e-08
3.1847e-08
2.80491e-08
2.96815e-08
3.48567e-08
3.85948e-08
3.76883e-08
3.25087e-08
2.53311e-08
1.86179e-08
1.35924e-08
9.88714e-09
6.78356e-09
5.30397e-09
9.11249e-09
2.05884e-08
3.66684e-08
5.10805e-08
5.90616e-08
5.99879e-08
5.65643e-08
5.05062e-08
4.0679e-08
2.94045e-08
2.39606e-08
2.36457e-08
2.28596e-08
1.93357e-08
1.53421e-08
1.43387e-08
1.64829e-08
1.86007e-08
1.51806e-08
8.86337e-09
2.17545e-09
4.91782e-09
1.55682e-08
2.90408e-08
3.97058e-08
4.36866e-08
4.07327e-08
3.44739e-08
3.02792e-08
3.14122e-08
3.61022e-08
3.94981e-08
3.82994e-08
3.27699e-08
2.53258e-08
1.85306e-08
1.35487e-08
9.87525e-09
6.60617e-09
4.62262e-09
7.91504e-09
1.94007e-08
3.59431e-08
5.07451e-08
5.88199e-08
5.97826e-08
5.68481e-08
5.20197e-08
4.38131e-08
3.32921e-08
2.729e-08
2.60174e-08
2.43446e-08
1.99392e-08
1.55362e-08
1.51075e-08
1.82722e-08
2.12894e-08
1.81857e-08
1.16823e-08
3.64247e-09
5.14175e-09
1.5626e-08
2.99583e-08
4.21279e-08
4.72171e-08
4.42112e-08
3.73917e-08
3.26967e-08
3.30388e-08
3.67494e-08
3.96814e-08
3.85906e-08
3.32007e-08
2.56913e-08
1.87148e-08
1.35704e-08
9.79966e-09
6.39492e-09
3.96586e-09
6.59617e-09
1.78312e-08
3.44986e-08
4.92508e-08
5.68496e-08
5.70297e-08
5.37506e-08
4.98478e-08
4.38644e-08
3.5701e-08
3.05842e-08
2.87984e-08
2.64944e-08
2.15693e-08
1.66274e-08
1.64066e-08
2.01427e-08
2.37989e-08
2.12478e-08
1.46791e-08
5.5843e-09
5.49325e-09
1.53473e-08
3.0356e-08
4.42819e-08
5.11981e-08
4.84432e-08
4.05165e-08
3.49659e-08
3.47962e-08
3.75244e-08
3.93629e-08
3.79134e-08
3.2943e-08
2.6052e-08
1.92764e-08
1.38308e-08
9.72726e-09
6.18817e-09
3.63821e-09
5.92245e-09
1.68937e-08
3.33537e-08
4.73065e-08
5.35806e-08
5.21454e-08
4.75681e-08
4.41717e-08
4.08608e-08
3.64096e-08
3.37853e-08
3.23163e-08
2.94474e-08
2.40465e-08
1.87046e-08
1.85468e-08
2.23468e-08
2.60933e-08
2.41256e-08
1.74993e-08
7.76355e-09
5.76971e-09
1.41621e-08
2.93342e-08
4.52479e-08
5.4998e-08
5.34225e-08
4.4174e-08
3.68732e-08
3.61045e-08
3.83e-08
3.90848e-08
3.64674e-08
3.13567e-08
2.54019e-08
1.95825e-08
1.42701e-08
9.8096e-09
6.07546e-09
3.66863e-09
6.21278e-09
1.74744e-08
3.38758e-08
4.67096e-08
5.10205e-08
4.74915e-08
4.11686e-08
3.74892e-08
3.64046e-08
3.58847e-08
3.65584e-08
3.64709e-08
3.41529e-08
2.88066e-08
2.28e-08
2.17781e-08
2.4687e-08
2.75766e-08
2.61135e-08
1.92569e-08
9.41957e-09
5.45766e-09
1.13462e-08
2.54102e-08
4.2721e-08
5.60141e-08
5.75993e-08
4.7827e-08
3.82449e-08
3.62825e-08
3.85466e-08
3.90774e-08
3.53369e-08
2.92065e-08
2.37159e-08
1.90556e-08
1.44641e-08
1.00473e-08
6.34214e-09
4.36631e-09
7.6487e-09
1.9698e-08
3.66496e-08
4.8816e-08
5.14025e-08
4.61363e-08
3.80171e-08
3.26332e-08
3.16359e-08
3.34784e-08
3.68164e-08
3.8755e-08
3.79472e-08
3.39543e-08
2.84573e-08
2.6826e-08
2.84045e-08
2.92458e-08
2.70532e-08
1.97555e-08
1.01563e-08
4.62364e-09
7.63057e-09
1.93228e-08
3.62813e-08
5.19272e-08
5.74387e-08
4.9669e-08
3.88565e-08
3.55458e-08
3.83036e-08
3.98155e-08
3.56179e-08
2.79911e-08
2.18771e-08
1.8e-08
1.44332e-08
1.0539e-08
7.24277e-09
5.94191e-09
9.75268e-09
2.19158e-08
3.90214e-08
5.1194e-08
5.28698e-08
4.65995e-08
3.73873e-08
3.01954e-08
2.69808e-08
2.87815e-08
3.34562e-08
3.73799e-08
3.87354e-08
3.71215e-08
3.31338e-08
3.14424e-08
3.22749e-08
3.12911e-08
2.74345e-08
1.92355e-08
1.00519e-08
3.55571e-09
3.91804e-09
1.25157e-08
2.76783e-08
4.38204e-08
5.24205e-08
4.80788e-08
3.82159e-08
3.45779e-08
3.7603e-08
4.05442e-08
3.73554e-08
2.89599e-08
2.1649e-08
1.76293e-08
1.4786e-08
1.15301e-08
8.64438e-09
7.71557e-09
1.09584e-08
2.12516e-08
3.68182e-08
4.91342e-08
5.13675e-08
4.53217e-08
3.61344e-08
2.78455e-08
2.27721e-08
2.31603e-08
2.74806e-08
3.22569e-08
3.56028e-08
3.6754e-08
3.50086e-08
3.34e-08
3.36115e-08
3.19024e-08
2.69768e-08
1.84944e-08
1.00435e-08
3.14026e-09
1.17478e-09
6.49582e-09
1.87878e-08
3.37718e-08
4.41103e-08
4.35715e-08
3.62983e-08
3.33599e-08
3.63034e-08
4.00641e-08
3.92197e-08
3.23913e-08
2.45253e-08
1.91746e-08
1.52664e-08
1.13162e-08
8.35209e-09
8.01241e-09
1.10906e-08
1.93444e-08
3.28487e-08
4.52465e-08
4.91715e-08
4.41146e-08
3.47962e-08
2.58428e-08
1.95977e-08
1.86069e-08
2.22326e-08
2.70847e-08
3.13143e-08
3.40973e-08
3.40965e-08
3.26529e-08
3.2114e-08
3.03854e-08
2.57495e-08
1.72119e-08
1.00863e-08
3.73635e-09
2.70752e-10
2.2782e-09
1.06242e-08
2.2818e-08
3.32452e-08
3.60694e-08
3.24461e-08
3.09577e-08
3.41994e-08
3.85288e-08
3.95825e-08
3.49558e-08
2.73545e-08
2.0671e-08
1.52936e-08
1.05095e-08
7.60958e-09
8.28518e-09
1.23112e-08
1.94821e-08
3.05794e-08
4.22399e-08
4.75471e-08
4.35546e-08
3.41932e-08
2.44129e-08
1.72518e-08
1.54164e-08
1.88177e-08
2.39039e-08
2.87071e-08
3.27652e-08
3.40022e-08
3.21944e-08
2.9781e-08
2.76702e-08
2.34725e-08
1.65552e-08
1.05189e-08
5.11254e-09
1.67929e-09
1.79838e-09
5.74177e-09
1.24429e-08
1.94298e-08
2.33848e-08
2.38716e-08
2.5507e-08
3.06072e-08
3.63468e-08
3.89174e-08
3.62601e-08
2.96644e-08
2.23551e-08
1.62674e-08
1.10547e-08
7.88618e-09
8.96159e-09
1.37494e-08
2.04574e-08
2.90531e-08
3.84893e-08
4.3577e-08
4.0353e-08
3.17409e-08
2.27486e-08
1.60528e-08
1.35878e-08
1.65045e-08
2.18743e-08
2.70567e-08
3.14661e-08
3.3395e-08
3.17039e-08
2.83145e-08
2.54761e-08
2.18922e-08
1.55199e-08
1.15888e-08
7.90063e-09
5.43076e-09
4.99687e-09
6.25651e-09
8.23192e-09
1.00627e-08
1.14551e-08
1.34124e-08
1.8108e-08
2.57021e-08
3.34656e-08
3.7789e-08
3.71084e-08
3.17419e-08
2.4249e-08
1.7656e-08
1.23202e-08
8.86545e-09
9.58052e-09
1.43964e-08
2.09288e-08
2.84758e-08
3.64294e-08
4.08159e-08
3.78942e-08
2.95337e-08
2.0873e-08
1.4821e-08
1.26403e-08
1.51492e-08
2.05204e-08
2.60597e-08
3.04131e-08
3.19372e-08
2.9569e-08
2.52239e-08
2.16454e-08
1.88647e-08
1.38866e-08
1.2479e-08
1.10209e-08
1.01461e-08
1.04072e-08
1.08905e-08
9.98393e-09
7.90852e-09
6.14524e-09
6.38572e-09
1.00416e-08
1.72441e-08
2.59827e-08
3.2918e-08
3.51907e-08
3.26789e-08
2.69719e-08
2.06972e-08
1.51161e-08
1.09852e-08
1.03923e-08
1.38866e-08
1.9544e-08
2.64413e-08
3.39746e-08
3.84875e-08
3.58642e-08
2.76605e-08
1.90681e-08
1.35591e-08
1.19635e-08
1.42079e-08
1.93423e-08
2.50569e-08
2.91621e-08
3.01827e-08
2.75641e-08
2.24703e-08
1.77671e-08
1.52667e-08
1.163e-08
1.18474e-08
1.25172e-08
1.28454e-08
1.28135e-08
1.24693e-08
1.13444e-08
9.25299e-09
7.01154e-09
5.76678e-09
6.63577e-09
1.03272e-08
1.63363e-08
2.27018e-08
2.71295e-08
2.82319e-08
2.65551e-08
2.38582e-08
2.06109e-08
1.63845e-08
1.29557e-08
1.29064e-08
1.63443e-08
2.23559e-08
2.9856e-08
3.50332e-08
3.37718e-08
2.67465e-08
1.87643e-08
1.36976e-08
1.24752e-08
1.47857e-08
1.9274e-08
2.41122e-08
2.72434e-08
2.75446e-08
2.50536e-08
2.0494e-08
1.56388e-08
1.26619e-08
1.07113e-08
1.0277e-08
1.14959e-08
1.33315e-08
1.50982e-08
1.5904e-08
1.45642e-08
1.1574e-08
8.52049e-09
6.47428e-09
5.97204e-09
7.47679e-09
1.07787e-08
1.5362e-08
1.99809e-08
2.34848e-08
2.54378e-08
2.61094e-08
2.52818e-08
2.2185e-08
1.79916e-08
1.6075e-08
1.80513e-08
2.29358e-08
2.89747e-08
3.29183e-08
3.10845e-08
2.40326e-08
1.61899e-08
1.11297e-08
1.06943e-08
1.44153e-08
2.04397e-08
2.61945e-08
2.94127e-08
2.95323e-08
2.73513e-08
2.34746e-08
1.82123e-08
1.33545e-08
1.51165e-08
1.25203e-08
1.14448e-08
1.17412e-08
1.27962e-08
1.36448e-08
1.33407e-08
1.1553e-08
9.38773e-09
7.86887e-09
7.46382e-09
8.15606e-09
9.67964e-09
1.16516e-08
1.41104e-08
1.70001e-08
2.02219e-08
2.32879e-08
2.54817e-08
2.57077e-08
2.40511e-08
2.272e-08
2.34688e-08
2.6178e-08
2.9924e-08
3.21738e-08
3.00256e-08
2.33188e-08
1.50839e-08
9.14903e-09
8.04282e-09
1.20987e-08
1.91797e-08
2.64157e-08
3.10991e-08
3.16521e-08
2.95081e-08
2.65619e-08
2.29988e-08
1.8798e-08
1.71962e-08
1.43477e-08
1.26199e-08
1.16759e-08
1.13631e-08
1.15188e-08
1.15124e-08
1.09365e-08
9.91558e-09
9.31762e-09
9.86105e-09
1.13993e-08
1.32539e-08
1.46671e-08
1.53222e-08
1.57334e-08
1.66297e-08
1.8112e-08
1.96854e-08
2.05194e-08
2.0206e-08
1.95588e-08
2.00351e-08
2.21527e-08
2.53853e-08
2.78715e-08
2.73588e-08
2.26498e-08
1.56472e-08
1.01107e-08
8.40977e-09
1.10824e-08
1.67447e-08
2.31339e-08
2.77281e-08
2.90767e-08
2.79663e-08
2.6098e-08
2.38687e-08
2.07333e-08
1.84301e-08
1.42526e-08
1.10987e-08
9.24512e-09
8.82666e-09
9.603e-09
1.10912e-08
1.26591e-08
1.3655e-08
1.39878e-08
1.40861e-08
1.41561e-08
1.44145e-08
1.49198e-08
1.59804e-08
1.75174e-08
1.92471e-08
2.06951e-08
2.13508e-08
2.10336e-08
1.99023e-08
1.84305e-08
1.76349e-08
1.80358e-08
1.92667e-08
2.08793e-08
2.15878e-08
1.97414e-08
1.55203e-08
1.13846e-08
9.60097e-09
1.09924e-08
1.51361e-08
2.05248e-08
2.5011e-08
2.71304e-08
2.72187e-08
2.64204e-08
2.50944e-08
2.24995e-08
1.91254e-08
1.40557e-08
9.53653e-09
6.83641e-09
6.58091e-09
8.40593e-09
1.15479e-08
1.4936e-08
1.73125e-08
1.83147e-08
1.84646e-08
1.83664e-08
1.84533e-08
1.87386e-08
1.91684e-08
2.02149e-08
2.21302e-08
2.41057e-08
2.51803e-08
2.47593e-08
2.24682e-08
1.87576e-08
1.52067e-08
1.30966e-08
1.29305e-08
1.47123e-08
1.72396e-08
1.83957e-08
1.7521e-08
1.56608e-08
1.42484e-08
1.43131e-08
1.60716e-08
1.89951e-08
2.20586e-08
2.43198e-08
2.5645e-08
2.6165e-08
2.5525e-08
2.32654e-08
4.13311e-09
2.42751e-09
2.36148e-09
4.74539e-09
9.92927e-09
1.69747e-08
2.30163e-08
2.52131e-08
2.30465e-08
1.96871e-08
1.94122e-08
2.28303e-08
2.66211e-08
2.7718e-08
2.58843e-08
2.2475e-08
1.86652e-08
1.4912e-08
1.15487e-08
9.19392e-09
8.78757e-09
1.2357e-08
2.12387e-08
3.32452e-08
4.41284e-08
5.09376e-08
5.30782e-08
5.16246e-08
4.75872e-08
4.09965e-08
3.38488e-08
3.00663e-08
2.86024e-08
2.53683e-08
2.01973e-08
1.5187e-08
1.18451e-08
9.99439e-09
8.35192e-09
6.33661e-09
4.17082e-09
2.38901e-09
2.27326e-09
4.62795e-09
9.78978e-09
1.68311e-08
2.29069e-08
2.51607e-08
2.30421e-08
1.9702e-08
1.94295e-08
2.28569e-08
2.66621e-08
2.77631e-08
2.59139e-08
2.25003e-08
1.86986e-08
1.49513e-08
1.15736e-08
9.18947e-09
8.74199e-09
1.22494e-08
2.10533e-08
3.29675e-08
4.37637e-08
5.05121e-08
5.2608e-08
5.11174e-08
4.7075e-08
4.05363e-08
3.34967e-08
2.99124e-08
2.87496e-08
2.57858e-08
2.07369e-08
1.57218e-08
1.23003e-08
1.03375e-08
8.57754e-09
6.45934e-09
4.15622e-09
2.33719e-09
2.22207e-09
4.58417e-09
9.7572e-09
1.68461e-08
2.30043e-08
2.53246e-08
2.32036e-08
1.97903e-08
1.94461e-08
2.28614e-08
2.66965e-08
2.7823e-08
2.59883e-08
2.25963e-08
1.88243e-08
1.50723e-08
1.16433e-08
9.19435e-09
8.67735e-09
1.211e-08
2.08681e-08
3.27739e-08
4.35655e-08
5.03186e-08
5.24073e-08
5.08603e-08
4.67181e-08
4.00713e-08
3.29519e-08
2.95185e-08
2.88037e-08
2.63019e-08
2.14901e-08
1.64828e-08
1.29225e-08
1.07626e-08
8.80338e-09
6.53029e-09
4.073e-09
2.2654e-09
2.23105e-09
4.65923e-09
9.88275e-09
1.70711e-08
2.336e-08
2.57408e-08
2.35321e-08
1.99182e-08
1.94042e-08
2.27831e-08
2.6681e-08
2.78706e-08
2.60954e-08
2.27892e-08
1.90974e-08
1.53386e-08
1.17994e-08
9.23322e-09
8.62646e-09
1.20122e-08
2.08156e-08
3.28382e-08
4.37173e-08
5.05231e-08
5.26236e-08
5.10104e-08
4.67136e-08
3.97879e-08
3.23027e-08
2.88332e-08
2.86347e-08
2.67817e-08
2.23624e-08
1.74459e-08
1.37432e-08
1.13213e-08
9.06535e-09
6.55011e-09
3.93798e-09
2.18555e-09
2.33156e-09
4.89191e-09
1.01773e-08
1.74819e-08
2.39346e-08
2.63701e-08
2.39958e-08
2.00452e-08
1.92283e-08
2.25047e-08
2.64698e-08
2.77551e-08
2.61166e-08
2.29908e-08
1.94801e-08
1.575e-08
1.20703e-08
9.32236e-09
8.59571e-09
1.19874e-08
2.09732e-08
3.32647e-08
4.43575e-08
5.12557e-08
5.33517e-08
5.16895e-08
4.73137e-08
4.00968e-08
3.19481e-08
2.80282e-08
2.81759e-08
2.70438e-08
2.31907e-08
1.85521e-08
1.48146e-08
1.21176e-08
9.45847e-09
6.57173e-09
3.79588e-09
2.11452e-09
2.56169e-09
5.3455e-09
1.06677e-08
1.80699e-08
2.46979e-08
2.71943e-08
2.4615e-08
2.0217e-08
1.89294e-08
2.19376e-08
2.58748e-08
2.72528e-08
2.57743e-08
2.29642e-08
1.98118e-08
1.62408e-08
1.24468e-08
9.46218e-09
8.51479e-09
1.18205e-08
2.10144e-08
3.37832e-08
4.53883e-08
5.26266e-08
5.48489e-08
5.31941e-08
4.8962e-08
4.17276e-08
3.2773e-08
2.77597e-08
2.76842e-08
2.70399e-08
2.38248e-08
1.97282e-08
1.61962e-08
1.33034e-08
1.01418e-08
6.70285e-09
3.74511e-09
2.06866e-09
2.91654e-09
6.08654e-09
1.14072e-08
1.87734e-08
2.55542e-08
2.81791e-08
2.54701e-08
2.06144e-08
1.87309e-08
2.12228e-08
2.48499e-08
2.61134e-08
2.47936e-08
2.24548e-08
1.99033e-08
1.6725e-08
1.29244e-08
9.66461e-09
8.31241e-09
1.1184e-08
2.02286e-08
3.33708e-08
4.58529e-08
5.41484e-08
5.71445e-08
5.5803e-08
5.19477e-08
4.52992e-08
3.57611e-08
2.92048e-08
2.8086e-08
2.7244e-08
2.43695e-08
2.10173e-08
1.8076e-08
1.51487e-08
1.13858e-08
7.15691e-09
4.0032e-09
2.08428e-09
3.27987e-09
7.00615e-09
1.24394e-08
1.95699e-08
2.6274e-08
2.89879e-08
2.63616e-08
2.13255e-08
1.88671e-08
2.06748e-08
2.37812e-08
2.47493e-08
2.34226e-08
2.15889e-08
1.98006e-08
1.71998e-08
1.35282e-08
9.96978e-09
7.98712e-09
9.981e-09
1.8414e-08
3.17141e-08
4.517e-08
5.49851e-08
5.9367e-08
5.88333e-08
5.54246e-08
4.93526e-08
3.9917e-08
3.23536e-08
3.01326e-08
2.87068e-08
2.56121e-08
2.28679e-08
2.08492e-08
1.81185e-08
1.36317e-08
8.28729e-09
4.89351e-09
2.21239e-09
3.42507e-09
7.69443e-09
1.35268e-08
2.05697e-08
2.69666e-08
2.94296e-08
2.68397e-08
2.1847e-08
1.89731e-08
1.9948e-08
2.23162e-08
2.29912e-08
2.18799e-08
2.07213e-08
1.99601e-08
1.80864e-08
1.45498e-08
1.05723e-08
7.70834e-09
8.41924e-09
1.58457e-08
2.91134e-08
4.34194e-08
5.44421e-08
5.99018e-08
6.00618e-08
5.70175e-08
5.12476e-08
4.20418e-08
3.4303e-08
3.19611e-08
3.08958e-08
2.81097e-08
2.60887e-08
2.52036e-08
2.27841e-08
1.74478e-08
1.05886e-08
6.90024e-09
2.67275e-09
3.14075e-09
7.51496e-09
1.38561e-08
2.13352e-08
2.77025e-08
2.96625e-08
2.66802e-08
2.17019e-08
1.85956e-08
1.8748e-08
2.01647e-08
2.04825e-08
1.97946e-08
1.98573e-08
2.05093e-08
1.9657e-08
1.64336e-08
1.20285e-08
8.15221e-09
7.2896e-09
1.31414e-08
2.58102e-08
4.04904e-08
5.22285e-08
5.80774e-08
5.82983e-08
5.53097e-08
5.00043e-08
4.1498e-08
3.37301e-08
3.15341e-08
3.16022e-08
3.03693e-08
3.00861e-08
3.10538e-08
2.92548e-08
2.29892e-08
1.4445e-08
9.94005e-09
3.76955e-09
2.53442e-09
6.1725e-09
1.26838e-08
2.1037e-08
2.82309e-08
3.00588e-08
2.61996e-08
2.07926e-08
1.74366e-08
1.71256e-08
1.81112e-08
1.83974e-08
1.81703e-08
1.91191e-08
2.09716e-08
2.10903e-08
1.83704e-08
1.39167e-08
9.55166e-09
7.47485e-09
1.14012e-08
2.25798e-08
3.67793e-08
4.8721e-08
5.4577e-08
5.41756e-08
5.05534e-08
4.58577e-08
3.90867e-08
3.19583e-08
2.9279e-08
3.02836e-08
3.09564e-08
3.29636e-08
3.64784e-08
3.59452e-08
2.90548e-08
1.91246e-08
1.31114e-08
5.38629e-09
2.12836e-09
4.31528e-09
1.05581e-08
1.95788e-08