/*--------------------------------*- C++ -*----------------------------------*\
| =========                 |                                                 |
| \\      /  F ield         | OpenFOAM: The Open Source CFD Toolbox           |
|  \\    /   O peration     | Version:  2306                                  |
|   \\  /    A nd           | Website:  www.openfoam.com                      |
|    \\/     M anipulation  |                                                 |
\*---------------------------------------------------------------------------*/
FoamFile
{
    version     2.0;
    format      ascii;
    arch        "LSB;label=32;scalar=64";
    class       volVectorField;
    location    "10";
    object      UMean;
}
// * * * * * * * * * * * * * * * * * * * * * * * * * * * * * * * * * * * * * //

dimensions      [0 1 -1 0 0 0 0];

internalField   nonuniform List<vector> 
60000
(
(0.00863519 2.99782e-05 0.001033)
(0.00892253 2.5113e-05 0.00126637)
(0.00912709 2.02066e-05 0.00146097)
(0.00924922 1.5819e-05 0.0016473)
(0.00928042 1.19436e-05 0.00180789)
(0.00918727 9.16403e-06 0.00189576)
(0.00894239 7.55916e-06 0.00188582)
(0.00855584 6.21285e-06 0.00179014)
(0.00808759 3.79055e-06 0.00164207)
(0.00761693 1.64201e-07 0.00148533)
(0.00718775 -3.84086e-06 0.00135546)
(0.00680765 -6.80106e-06 0.00125679)
(0.00648175 -8.71573e-06 0.00116995)
(0.0062162 -9.58964e-06 0.00107415)
(0.0060215 -8.99035e-06 0.000959057)
(0.00590152 -7.10909e-06 0.000819794)
(0.00586749 -3.85233e-06 0.00065376)
(0.00593413 -6.55721e-07 0.000455334)
(0.0060953 1.97656e-06 0.000221431)
(0.00632581 4.15517e-06 -4.60118e-05)
(0.00661179 5.88994e-06 -0.000335569)
(0.00694781 6.61151e-06 -0.00062592)
(0.00731595 6.70598e-06 -0.000896293)
(0.00767015 6.23056e-06 -0.00113467)
(0.00794669 5.32213e-06 -0.00133224)
(0.00809872 3.84746e-06 -0.00149663)
(0.00812597 3.73789e-07 -0.00165425)
(0.00804153 -4.55909e-06 -0.00182359)
(0.00785767 -8.78918e-06 -0.00199704)
(0.00760504 -1.02174e-05 -0.00213751)
(0.00733478 -7.74396e-06 -0.0021913)
(0.0070894 -2.25596e-06 -0.00211563)
(0.0068989 5.02397e-06 -0.00191249)
(0.00679529 1.22018e-05 -0.00162797)
(0.00680041 1.87516e-05 -0.00129932)
(0.00692182 2.35485e-05 -0.000932734)
(0.00715035 2.76916e-05 -0.000531823)
(0.00747492 3.12412e-05 -0.000104407)
(0.00786875 3.334e-05 0.000330579)
(0.00827338 3.29921e-05 0.000722858)
(0.0261298 0.000123524 0.00274111)
(0.0271102 9.52123e-05 0.00332511)
(0.027824 7.07986e-05 0.00383463)
(0.0282593 5.5262e-05 0.00434207)
(0.0283912 5.12047e-05 0.00478711)
(0.0281288 5.829e-05 0.00503242)
(0.0274063 6.88272e-05 0.00500746)
(0.0262692 6.89036e-05 0.00475083)
(0.0248956 4.82423e-05 0.0043601)
(0.0235039 1.03691e-05 0.00394809)
(0.0222122 -3.01584e-05 0.00359781)
(0.0210411 -6.35928e-05 0.00331468)
(0.0200076 -8.91635e-05 0.00305518)
(0.019134 -0.000104955 0.00278174)
(0.0184596 -0.000108274 0.00247714)
(0.0180089 -0.000100663 0.00212215)
(0.0178224 -8.66471e-05 0.00169685)
(0.0179443 -7.1236e-05 0.00118259)
(0.0183638 -5.4842e-05 0.000572913)
(0.0190237 -3.95175e-05 -0.00012469)
(0.0198914 -2.87351e-05 -0.000884498)
(0.0209348 -2.33141e-05 -0.00165909)
(0.0220836 -2.11014e-05 -0.00238716)
(0.0232108 -2.33121e-05 -0.00301491)
(0.0241496 -3.17167e-05 -0.00350959)
(0.0247592 -4.98289e-05 -0.00390437)
(0.0250058 -7.82538e-05 -0.0042839)
(0.0248817 -0.000106231 -0.00470275)
(0.0243923 -0.000120268 -0.00514067)
(0.0236137 -0.000112275 -0.00550449)
(0.0227069 -7.96483e-05 -0.00565862)
(0.0218436 -3.00401e-05 -0.00548371)
(0.0211583 2.34279e-05 -0.00496873)
(0.0207615 6.90156e-05 -0.00421938)
(0.0207085 0.000103557 -0.00333273)
(0.0210063 0.000127512 -0.00234235)
(0.0216161 0.000145819 -0.00126875)
(0.0225186 0.000157102 -0.000140577)
(0.0236761 0.00015825 0.000983087)
(0.0249394 0.000146879 0.00197261)
(0.043912 0.000204097 0.00376248)
(0.0457261 0.000132177 0.00463837)
(0.0470974 7.51841e-05 0.00539975)
(0.0479873 4.46747e-05 0.00618625)
(0.0483594 4.61997e-05 0.00693189)
(0.0480814 7.6495e-05 0.00741673)
(0.047055 0.000114227 0.00749167)
(0.0453317 0.000125372 0.00718677)
(0.043146 8.50971e-05 0.00664929)
(0.0408239 1.43254e-07 0.00605176)
(0.0385972 -9.3521e-05 0.00551883)
(0.036546 -0.000172721 0.00506715)
(0.0347054 -0.000235361 0.00464733)
(0.0330995 -0.000275348 0.00422146)
(0.031793 -0.000285766 0.00377951)
(0.0308414 -0.000269555 0.00329535)
(0.0303201 -0.000240576 0.00272644)
(0.0303105 -0.000209529 0.00203178)
(0.0308257 -0.000176268 0.00119191)
(0.0318047 -0.000146471 0.000210255)
(0.0332037 -0.000128902 -0.000888679)
(0.0349563 -0.000123349 -0.00205143)
(0.0369378 -0.000126474 -0.00318267)
(0.038955 -0.000144058 -0.00416887)
(0.0407549 -0.000182129 -0.00492538)
(0.0420832 -0.000244582 -0.0054877)
(0.0428191 -0.000323652 -0.00599636)
(0.0428859 -0.000386376 -0.00656826)
(0.0422506 -0.000404422 -0.00721497)
(0.0410072 -0.000363296 -0.00783393)
(0.0394139 -0.000264299 -0.00822645)
(0.0377958 -0.000129606 -0.00816841)
(0.0364404 7.46547e-06 -0.00757492)
(0.0355733 0.000120158 -0.00656302)
(0.0352936 0.000201628 -0.00529012)
(0.0356088 0.000258957 -0.00384134)
(0.0364492 0.000302398 -0.00226002)
(0.037799 0.000323693 -0.000588795)
(0.0396487 0.000313712 0.00109286)
(0.0417922 0.0002717 0.00259408)
(0.0611577 0.000188479 0.00366874)
(0.0639036 5.83658e-05 0.00483078)
(0.0660914 -3.94234e-05 0.00579943)
(0.0676327 -8.39279e-05 0.00681983)
(0.0684783 -6.59923e-05 0.00789728)
(0.0684708 1.09854e-05 0.00876664)
(0.0674791 0.000104932 0.00915406)
(0.0655198 0.000156883 0.00900343)
(0.0627957 0.000119966 0.008476)
(0.0596591 -4.59245e-06 0.00780984)
(0.0564713 -0.000160075 0.00717857)
(0.0534561 -0.000299898 0.00660922)
(0.0507047 -0.000415133 0.00605255)
(0.0482297 -0.000493781 0.00548839)
(0.0461034 -0.000522762 0.00494209)
(0.0444124 -0.000505483 0.0044097)
(0.0432694 -0.000466473 0.00383617)
(0.0428005 -0.00042801 0.00314711)
(0.0430808 -0.000390045 0.00229084)
(0.0440983 -0.000360681 0.00124907)
(0.0458325 -0.00035378 2.53072e-05)
(0.0481886 -0.000364659 -0.00135418)
(0.0509852 -0.000386545 -0.00279494)
(0.0539725 -0.000432734 -0.00412447)
(0.05683 -0.000519502 -0.00516445)
(0.0591759 -0.00064792 -0.00589543)
(0.0607538 -0.000799248 -0.00648534)
(0.0613715 -0.000906882 -0.00713394)
(0.0609286 -0.000919406 -0.00793762)
(0.059496 -0.00081697 -0.00885538)
(0.0573645 -0.000614889 -0.00967801)
(0.0549693 -0.000360926 -0.0100602)
(0.0527753 -0.000113821 -0.00976316)
(0.0511956 8.45304e-05 -0.00883587)
(0.0504284 0.000224275 -0.007468)
(0.0505081 0.000320135 -0.00581215)
(0.0513304 0.000393972 -0.00395029)
(0.0528791 0.000427525 -0.00193834)
(0.0552025 0.00040019 0.000150692)
(0.0581058 0.000315066 0.00210037)
(0.0766503 -3.61703e-05 0.0018905)
(0.0802498 -0.000228765 0.0033957)
(0.0833142 -0.000372746 0.00459167)
(0.0856934 -0.000427339 0.00581514)
(0.087314 -0.000375612 0.00723306)
(0.0879888 -0.000219663 0.00863914)
(0.0875417 -2.31053e-05 0.00963466)
(0.0859133 0.000117736 0.00996097)
(0.0831913 0.000133417 0.0096927)
(0.0796327 8.41488e-06 0.009132)
(0.075651 -0.000194097 0.00854635)
(0.0716775 -0.000400011 0.0079783)
(0.0679636 -0.000579351 0.00735046)
(0.0645315 -0.000709817 0.00665705)
(0.061431 -0.000771535 0.00599212)
(0.0587596 -0.00076724 0.00542932)
(0.0566565 -0.00073147 0.00494505)
(0.0552819 -0.000704256 0.00444014)
(0.054787 -0.000692113 0.0038158)
(0.0552737 -0.000705453 0.00301692)
(0.0568334 -0.000760535 0.00201181)
(0.0594174 -0.000839806 0.000754531)
(0.0628107 -0.000916521 -0.000744973)
(0.066695 -0.00101004 -0.00231326)
(0.0706901 -0.00115951 -0.00366029)
(0.0742852 -0.00137174 -0.00463429)
(0.077052 -0.0016166 -0.00535808)
(0.0786523 -0.00178389 -0.00609189)
(0.0789144 -0.00177949 -0.00703223)
(0.0778862 -0.00157474 -0.00825477)
(0.0758109 -0.00120913 -0.00964121)
(0.0730445 -0.00077771 -0.0107904)
(0.0700833 -0.000390097 -0.0112549)
(0.0675704 -0.000104138 -0.0109061)
(0.0659486 8.33276e-05 -0.00989216)
(0.0654006 0.000200142 -0.00841701)
(0.0658267 0.000288807 -0.00661438)
(0.0671861 0.00033005 -0.00456593)
(0.0695773 0.000283286 -0.00232317)
(0.0728886 0.000150839 -6.95838e-05)
(0.0890069 -0.00065645 -0.00211842)
(0.0930495 -0.000902381 -0.000221464)
(0.0967194 -0.00110326 0.00131196)
(0.0998946 -0.00117368 0.00275412)
(0.102497 -0.0010665 0.00445373)
(0.1043 -0.000787327 0.00642855)
(0.105054 -0.000417795 0.0082983)
(0.104578 -9.44061e-05 0.00955104)
(0.102743 7.22601e-05 0.00996451)
(0.0995679 2.56747e-05 0.00978745)
(0.0953716 -0.000172419 0.0094383)
(0.090723 -0.000429045 0.00905849)
(0.0861502 -0.000677376 0.00851854)
(0.081802 -0.000866611 0.00776768)
(0.0777073 -0.000968047 0.00695854)
(0.0739408 -0.000985366 0.00629247)
(0.0706385 -0.000963937 0.00585608)
(0.0679511 -0.000964339 0.0055767)
(0.0660552 -0.00101398 0.00531997)
(0.0651627 -0.00113587 0.00499821)
(0.0655545 -0.00135109 0.00456609)
(0.0673987 -0.00161613 0.00391277)
(0.0706301 -0.00185996 0.0028773)
(0.0749639 -0.00208197 0.00145658)
(0.0799389 -0.00232886 -5.75764e-05)
(0.0848622 -0.00263465 -0.00133377)
(0.0890832 -0.00297921 -0.00233755)
(0.0920803 -0.00321145 -0.00329887)
(0.0936168 -0.00317791 -0.00444367)
(0.0937466 -0.00282458 -0.00592322)
(0.0927187 -0.00221486 -0.00779378)
(0.0906994 -0.00149701 -0.00980756)
(0.0878135 -0.000863322 -0.0114136)
(0.0846372 -0.000440993 -0.0121908)
(0.081915 -0.000227526 -0.0120951)
(0.0802172 -0.00014397 -0.0113249)
(0.0796299 -0.000100105 -0.010077)
(0.0801412 -0.000104161 -0.00847342)
(0.0819349 -0.000213116 -0.00652688)
(0.0850444 -0.000412974 -0.00431699)
(0.0977893 -0.0017997 -0.0078244)
(0.101563 -0.00208291 -0.00569872)
(0.105004 -0.00233344 -0.00375618)
(0.108186 -0.00246742 -0.00202747)
(0.111379 -0.00233986 -0.00018531)
(0.114352 -0.00191815 0.00210702)
(0.116705 -0.00132942 0.00473877)
(0.118167 -0.000744512 0.00714378)
(0.118452 -0.000281625 0.00871675)
(0.117041 -6.16882e-05 0.00937069)
(0.113827 -0.000123752 0.00953076)
(0.109357 -0.000368081 0.00954161)
(0.104409 -0.000674357 0.00932047)
(0.0994263 -0.000925219 0.00872015)
(0.0945409 -0.00106218 0.00786172)
(0.0898238 -0.00109249 0.00703968)
(0.0853989 -0.00107627 0.00649635)
(0.0813728 -0.00109621 0.00626318)
(0.0778589 -0.00121515 0.00621089)
(0.0750861 -0.00149472 0.00624644)
(0.0734817 -0.00197434 0.00637514)
(0.0735121 -0.00256142 0.0065101)
(0.0754197 -0.00310348 0.00637669)
(0.0791218 -0.00356023 0.00572163)
(0.0842893 -0.00398177 0.00458296)
(0.0901543 -0.00439998 0.00325664)
(0.0957245 -0.00482811 0.00195595)
(0.100234 -0.00511123 0.000614241)
(0.103356 -0.00504125 -0.000873355)
(0.105071 -0.00453508 -0.00254565)
(0.10564 -0.00366572 -0.00454214)
(0.105331 -0.0026094 -0.00698573)
(0.103946 -0.00161178 -0.00959483)
(0.101394 -0.000906376 -0.0117975)
(0.0982052 -0.000595604 -0.0131511)
(0.0953411 -0.000577731 -0.0135956)
(0.0933494 -0.000654381 -0.0133433)
(0.0923304 -0.00080009 -0.0126331)
(0.0925529 -0.00108345 -0.0114922)
(0.0944397 -0.00145476 -0.00985681)
(0.105415 -0.00319883 -0.0127898)
(0.108225 -0.00355477 -0.010801)
(0.110718 -0.00379248 -0.00870218)
(0.112622 -0.00399261 -0.00675746)
(0.114792 -0.00397555 -0.00489916)
(0.117757 -0.00354283 -0.00269893)
(0.121064 -0.00279637 0.000119181)
(0.124041 -0.0019741 0.00321217)
(0.126445 -0.00123303 0.00584156)
(0.127959 -0.000649124 0.00751883)
(0.127591 -0.000333246 0.00844235)
(0.125028 -0.000339699 0.0090179)
(0.120967 -0.000583542 0.00929767)
(0.116148 -0.000869471 0.00911956)
(0.110995 -0.00104288 0.0085048)
(0.105747 -0.00107537 0.00770414)
(0.100633 -0.00103965 0.0070278)
(0.0957906 -0.00104708 0.00663971)
(0.0912323 -0.00119556 0.00650224)
(0.0870766 -0.00158708 0.00656173)
(0.0837152 -0.00230393 0.0069048)
(0.0817223 -0.00323043 0.00758559)
(0.0816658 -0.0040994 0.00831815)
(0.0838326 -0.00480866 0.00864382)
(0.0880751 -0.00541371 0.00833829)
(0.0937694 -0.00594922 0.00747486)
(0.0997384 -0.00643914 0.00621224)
(0.104839 -0.00677415 0.00461649)
(0.108668 -0.00673293 0.00277059)
(0.111371 -0.00620078 0.000908509)
(0.113304 -0.00523945 -0.000911347)
(0.114762 -0.00397168 -0.0030701)
(0.115565 -0.00262382 -0.00588864)
(0.115084 -0.00151006 -0.00909058)
(0.113014 -0.000916361 -0.0119958)
(0.110035 -0.000870389 -0.0140201)
(0.107187 -0.00107353 -0.0150522)
(0.10498 -0.00138024 -0.0153688)
(0.103607 -0.00189963 -0.0151436)
(0.103604 -0.00259669 -0.0142999)
(0.114004 -0.00426425 -0.0147546)
(0.115782 -0.0047932 -0.0132013)
(0.117434 -0.00500015 -0.0113622)
(0.11807 -0.00518747 -0.00962126)
(0.11824 -0.00533817 -0.00803591)
(0.119387 -0.00512247 -0.00626542)
(0.122022 -0.00442031 -0.0038484)
(0.125236 -0.00349552 -0.000799185)
(0.128173 -0.00263569 0.00225228)
(0.130805 -0.0019076 0.00461697)
(0.132981 -0.00128311 0.00617331)
(0.133624 -0.000875 0.00726929)
(0.132225 -0.000792427 0.00803307)
(0.129201 -0.000906376 0.00838205)
(0.125048 -0.0010128 0.00831575)
(0.120163 -0.0010153 0.00794663)
(0.115059 -0.000944991 0.00745498)
(0.110194 -0.000906117 0.00702197)
(0.105609 -0.00102361 0.00673444)
(0.10114 -0.00143141 0.00664691)
(0.0969139 -0.00224667 0.00691588)
(0.0933913 -0.00337707 0.00773408)
(0.0912976 -0.00449732 0.0089337)
(0.0913967 -0.00542631 0.00997211)
(0.0939872 -0.00619909 0.0103572)
(0.0986068 -0.00685993 0.00996343)
(0.104011 -0.00737592 0.00886632)
(0.108602 -0.00767983 0.00726961)
(0.111589 -0.00763298 0.0054615)
(0.113312 -0.00713829 0.00382284)
(0.114611 -0.00625619 0.00251463)
(0.116255 -0.00506082 0.00114371)
(0.11836 -0.00362679 -0.00100753)
(0.120151 -0.00218675 -0.00423504)
(0.12056 -0.00118597 -0.00801067)
(0.119256 -0.000927919 -0.0114075)
(0.117044 -0.00118927 -0.013775)
(0.115069 -0.00164546 -0.0151199)
(0.113819 -0.00234895 -0.0157147)
(0.113337 -0.00332795 -0.0156285)
(0.120544 -0.00469769 -0.0131875)
(0.122333 -0.00545398 -0.0124115)
(0.124102 -0.00567151 -0.011321)
(0.124738 -0.00574179 -0.0103051)
(0.123958 -0.00593378 -0.00942967)
(0.123069 -0.00603043 -0.00840235)
(0.1238 -0.00566459 -0.0067517)
(0.126277 -0.00483204 -0.00423347)
(0.129173 -0.00394166 -0.00124793)
(0.13169 -0.00327199 0.00144055)
(0.134073 -0.00272974 0.00345212)
(0.136288 -0.00216498 0.00494249)
(0.137287 -0.00173641 0.0060425)
(0.136506 -0.00151258 0.00672595)
(0.134245 -0.00134594 0.00712719)
(0.130764 -0.00114456 0.00736741)
(0.126422 -0.000977472 0.00743249)
(0.122079 -0.000922142 0.00733515)
(0.118335 -0.00100666 0.0071447)
(0.114899 -0.00131903 0.00696827)
(0.111208 -0.00204706 0.00702129)
(0.107215 -0.00319005 0.00762314)
(0.103594 -0.00443442 0.00880049)
(0.101593 -0.00552662 0.010047)
(0.102143 -0.00645358 0.0107086)
(0.105144 -0.00723876 0.0104523)
(0.109358 -0.00775443 0.00932029)
(0.11302 -0.0079201 0.0076807)
(0.115029 -0.00769495 0.00603007)
(0.115407 -0.00712569 0.00487343)
(0.11507 -0.00634938 0.0043999)
(0.115176 -0.00539108 0.0041468)
(0.116414 -0.00415116 0.00319878)
(0.11853 -0.00265717 0.000869371)
(0.120467 -0.00130491 -0.00267422)
(0.121047 -0.000652391 -0.00647927)
(0.120224 -0.00079244 -0.00955833)
(0.119081 -0.00139677 -0.0115725)
(0.118778 -0.00230709 -0.0127377)
(0.119341 -0.00350022 -0.0132872)
(0.124054 -0.00449092 -0.00962859)
(0.125996 -0.00551312 -0.00956571)
(0.128155 -0.00587859 -0.00938368)
(0.129731 -0.00587447 -0.00939141)
(0.129765 -0.00594234 -0.00954327)
(0.128357 -0.00618846 -0.00947692)
(0.12727 -0.00624369 -0.00872176)
(0.128076 -0.00578472 -0.00698408)
(0.130529 -0.00498562 -0.00439343)
(0.13319 -0.0043458 -0.00162261)
(0.13544 -0.00397888 0.000750963)
(0.137733 -0.00358453 0.00266209)
(0.139838 -0.00304165 0.00418162)
(0.140611 -0.00253018 0.00519)
(0.139804 -0.00207264 0.00582254)
(0.13789 -0.00155795 0.00639671)
(0.134974 -0.00111252 0.00695367)
(0.13139 -0.000996337 0.00733711)
(0.128141 -0.00122538 0.00744727)
(0.125784 -0.00162957 0.0073185)
(0.123728 -0.00222656 0.00715602)
(0.120984 -0.00312915 0.00734222)
(0.117303 -0.00421754 0.00813754)
(0.113885 -0.00532679 0.00922779)
(0.112358 -0.00638221 0.0099194)
(0.113334 -0.00726922 0.00967794)
(0.115887 -0.00775157 0.00845356)
(0.118398 -0.00771357 0.0066932)
(0.119677 -0.00718827 0.00504005)
(0.119466 -0.00635533 0.00407783)
(0.118165 -0.00551625 0.00413814)
(0.116728 -0.00476349 0.00485835)
(0.116276 -0.0038729 0.00516569)
(0.117243 -0.00263132 0.00409143)
(0.119232 -0.00120872 0.00149186)
(0.120951 -0.000195404 -0.00185304)
(0.121574 -5.62304e-05 -0.00488373)
(0.121453 -0.000649555 -0.00706444)
(0.121613 -0.00170456 -0.00845263)
(0.122532 -0.00306698 -0.0092723)
(0.127206 -0.00362255 -0.00714051)
(0.128831 -0.00492225 -0.00723675)
(0.130884 -0.00561852 -0.00742762)
(0.132934 -0.00574524 -0.00797057)
(0.134068 -0.00571405 -0.00880991)
(0.133507 -0.00588524 -0.00952712)
(0.131857 -0.00618999 -0.00959601)
(0.130946 -0.00622839 -0.00865689)
(0.131977 -0.00582697 -0.00672095)
(0.134382 -0.00534377 -0.00421783)
(0.136706 -0.00509428 -0.00172746)
(0.138719 -0.0049232 0.00049522)
(0.140842 -0.00445443 0.00242921)
(0.14249 -0.00371772 0.00386605)
(0.142789 -0.00296288 0.00473092)
(0.141952 -0.00220215 0.00539539)
(0.140467 -0.00146745 0.00613567)
(0.138339 -0.0010988 0.00678214)
(0.135907 -0.00133359 0.0070493)
(0.134052 -0.00200271 0.00688867)
(0.133061 -0.00277007 0.00651095)
(0.132078 -0.00348774 0.0062953)
(0.129926 -0.0041507 0.00661792)
(0.126623 -0.0049286 0.00741649)
(0.123669 -0.00592794 0.00813885)
(0.122463 -0.00690571 0.00812238)
(0.122909 -0.00742627 0.00705853)
(0.123895 -0.00726265 0.00528834)
(0.124436 -0.00650932 0.00355695)
(0.124133 -0.00540414 0.00253298)
(0.122874 -0.00431021 0.00256277)
(0.12095 -0.00351638 0.00352113)
(0.119279 -0.00289511 0.00455499)
(0.118842 -0.00204684 0.00453015)
(0.119992 -0.000868991 0.00296862)
(0.122067 0.000268419 0.000365434)
(0.123898 0.000713111 -0.00230401)
(0.124982 0.000322838 -0.0044228)
(0.125551 -0.000657596 -0.00588275)
(0.126163 -0.00205454 -0.00675959)
(0.131703 -0.00254585 -0.00723613)
(0.132891 -0.00408398 -0.00729476)
(0.134508 -0.00514437 -0.00735085)
(0.136191 -0.00551642 -0.00768026)
(0.137535 -0.00542377 -0.0083215)
(0.137763 -0.00537446 -0.00907131)
(0.136553 -0.00565557 -0.00948748)
(0.134858 -0.0060451 -0.00915012)
(0.13439 -0.00618436 -0.00788826)
(0.1357 -0.00611119 -0.00588841)
(0.137752 -0.00606245 -0.00357967)
(0.139467 -0.00608027 -0.00130117)
(0.140991 -0.00580073 0.00084922)
(0.14244 -0.00502505 0.00263453)
(0.143125 -0.00399536 0.00382252)
(0.142776 -0.00296005 0.00462054)
(0.141914 -0.00202581 0.00536124)
(0.14088 -0.00144019 0.00592623)
(0.139668 -0.00148055 0.0059388)
(0.138609 -0.0021385 0.00538007)
(0.13828 -0.00304167 0.00459652)
(0.138367 -0.00375654 0.0040107)
(0.137834 -0.00414962 0.00402642)
(0.135958 -0.00441438 0.00467675)
(0.133126 -0.00495211 0.0055331)
(0.130551 -0.00569104 0.00593995)
(0.12905 -0.00615205 0.00536735)
(0.128462 -0.00599384 0.0039033)
(0.128238 -0.00530536 0.00224875)
(0.127975 -0.00426252 0.00113614)
(0.127318 -0.00309121 0.000881193)
(0.125905 -0.00212151 0.00146577)
(0.124035 -0.00151156 0.00245378)
(0.122658 -0.000999234 0.00293568)
(0.122724 -0.000305744 0.00215071)
(0.124434 0.000540461 0.000195338)
(0.126909 0.00109033 -0.00214993)
(0.129047 0.000988646 -0.00423562)
(0.13034 0.000286573 -0.00580707)
(0.131003 -0.000960593 -0.00680662)
(0.138096 -0.00165376 -0.00873889)
(0.139025 -0.00317611 -0.00882746)
(0.139916 -0.00441973 -0.0087514)
(0.140657 -0.00500803 -0.00869108)
(0.14133 -0.00496323 -0.00870563)
(0.141642 -0.00471302 -0.00885856)
(0.140899 -0.00477849 -0.00908485)
(0.139165 -0.00523192 -0.00902465)
(0.137801 -0.00577678 -0.00826061)
(0.137989 -0.00614959 -0.00671069)
(0.139399 -0.00637373 -0.00470039)
(0.140813 -0.00652196 -0.00260225)
(0.141606 -0.00639 -0.000502108)
(0.141926 -0.00567641 0.00152613)
(0.141687 -0.00455659 0.00317652)
(0.140833 -0.00341139 0.00432857)
(0.139864 -0.00242691 0.00508608)
(0.139219 -0.00171136 0.00536241)
(0.138771 -0.00155358 0.00495692)
(0.138354 -0.00207483 0.00398563)
(0.138409 -0.00300619 0.00287401)
(0.139001 -0.00377194 0.00206823)
(0.139336 -0.00414584 0.00198949)
(0.138715 -0.00421593 0.00270197)
(0.13704 -0.00427801 0.00371937)
(0.134848 -0.004451 0.00436858)
(0.133101 -0.00454379 0.00414554)
(0.13225 -0.00434526 0.00306089)
(0.132023 -0.00384604 0.00167513)
(0.131983 -0.00309098 0.000603953)
(0.131891 -0.00210556 7.31682e-05)
(0.131355 -0.00104194 1.37054e-05)
(0.1301 -0.000222564 0.000353464)
(0.12868 0.000236156 0.000739107)
(0.128096 0.000485552 0.000413566)
(0.129078 0.00073615 -0.00102128)
(0.131378 0.00100748 -0.00311344)
(0.133956 0.00101566 -0.00520459)
(0.135947 0.000609479 -0.00695432)
(0.137191 -0.000290062 -0.00816306)
(0.143082 -0.00105705 -0.00886138)
(0.144429 -0.00221573 -0.00922441)
(0.145123 -0.00332887 -0.00928063)
(0.145197 -0.0040522 -0.0091931)
(0.14519 -0.0041753 -0.0089491)
(0.145315 -0.00389263 -0.00867845)
(0.145006 -0.00371416 -0.00858213)
(0.143739 -0.00401138 -0.00855537)
(0.142152 -0.00470591 -0.00811603)
(0.141483 -0.00543346 -0.00695118)
(0.142015 -0.00592276 -0.00525712)
(0.142822 -0.00615379 -0.00345492)
(0.142898 -0.00603991 -0.00164817)
(0.142051 -0.0053724 0.000278963)
(0.140607 -0.00427264 0.00206763)
(0.138991 -0.00317582 0.0033012)
(0.137751 -0.00232591 0.00388268)
(0.137187 -0.00171193 0.00389158)
(0.137085 -0.00149672 0.00336735)
(0.137085 -0.00191409 0.00245934)
(0.137321 -0.00286049 0.00151092)
(0.13805 -0.00375196 0.000909996)
(0.138756 -0.00417269 0.00096063)
(0.138748 -0.004195 0.00170443)
(0.137964 -0.00398185 0.00268446)
(0.136841 -0.00365963 0.00330859)
(0.135973 -0.00330365 0.0032616)
(0.135508 -0.00297325 0.00259617)
(0.135199 -0.00266243 0.00171905)
(0.13488 -0.00226855 0.00107339)
(0.134684 -0.00161305 0.00075479)
(0.134507 -0.000680338 0.000548129)
(0.133905 0.000260076 0.000442217)
(0.132968 0.000853858 0.000541492)
(0.132428 0.00101037 0.000388481)
(0.13294 0.000914324 -0.000644496)
(0.134615 0.000862974 -0.00246882)
(0.136965 0.00081055 -0.00450792)
(0.139334 0.000541675 -0.00639995)
(0.141365 -8.55968e-05 -0.00792398)
(0.142575 -0.000551881 -0.00603737)
(0.145076 -0.00129699 -0.00689662)
(0.146802 -0.00204071 -0.00751833)
(0.14746 -0.00265346 -0.00804703)
(0.14754 -0.00288227 -0.00829884)
(0.147745 -0.0026719 -0.00820946)
(0.14801 -0.00237902 -0.00801029)
(0.147658 -0.00245615 -0.0079001)
(0.146537 -0.00304529 -0.00764049)
(0.14551 -0.00389105 -0.00684582)
(0.145252 -0.0046309 -0.00547613)
(0.145373 -0.00505492 -0.00386802)
(0.144991 -0.00502365 -0.00230979)
(0.14377 -0.00439963 -0.000768935)
(0.142038 -0.00332739 0.000663064)
(0.140338 -0.00229805 0.00166577)
(0.1391 -0.00161475 0.00208396)
(0.138519 -0.00124368 0.00201665)
(0.138514 -0.00113429 0.00157375)
(0.138801 -0.00153024 0.000872066)
(0.139199 -0.00246739 0.000167567)
(0.139823 -0.00349419 -0.000256787)
(0.140417 -0.00401264 -0.000211476)
(0.140484 -0.00402878 0.000395516)
(0.139964 -0.00376629 0.00138828)
(0.139229 -0.00330631 0.00231478)
(0.13851 -0.00272067 0.00277171)
(0.137661 -0.00213219 0.00272705)
(0.136533 -0.00170159 0.00256622)
(0.135342 -0.00145912 0.00263233)
(0.134495 -0.00115601 0.00282359)
(0.134082 -0.00051615 0.00286717)
(0.133686 0.0003805 0.00278978)
(0.132997 0.00110549 0.0028742)
(0.132341 0.00142433 0.00286923)
(0.132207 0.00141769 0.00213068)
(0.132942 0.00128962 0.000602768)
(0.134618 0.00110267 -0.00122993)
(0.137046 0.000733109 -0.00304116)
(0.139805 0.000158276 -0.0047191)
(0.140499 -0.000448732 -0.00263021)
(0.143763 -0.000719117 -0.00384734)
(0.146524 -0.000923049 -0.00497173)
(0.148185 -0.00112223 -0.00603616)
(0.148857 -0.00117192 -0.0067966)
(0.149303 -0.000964749 -0.00706105)
(0.149996 -0.00067703 -0.00699941)
(0.150609 -0.000642851 -0.00687785)
(0.150558 -0.00109173 -0.00668519)
(0.149855 -0.00192545 -0.00617976)
(0.14904 -0.00285457 -0.00522579)
(0.148268 -0.00354673 -0.00398547)
(0.147136 -0.00373443 -0.00268346)
(0.145496 -0.00326457 -0.00139049)
(0.143723 -0.00231325 -0.000150818)
(0.142224 -0.00140795 0.00084491)
(0.141149 -0.000907265 0.00143883)
(0.140538 -0.000755136 0.00158092)
(0.140392 -0.000749681 0.00131769)
(0.140545 -0.00103368 0.000764474)
(0.140774 -0.00182113 0.000191415)
(0.141151 -0.00282107 -0.000146992)
(0.1417 -0.00342397 -9.21006e-05)
(0.14209 -0.00346012 0.000474911)
(0.142032 -0.00317426 0.00149227)
(0.141495 -0.00266494 0.00260951)
(0.140517 -0.00196231 0.00342079)
(0.139058 -0.00119952 0.00386557)
(0.137303 -0.000695739 0.00419941)
(0.13572 -0.000605391 0.00461133)
(0.134702 -0.000722153 0.00492864)
(0.134242 -0.00059713 0.00497088)
(0.133924 -3.54022e-05 0.00482204)
(0.133311 0.000731707 0.00473004)
(0.132423 0.0013651 0.00464191)
(0.131666 0.00168256 0.00411557)
(0.131514 0.00162528 0.00299573)
(0.132382 0.00124556 0.00157937)
(0.134403 0.000629295 0.00016401)
(0.137264 1.40798e-06 -0.00124713)
(0.13934 0.000883678 0.000913159)
(0.142526 0.000703538 -0.000565684)
(0.14545 0.000719745 -0.00205385)
(0.147603 0.000824967 -0.00354342)
(0.148861 0.00103035 -0.00478453)
(0.14971 0.00127187 -0.00545219)
(0.150623 0.00137251 -0.00559)
(0.151574 0.00118385 -0.00551158)
(0.152221 0.000746005 -0.00538665)
(0.152309 0.000162241 -0.00510314)
(0.151823 -0.000545942 -0.00452114)
(0.150803 -0.00131521 -0.00372032)
(0.149226 -0.0018323 -0.0028581)
(0.14731 -0.00176333 -0.00190547)
(0.145512 -0.00118703 -0.000785996)
(0.144086 -0.000599734 0.000350781)
(0.142957 -0.000405612 0.00128457)
(0.142015 -0.000490052 0.00188389)
(0.141367 -0.000560927 0.00213502)
(0.141152 -0.000718143 0.00211213)
(0.141296 -0.00134435 0.00202043)
(0.141701 -0.00232425 0.00203177)
(0.142339 -0.00304579 0.00219069)
(0.142984 -0.00313197 0.00258795)
(0.1432 -0.00276282 0.00336289)
(0.142613 -0.00216318 0.0043302)
(0.14117 -0.00139816 0.00511236)
(0.139227 -0.000563984 0.00562279)
(0.13736 6.70737e-05 0.00609705)
(0.135972 0.000296793 0.00657109)
(0.135122 0.000217269 0.00677398)
(0.134687 0.000166289 0.00660614)
(0.13436 0.000505736 0.006363)
(0.133774 0.00126622 0.00629044)
(0.13283 0.00215548 0.00629159)
(0.131864 0.00281875 0.00601868)
(0.131416 0.00304793 0.00534115)
(0.131945 0.00278179 0.0044575)
(0.133642 0.00210805 0.00348523)
(0.136268 0.0013669 0.00231343)
(0.139788 0.00227118 0.00268168)
(0.142883 0.00206787 0.00125759)
(0.145678 0.00212866 -0.000188246)
(0.147853 0.00228419 -0.00161511)
(0.149362 0.0024822 -0.0029311)
(0.150507 0.00269712 -0.00391236)
(0.151568 0.00275068 -0.00445892)
(0.152487 0.00240366 -0.00471966)
(0.15309 0.00171473 -0.00481591)
(0.153314 0.000989168 -0.00470973)
(0.153212 0.000443375 -0.00434772)
(0.152807 1.61851e-05 -0.00383271)
(0.152031 -0.000330089 -0.00325756)
(0.150935 -0.000451422 -0.00254611)
(0.14983 -0.000312263 -0.00158659)
(0.148816 -0.000142907 -0.000391439)
(0.147729 -0.000124167 0.000943744)
(0.146468 -0.000137661 0.00220001)
(0.14531 -3.91865e-05 0.00310179)
(0.144671 1.80569e-05 0.00343848)
(0.144636 -0.000306057 0.00345097)
(0.145025 -0.00104345 0.00356579)
(0.145651 -0.00172654 0.00389567)
(0.146222 -0.00187396 0.00420249)
(0.146283 -0.00146023 0.004491)
(0.145385 -0.000721371 0.0049054)
(0.143474 0.000228754 0.00540264)
(0.14106 0.00126362 0.00580017)
(0.138896 0.00207208 0.0060005)
(0.137354 0.00241752 0.00596491)
(0.136292 0.00240045 0.00564907)
(0.13548 0.00230313 0.00522413)
(0.134791 0.00249609 0.00498319)
(0.134069 0.00311183 0.005057)
(0.133224 0.003908 0.00535684)
(0.132398 0.00452485 0.00565103)
(0.132035 0.0047179 0.00569626)
(0.132576 0.00440013 0.00543135)
(0.134214 0.00366661 0.0048601)
(0.136765 0.00284277 0.00393547)
(0.140053 0.00281683 0.00219243)
(0.14258 0.00220976 0.00133966)
(0.144882 0.00205769 0.000443108)
(0.146695 0.00213085 -0.000571962)
(0.148018 0.00228089 -0.00165917)
(0.14915 0.00249357 -0.00265452)
(0.150411 0.00264621 -0.00341589)
(0.151809 0.00251066 -0.00394936)
(0.153022 0.00195925 -0.00432134)
(0.153751 0.00114753 -0.00453819)
(0.153964 0.000348761 -0.00451856)
(0.153878 -0.000349765 -0.0042205)
(0.153716 -0.000992791 -0.00368687)
(0.153516 -0.0014752 -0.00300235)
(0.153192 -0.00164985 -0.00221099)
(0.152637 -0.00160808 -0.00130144)
(0.15173 -0.00153163 -0.000209435)
(0.150471 -0.00140048 0.000976847)
(0.149043 -0.00113621 0.0018809)
(0.147787 -0.000900225 0.00219563)
(0.146903 -0.000975229 0.00205316)
(0.146503 -0.00145841 0.00198273)
(0.146539 -0.00207172 0.0022766)
(0.146704 -0.00231791 0.00272086)
(0.146569 -0.00184351 0.00305939)
(0.145851 -0.000677678 0.00327601)
(0.144593 0.000937166 0.00341059)
(0.143081 0.00267197 0.00329965)
(0.141642 0.00412048 0.00285488)
(0.14048 0.00490433 0.00222921)
(0.139562 0.00497277 0.00171479)
(0.138808 0.00465861 0.0015706)
(0.138151 0.00453346 0.00184575)
(0.137383 0.00494527 0.00236442)
(0.136357 0.0057031 0.0029276)
(0.135231 0.00632388 0.00344346)
(0.134483 0.00648452 0.00381447)
(0.13459 0.00608484 0.00389528)
(0.135701 0.0051529 0.00361167)
(0.13764 0.00391269 0.002993)
(0.143431 0.00250133 0.00104691)
(0.144251 0.00187511 0.00093768)
(0.14475 0.00173022 0.000919278)
(0.144945 0.0017751 0.000821277)
(0.14498 0.00178118 0.000499229)
(0.145163 0.00169649 -8.3011e-05)
(0.145806 0.00154369 -0.000871051)
(0.146998 0.00132104 -0.00175405)
(0.148551 0.00102641 -0.00261955)
(0.150107 0.000689143 -0.00338262)
(0.151266 0.000356689 -0.0039885)
(0.151809 -2.42758e-05 -0.00434457)
(0.151804 -0.000519657 -0.00428756)
(0.151508 -0.0010767 -0.00370318)
(0.151197 -0.0015449 -0.00266502)
(0.150995 -0.00182584 -0.00148855)
(0.150803 -0.0019149 -0.000444892)
(0.150505 -0.00180208 0.000405948)
(0.15007 -0.00156333 0.0010393)
(0.149566 -0.00138281 0.00136144)
(0.149044 -0.00143009 0.00139337)
(0.148611 -0.00172279 0.00142118)
(0.148351 -0.00214578 0.00176513)
(0.148144 -0.00243123 0.00243838)
(0.147778 -0.0021951 0.00316469)
(0.147225 -0.00122246 0.00362754)
(0.146555 0.000314633 0.00358619)
(0.145855 0.00194769 0.00290216)
(0.145215 0.003249 0.00167974)
(0.144754 0.0039145 0.000308868)
(0.144468 0.00394623 -0.000704331)
(0.144253 0.00371665 -0.00101781)
(0.143965 0.00373605 -0.000659297)
(0.143453 0.00431005 5.08281e-05)
(0.14263 0.00527612 0.00075517)
(0.141641 0.00611008 0.00133027)
(0.14087 0.00637546 0.00175392)
(0.140729 0.00593888 0.00190229)
(0.141321 0.00492541 0.0017137)
(0.142363 0.00363008 0.00134056)