/*--------------------------------*- C++ -*----------------------------------*\
| =========                 |                                                 |
| \\      /  F ield         | OpenFOAM: The Open Source CFD Toolbox           |
|  \\    /   O peration     | Version:  2306                                  |
|   \\  /    A nd           | Website:  www.openfoam.com                      |
|    \\/     M anipulation  |                                                 |
\*---------------------------------------------------------------------------*/
FoamFile
{
    version     2.0;
    format      ascii;
    arch        "LSB;label=32;scalar=64";
    class       volScalarField;
    location    "9";
    object      p;
}
// * * * * * * * * * * * * * * * * * * * * * * * * * * * * * * * * * * * * * //

dimensions      [0 2 -2 0 0 0 0];

internalField   nonuniform List<scalar> 
60000
(
1.03612e-05
-3.20255e-05
-4.59081e-05
-2.4833e-05
6.60184e-06
2.30131e-05
6.55477e-06
-2.99925e-05
-6.88219e-05
-9.85612e-05
-0.000120226
-0.000132927
-0.000131253
-0.00011741
-0.000104179
-0.000102482
-9.95385e-05
-7.63081e-05
-3.98433e-05
-1.16806e-05
1.95541e-06
1.13013e-05
1.27429e-05
-9.59737e-06
-6.16458e-05
-0.000128761
-0.000192338
-0.000234396
-0.000217283
-0.000125363
-9.49489e-06
4.94286e-05
4.53451e-05
5.83745e-06
-3.34649e-05
-3.9114e-05
8.37646e-07
5.45395e-05
8.08944e-05
6.04174e-05
1.14312e-05
-3.10224e-05
-4.52906e-05
-2.41264e-05
7.46345e-06
2.3964e-05
7.27688e-06
-2.97789e-05
-6.91335e-05
-9.90065e-05
-0.000120573
-0.000133217
-0.000131613
-0.000117923
-0.000104858
-0.000103208
-0.000100381
-7.71603e-05
-4.05994e-05
-1.23673e-05
1.30567e-06
1.10909e-05
1.30787e-05
-8.68974e-06
-6.03474e-05
-0.000127928
-0.000192332
-0.000235862
-0.000220131
-0.000128403
-1.17347e-05
4.81509e-05
4.45538e-05
5.47714e-06
-3.42423e-05
-4.04349e-05
-3.72631e-07
5.41137e-05
8.13226e-05
6.14386e-05
1.21876e-05
-3.06206e-05
-4.54605e-05
-2.33726e-05
8.18823e-06
2.49806e-05
7.55156e-06
-3.0968e-05
-7.16104e-05
-0.000101638
-0.000122599
-0.000134632
-0.000132675
-0.000118803
-0.000105568
-0.000104035
-0.000101646
-7.8607e-05
-4.187e-05
-1.34357e-05
4.23828e-07
1.11241e-05
1.42575e-05
-6.94611e-06
-5.88975e-05
-0.000127518
-0.000193357
-0.000238561
-0.000224201
-0.000131645
-1.33645e-05
4.73579e-05
4.42604e-05
4.78832e-06
-3.59835e-05
-4.3174e-05
-2.92027e-06
5.28185e-05
8.13905e-05
6.22529e-05
1.24149e-05
-3.09033e-05
-4.52581e-05
-2.32104e-05
8.89293e-06
2.64195e-05
7.54798e-06
-3.40354e-05
-7.73859e-05
-0.0001078
-0.00012745
-0.000137913
-0.000134773
-0.000120074
-0.000106232
-0.000104767
-0.000103111
-8.0507e-05
-4.36651e-05
-1.49773e-05
-7.47724e-07
1.14866e-05
1.64244e-05
-4.28712e-06
-5.7246e-05
-0.000127659
-0.000194925
-0.000242569
-0.000229555
-0.000134907
-1.37738e-05
4.7431e-05
4.37267e-05
3.20299e-06
-3.91984e-05
-4.75423e-05
-6.6935e-06
5.06573e-05
8.09087e-05
6.2679e-05
1.20933e-05
-3.18076e-05
-4.5596e-05
-2.34044e-05
1.10859e-05
2.85318e-05
7.80166e-06
-3.81682e-05
-8.63557e-05
-0.000118053
-0.000135941
-0.000143765
-0.000138292
-0.000121693
-0.0001066
-0.000104863
-0.000104092
-8.22886e-05
-4.58089e-05
-1.72686e-05
-2.68481e-06
1.19581e-05
1.97566e-05
-4.91101e-07
-5.52337e-05
-0.000127889
-0.000197147
-0.000247823
-0.000237768
-0.000141134
-1.57437e-05
4.70133e-05
4.28211e-05
4.12772e-07
-4.41933e-05
-5.34935e-05
-1.10687e-05
4.814e-05
7.99531e-05
6.25512e-05
1.15344e-05
-3.32224e-05
-4.78457e-05
-2.51362e-05
1.30484e-05
3.28494e-05
7.14552e-06
-4.37865e-05
-9.7752e-05
-0.000131792
-0.000148143
-0.000152631
-0.000143682
-0.000124178
-0.000106751
-0.000104015
-0.000103787
-8.28712e-05
-4.74717e-05
-2.00919e-05
-5.77733e-06
1.21314e-05
2.44442e-05
5.20437e-06
-5.23668e-05
-0.000127968
-0.000199597
-0.000254386
-0.000249505
-0.000153676
-2.39155e-05
4.05802e-05
3.82693e-05
-3.59253e-06
-5.11617e-05
-6.1158e-05
-1.55687e-05
4.61614e-05
7.91385e-05
6.22033e-05
1.16395e-05
-3.77642e-05
-5.2165e-05
-3.17039e-05
1.15021e-05
3.8628e-05
1.22368e-05
-5.2312e-05
-0.00011499
-0.00015001
-0.000163674
-0.000164105
-0.000150827
-0.000127654
-0.000107361
-0.000102623
-0.000102172
-8.15576e-05
-4.74411e-05
-2.24328e-05
-9.82707e-06
1.16952e-05
3.05945e-05
1.36971e-05
-4.77792e-05
-0.000127269
-0.000201983
-0.000261196
-0.00026295
-0.000168835
-3.622e-05
2.96509e-05
2.70502e-05
-1.37883e-05
-6.16886e-05
-7.15625e-05
-2.04939e-05
4.49978e-05
7.89548e-05
6.22949e-05
1.48601e-05
-3.85007e-05
-5.52203e-05
-4.15275e-05
2.91983e-06
4.14833e-05
2.27624e-05
-5.20043e-05
-0.000133893
-0.000178123
-0.000185824
-0.000179313
-0.000156537
-0.000131002
-0.000108415
-0.000102681
-0.000100949
-7.9031e-05
-4.52939e-05
-2.27859e-05
-1.36427e-05
1.06966e-05
3.79558e-05
2.55166e-05
-4.07624e-05
-0.000125795
-0.000202375
-0.000261918
-0.000265654
-0.000172148
-3.66606e-05
2.95915e-05
1.88874e-05
-2.76556e-05
-7.90297e-05
-8.82824e-05
-3.00561e-05
4.19291e-05
7.92436e-05
6.45186e-05
2.01561e-05
-2.44811e-05
-4.84484e-05
-4.53485e-05
-7.14677e-06
4.07496e-05
3.61768e-05
-4.10384e-05
-0.000143086
-0.000206953
-0.000217346
-0.000201898
-0.000169334
-0.000135546
-0.000108722
-0.000103422
-0.000104106
-8.08563e-05
-4.26957e-05
-1.9896e-05
-1.42442e-05
1.04208e-05
4.57221e-05
3.96374e-05
-3.17232e-05
-0.00012476
-0.000201967
-0.000256366
-0.000252534
-0.000152595
-1.29478e-05
5.00041e-05
2.71841e-05
-3.67694e-05
-0.000101795
-0.000114396
-4.56147e-05
3.39606e-05
7.2911e-05
6.32611e-05
2.1998e-05
-1.77585e-05
-3.41511e-05
-3.70685e-05
-9.96613e-06
4.09523e-05
5.42078e-05
-1.76015e-05
-0.000136348
-0.000229579
-0.000253893
-0.000233768
-0.000186269
-0.000144056
-0.000112852
-0.000104779
-0.000107508
-8.81322e-05
-4.84634e-05
-1.95447e-05
-6.44878e-06
1.45352e-05
5.38411e-05
5.30755e-05
-2.28389e-05
-0.000124921
-0.000203944
-0.000250639
-0.000233014
-0.0001191
3.08895e-05
9.3341e-05
5.43443e-05
-3.37596e-05
-0.000120926
-0.000150596
-6.86985e-05
2.20286e-05
6.5696e-05
5.89996e-05
2.16066e-05
-6.65173e-06
-1.19664e-05
-1.45431e-05
-5.03906e-06
4.11999e-05
7.48214e-05
2.04265e-05
-0.000107608
-0.000231332
-0.000291193
-0.000274373
-0.000212115
-0.000154054
-0.000117875
-0.00010945
-0.000111958
-9.42979e-05
-5.75545e-05
-3.14356e-05
-1.38439e-05
1.60693e-05
6.00178e-05
6.24485e-05
-1.81361e-05
-0.000125346
-0.000208095
-0.000250193
-0.00022279
-9.9869e-05
6.65471e-05
0.000141241
9.97899e-05
-1.42844e-05
-0.000131378
-0.000188867
-9.77661e-05
1.43199e-06
5.14948e-05
4.9976e-05
1.59049e-05
5.89214e-06
2.00999e-05
2.32671e-05
2.00199e-05
3.91803e-05
8.89176e-05
6.36787e-05
-5.55196e-05
-0.000202721
-0.000303342
-0.000318541
-0.000248621
-0.000172246
-0.000122861
-0.000111615
-0.000115308
-0.000100248
-6.72099e-05
-4.1232e-05
-2.73501e-05
-4.35385e-06
4.17174e-05
6.05654e-05
-2.16886e-05
-0.000123403
-0.000205168
-0.000242668
-0.000213357
-0.000105324
5.67319e-05
0.000161201
0.000145393
2.75145e-05
-0.000115477
-0.000182664
-0.000122659
-2.46647e-05
2.94347e-05
3.78866e-05
8.61249e-06
-1.46471e-06
4.11161e-05
6.3847e-05
5.33142e-05
3.99717e-05
9.14876e-05
9.63347e-05
4.27641e-06
-0.000146353
-0.00027921
-0.000339866
-0.000294091
-0.000198985
-0.000130986
-0.000112569
-0.000117298
-0.000105333
-7.25745e-05
-5.01392e-05
-3.5059e-05
-2.27065e-05
6.61045e-06
2.91889e-05
-4.0158e-05
-0.000118872
-0.000184513
-0.000216397
-0.000194908
-0.000115102
2.053e-05
0.000130761
0.000166653
8.1087e-05
-6.62565e-05
-0.000153551
-0.000133909
-4.83177e-05
6.77555e-06
2.27715e-05
-1.67059e-06
-3.1029e-06
4.26668e-05
8.20837e-05
7.56956e-05
4.24008e-05
8.20067e-05
0.000111248
5.61589e-05
-7.91668e-05
-0.000225299
-0.000327071
-0.000322366
-0.00022767
-0.000139089
-0.000114211
-0.000118727
-0.000113212
-7.82798e-05
-4.60399e-05
-3.78713e-05
-2.68139e-05
-1.93897e-05
-4.60108e-05
-6.28674e-05
-0.000109291
-0.000157064
-0.000179598
-0.000173986
-0.000113588
-1.42341e-05
8.61413e-05
0.000157086
0.000117396
1.32205e-06
-9.63731e-05
-0.000111659
-6.32799e-05
-1.62851e-05
4.82682e-06
-1.46615e-05
-7.26211e-06
2.67138e-05
7.35301e-05
7.98073e-05
5.36061e-05
6.76959e-05
0.000119842
9.18557e-05
-1.73892e-05
-0.000156189
-0.000280775
-0.00032093
-0.00024786
-0.000147847
-0.000108265
-0.00011648
-0.000121944
-9.37824e-05
-5.43408e-05
-3.66165e-05
-2.20329e-05
-2.3554e-05
-5.16596e-05
-7.10239e-05
-9.78282e-05
-0.000130488
-0.000162051
-0.000149311
-0.000104
-4.34841e-05
3.71261e-05
0.000116278
0.000120838
5.10073e-05
-3.40876e-05
-7.57618e-05
-6.41427e-05
-3.70028e-05
-1.80552e-05
-3.07493e-05
-7.16712e-06
2.74426e-05
6.1042e-05
6.95829e-05
5.11356e-05
6.20485e-05
0.000103301
0.000104877
2.50203e-05
-9.39839e-05
-0.000216398
-0.000282138
-0.000245685
-0.000156988
-0.000109306
-0.000109934
-0.000123203
-0.000107106
-6.59251e-05
-3.97079e-05
-2.32998e-05
-2.07019e-05
-4.62616e-05
-7.3383e-05
-8.85984e-05
-0.000102247
-0.000121384
-0.000123414
-8.24493e-05
-5.41002e-05
-2.7627e-06
7.11107e-05
9.91646e-05
6.72632e-05
7.27149e-06
-3.83816e-05
-5.36578e-05
-5.50354e-05
-4.64032e-05
-4.57188e-05
-9.86554e-06
2.79043e-05
4.52091e-05
5.7967e-05
4.05112e-05
4.77198e-05
6.91177e-05
8.90452e-05
3.86183e-05
-4.94172e-05
-0.000153156
-0.000221338
-0.000217029
-0.000153107
-0.000108658
-0.000111599
-0.000125228
-0.000112472
-7.41201e-05
-4.25524e-05
-2.85533e-05
-2.98003e-05
-5.14832e-05
-7.9384e-05
-8.56206e-05
-7.70433e-05
-8.37112e-05
-0.000106644
-7.45647e-05
-4.6206e-05
-1.293e-05
3.6075e-05
7.41958e-05
7.03423e-05
3.0252e-05
-1.34205e-05
-4.33414e-05
-6.07666e-05
-6.23096e-05
-4.18956e-05
-3.99726e-06
3.01775e-05
7.15872e-05
5.96293e-05
3.19558e-05
3.0022e-05
4.62947e-05
5.47163e-05
2.25102e-05
-2.74346e-05
-9.1708e-05
-0.000138858
-0.000166501
-0.000144121
-0.000111952
-0.000105892
-0.000111092
-0.000109313
-7.79808e-05
-4.79313e-05
-3.18276e-05
-3.11015e-05
-4.7875e-05
-8.08267e-05
-9.08267e-05
-6.44752e-05
-8.2477e-05
-9.13605e-05
-7.09897e-05
-3.28924e-05
-1.04715e-05
1.23532e-05
4.3534e-05
5.72784e-05
3.70045e-05
-2.43085e-06
-4.28861e-05
-6.87257e-05
-6.86744e-05
-3.18404e-05
1.28239e-05
4.61907e-05
7.12539e-05
5.98721e-05
1.85611e-05
-1.76657e-06
1.53565e-05
3.01738e-05
1.45437e-05
-2.87506e-05
-4.41849e-05
-6.72837e-05
-9.12179e-05
-0.000102858
-0.000104653
-0.000112593
-0.000115006
-0.000109684
-8.8604e-05
-6.97369e-05
-5.61894e-05
-3.75488e-05
-4.7602e-05
-6.71731e-05
-7.76778e-05
-5.06194e-05
-3.79004e-05
-5.65822e-05
-5.71787e-05
-2.76053e-05
-7.23981e-06
-1.66822e-06
2.60152e-05
5.16411e-05
3.75873e-05
-1.66187e-05
-6.22241e-05
-7.45337e-05
-6.28211e-05
-2.47117e-05
1.23094e-05
3.69902e-05
4.93474e-05
4.0234e-05
7.54837e-06
-1.66367e-05
-1.30599e-05
-1.00819e-05
-1.95601e-05
-2.78436e-05
-4.21429e-05
-5.19353e-05
-6.91295e-05
-7.32838e-05
-8.35126e-05
-9.06375e-05
-0.000100243
-0.000102805
-9.28305e-05
-8.76145e-05
-9.13295e-05
-0.000102004
-8.66644e-05
-7.71777e-05
-6.7408e-05
-4.15462e-05
-1.75423e-05
-2.17415e-05
-4.14671e-05
-4.28073e-05
-3.12835e-05
-2.19235e-05
1.22203e-05
6.14577e-05
4.61831e-05
-2.27444e-05
-7.38542e-05
-8.5091e-05
-5.99215e-05
-7.44859e-05
-1.42182e-05
3.12278e-05
5.40162e-05
4.49714e-05
1.31747e-05
-1.16766e-05
-1.36622e-05
-2.967e-05
-4.94803e-05
-8.01775e-05
-8.63456e-05
-7.31487e-05
-6.13601e-05
-6.88102e-05
-7.46824e-05
-9.13986e-05
-0.000101799
-9.98872e-05
-9.43913e-05
-9.46611e-05
-0.000100103
-0.000116099
-0.000115729
-0.000105149
-8.1059e-05
-4.21398e-05
-3.85891e-06
-3.72433e-08
-3.4162e-05
-6.38868e-05
-5.67922e-05
-3.12403e-05
2.51628e-05
6.35314e-05
5.08733e-05
-2.15476e-05
-9.71757e-05
-0.000163452
-0.000128841
-0.000130764
-5.2665e-05
1.28511e-05
4.05539e-05
3.00308e-05
-3.56332e-06
-1.62627e-05
4.89589e-06
8.90302e-06
-8.9481e-06
-4.89381e-05
-8.19484e-05
-9.14195e-05
-7.10179e-05
-5.8719e-05
-6.66887e-05
-8.88442e-05
-0.000100652
-9.86019e-05
-9.57154e-05
-9.73704e-05
-0.000100812
-0.000113714
-0.000121202
-0.000117112
-8.87672e-05
-4.5939e-05
-1.36162e-06
1.68788e-05
-1.50579e-05
-6.19373e-05
-7.83988e-05
-3.03044e-05
2.52999e-05
8.45908e-05
7.88257e-05
-3.47062e-06
-0.000106716
-0.00018226
-0.000185466
-0.000132675
-8.48164e-05
-2.81242e-05
1.21879e-05
2.00636e-05
8.43232e-07
-2.02039e-05
-3.12152e-05
-9.43738e-06
-3.9516e-06
-1.08287e-05
-3.28927e-05
-5.69264e-05
-6.68781e-05
-7.45183e-05
-8.62227e-05
-9.97821e-05
-0.000100301
-9.37557e-05
-9.35121e-05
-9.55018e-05
-8.52417e-05
-8.3294e-05
-8.32885e-05
-8.5572e-05
-7.50071e-05
-2.9559e-05
-8.64598e-06
1.89883e-05
5.03686e-06
-3.59078e-05
-5.362e-05
-3.77398e-05
-1.6711e-06
4.68977e-05
7.94836e-05
2.14268e-05
-6.37415e-05
-0.00013252
-0.00015445
-0.000127437
-0.000102264
-6.03411e-05
-2.20234e-05
-4.81362e-06
-7.60471e-06
-1.44654e-05
-1.36972e-05
3.99094e-07
-2.00889e-06
-2.59479e-05
-5.86777e-05
-8.71975e-05
-0.000106721
-0.000106556
-0.000105053
-9.84474e-05
-8.14836e-05
-6.29175e-05
-6.06126e-05
-7.65442e-05
-9.66779e-05
-9.55059e-05
-9.3716e-05
-8.28106e-05
-5.52193e-05
-2.49667e-05
-1.14713e-06
2.3528e-05
2.29488e-05
-1.18738e-05
-4.99369e-05
-6.51518e-05
-5.14178e-05
-1.64504e-05
2.3158e-06
2.25147e-06
-4.23685e-05
-9.41097e-05
-0.00012652
-0.000125858
-0.000110765
-8.41157e-05
-4.90623e-05
-2.76226e-05
-1.87122e-05
-1.37042e-05
-1.31369e-05
-1.02635e-05
-7.81755e-06
-2.42652e-05
-5.82728e-05
-9.1988e-05
-0.000118054
-0.000124067
-0.000127718
-0.0001232
-0.000101866
-7.85937e-05
-6.9885e-05
-8.25776e-05
-9.26996e-05
-7.91907e-05
-6.6637e-05
-6.30455e-05
-4.60364e-05
-6.03867e-06
2.58959e-05
4.82237e-05
3.86307e-05
-1.21989e-05
-7.49104e-05
-0.000113272
-0.000103874
-7.98128e-05
-7.36572e-05
-3.20872e-05
-3.93605e-05
-6.84943e-05
-9.80803e-05
4.69198e-05
-2.43448e-08
2.77321e-06
4.59536e-05
8.37258e-05
8.68066e-05
4.58938e-05
-2.54776e-05
-9.75279e-05
-0.000150177
-0.000177336
-0.000184012
-0.000176456
-0.000163698
-0.000153988
-0.000151355
-0.000144141
-0.000116754
-7.22202e-05
-3.17549e-05
-1.08395e-05
-7.11139e-06
-1.13018e-05
-2.05786e-05
-4.2923e-05
-9.16302e-05
-0.000161488
-0.000227863
-0.000238134
-0.000137627
2.13543e-05
0.000112578
0.0001095
8.43651e-05
7.80038e-05
7.66886e-05
9.01361e-05
0.00012564
0.000145663
0.000113505
4.7116e-05
-2.17412e-07
2.49403e-06
4.62252e-05
8.49254e-05
8.91928e-05
4.88112e-05
-2.26004e-05
-9.51811e-05
-0.000148664
-0.000176596
-0.000183791
-0.000176473
-0.000163899
-0.000154375
-0.000151933
-0.000144975
-0.000117754
-7.33228e-05
-3.27447e-05
-1.1524e-05
-7.51479e-06
-1.14817e-05
-2.05136e-05
-4.2589e-05
-9.10584e-05
-0.000161208
-0.000228843
-0.000241258
-0.000142628
1.64594e-05
0.000109214
0.000106855
8.16378e-05
7.53774e-05
7.40829e-05
8.72132e-05
0.000123027
0.000144361
0.000113404
4.7472e-05
-6.12476e-07
2.28114e-06
4.71552e-05
8.7745e-05
9.28143e-05
5.21698e-05
-2.07242e-05
-9.50009e-05
-0.000149714
-0.000178121
-0.000185269
-0.000177582
-0.000164832
-0.000155362
-0.000153134
-0.000146487
-0.000119575
-7.51916e-05
-3.41962e-05
-1.23208e-05
-7.8087e-06
-1.16567e-05
-2.0352e-05
-4.20867e-05
-9.02734e-05
-0.000161034
-0.00023032
-0.000245218
-0.00014808
1.23649e-05
0.000107398
0.000105031
7.86864e-05
7.26785e-05
7.17509e-05
8.42145e-05
0.000119951
0.000142892
0.000113622
4.74259e-05
-1.58844e-06
2.05714e-06
4.98422e-05
9.25232e-05
9.78277e-05
5.51667e-05
-2.15235e-05
-9.90119e-05
-0.000155116
-0.000183156
-0.000189188
-0.000180124
-0.000166566
-0.000156845
-0.000154893
-0.000148602
-0.000122085
-7.76936e-05
-3.59687e-05
-1.3001e-05
-7.64309e-06
-1.13762e-05
-1.94038e-05
-4.13567e-05
-8.92692e-05
-0.000161184
-0.00023215
-0.000249607
-0.00015314
1.02916e-05
0.000108384
0.000104597
7.54469e-05
6.96628e-05
6.96499e-05
8.14837e-05
0.000116825
0.00014127
0.000113694
4.59589e-05
-4.31721e-06
7.15594e-07
5.32989e-05
9.89311e-05
0.000104658
5.8014e-05
-2.55466e-05
-0.000108196
-0.000165774
-0.000192257
-0.000195839
-0.000184213
-0.000169076
-0.000158625
-0.00015668
-0.000150805
-0.000124788
-8.05053e-05
-3.80177e-05
-1.37006e-05
-7.03144e-06
-1.04308e-05
-1.79864e-05
-4.0299e-05
-8.84402e-05
-0.00016137
-0.000234445
-0.000255615
-0.000160382
7.21107e-06
0.000110111
0.000104684
7.14878e-05
6.57129e-05
6.73333e-05
7.92471e-05
0.000114204
0.00013962
0.000113041
4.29507e-05
-9.5357e-06
-3.59156e-06
5.58891e-05
0.000108088
0.000113698
6.26646e-05
-3.14935e-05
-0.000122207
-0.000181903
-0.000205693
-0.000205428
-0.00019002
-0.000172536
-0.000160694
-0.000158231
-0.000152459
-0.000126829
-8.27715e-05
-3.98344e-05
-1.44959e-05
-6.35376e-06
-8.94403e-06
-1.5928e-05
-3.86826e-05
-8.73176e-05
-0.000161368
-0.000238153
-0.000266577
-0.000176594
-5.22978e-06
0.000104805
0.000100898
6.47779e-05
5.97445e-05
6.37401e-05
7.69815e-05
0.000112295
0.00013821
0.000111755
3.98872e-05
-1.56316e-05
-1.06638e-05
5.59242e-05
0.000118876
0.000129853
7.18731e-05
-3.44064e-05
-0.000138308
-0.000202539
-0.000223406
-0.000218096
-0.000197573
-0.000177091
-0.000163264
-0.000159582
-0.000153548
-0.000127888
-8.35025e-05
-4.01603e-05
-1.46047e-05
-5.78781e-06
-7.56954e-06
-1.33708e-05
-3.63232e-05
-8.58085e-05
-0.000161656
-0.000243817
-0.000283345
-0.000204074
-3.20363e-05
8.76923e-05
8.70131e-05
4.95512e-05
4.75043e-05
5.56588e-05
7.16042e-05
0.000109452
0.000136484
0.000110301
4.06507e-05
-1.5723e-05
-1.51644e-05
5.46732e-05
0.000130406
0.000153512
9.47457e-05
-2.51675e-05
-0.000147939
-0.000224187
-0.000245174
-0.000234839
-0.000207244
-0.00018246
-0.000165884
-0.000161188
-0.000155103
-0.000129012
-8.30217e-05
-3.80454e-05
-1.22813e-05
-4.25115e-06
-6.69772e-06
-1.09915e-05
-3.35381e-05
-8.42916e-05
-0.000162367
-0.00024998
-0.000298249
-0.000230902
-6.50703e-05
6.33407e-05
6.83975e-05
2.51962e-05
2.51552e-05
3.99497e-05
5.76968e-05
9.85273e-05
0.000130605
0.000108635
4.46693e-05
-3.45297e-06
-6.81921e-06
5.69891e-05
0.000142144
0.000184112
0.000133522
3.35358e-06
-0.000142025
-0.000238299
-0.000269
-0.000256776
-0.000220637
-0.00019033
-0.000168857
-0.000161756
-0.000156296
-0.000131555
-8.54128e-05
-3.66333e-05
-7.83216e-06
8.06465e-08
-5.20203e-06
-9.58815e-06
-3.13858e-05
-8.36276e-05
-0.000164467
-0.000253673
-0.000300401
-0.000235468
-8.21664e-05
4.11725e-05
5.24713e-05
1.85441e-06
-4.15428e-06
1.66572e-05
3.81946e-05
7.90183e-05
0.000113042
9.97944e-05
4.69054e-05
9.29391e-06
1.18178e-05
6.61333e-05
0.000150649
0.00021535
0.000185955
5.52094e-05
-0.000113557
-0.000238037
-0.000289809
-0.000285891
-0.000238013
-0.00019986
-0.000173977
-0.000164119
-0.000157039
-0.00013309
-8.91597e-05
-4.06333e-05
-8.91116e-06
3.99292e-06
-2.35636e-06
-9.28816e-06
-3.11857e-05
-8.44037e-05
-0.0001682
-0.000256553
-0.000295091
-0.000221859
-7.52859e-05
3.46275e-05
4.17497e-05
-1.40046e-05
-3.63054e-05
-1.52665e-05
9.50931e-06
5.83212e-05
9.85945e-05
8.97148e-05
5.43271e-05
2.73005e-05
2.91546e-05
7.1613e-05
0.000147624
0.000233446
0.00023632
0.000124966
-5.89322e-05
-0.000214929
-0.000295671
-0.000320598
-0.000261854
-0.000210429
-0.000177518
-0.000166366
-0.000159265
-0.000134557
-9.17562e-05
-4.4769e-05
-1.36635e-05
1.15846e-07
-4.27837e-06
-1.25424e-05
-3.5367e-05
-8.73537e-05
-0.000171922
-0.000258311
-0.000289792
-0.000203523
-6.34989e-05
4.18487e-05
4.31635e-05
-1.9475e-05
-5.92556e-05
-3.90188e-05
-2.82762e-05
3.0146e-05
8.41483e-05
8.74932e-05
5.65266e-05
4.27787e-05
4.86539e-05
7.93314e-05
0.000127812
0.000232815
0.000262919
0.000192076
1.40201e-05
-0.000163765
-0.000277539
-0.00032526
-0.000291041
-0.000225993
-0.000181158
-0.000166981
-0.000160905
-0.000135821
-9.46387e-05
-5.15052e-05
-2.27883e-05
-1.00877e-05
-1.68045e-05
-2.64344e-05
-4.68854e-05
-9.32139e-05
-0.000172101
-0.000255167
-0.000290703
-0.000197835
-6.1056e-05
4.0532e-05
5.49381e-05
-8.56937e-06
-6.39703e-05
-7.09304e-05
-6.37087e-05
-4.0963e-06
5.72048e-05
7.53118e-05
4.8588e-05
5.19971e-05
6.37173e-05
8.55422e-05
0.000112025
0.000200057
0.000263466
0.000231975
8.11237e-05
-9.6205e-05
-0.000229261
-0.000313796
-0.000312507
-0.000250092
-0.000190165
-0.000167159
-0.000161765
-0.000138435
-9.979e-05
-6.17797e-05
-3.76925e-05
-2.68502e-05
-3.7251e-05
-5.25426e-05
-7.57493e-05
-0.000103181
-0.000163474
-0.000250004
-0.000275579
-0.000194875
-7.78085e-05
1.91343e-05
5.91928e-05
1.32925e-05
-4.72753e-05
-7.37399e-05
-8.12922e-05
-3.59376e-05
1.91941e-05
4.85985e-05
3.04178e-05
5.22445e-05
7.39843e-05
9.05342e-05
0.000100029
0.000169016
0.000241823
0.000244076
0.000124976
-3.61065e-05
-0.000166506
-0.000273467
-0.00032017
-0.000272888
-0.000205634
-0.000167349
-0.000159949
-0.000143732
-0.000109419
-6.85725e-05
-4.41858e-05
-3.40567e-05
-5.09096e-05
-7.87721e-05
-9.52114e-05
-0.000105686
-0.000140356
-0.000205574
-0.000238566
-0.000175713
-8.7251e-05
-8.48648e-06
4.41438e-05
3.29688e-05
-1.81881e-05
-5.32237e-05
-7.84952e-05
-5.05931e-05
-1.44575e-05
1.47546e-05
1.01771e-05
2.51897e-05
6.33948e-05
8.6816e-05
8.91534e-05
0.000123613
0.000194257
0.000231239
0.000141825
2.84002e-06
-0.000111459
-0.000216061
-0.000297789
-0.000292999
-0.000220502
-0.000169167
-0.000156433
-0.000148882
-0.000122808
-7.28725e-05
-4.07515e-05
-2.74724e-05
-4.21523e-05
-7.25207e-05
-8.87607e-05
-9.63084e-05
-0.00011398
-0.00017892
-0.000201062
-0.000149357
-8.41878e-05
-3.30536e-05
2.01233e-05
4.1053e-05
9.94836e-06
-2.46825e-05
-7.07902e-05
-5.00354e-05
-3.42136e-05
-1.18654e-05
-7.27545e-06
1.42859e-05
5.35258e-05
8.65977e-05
8.6037e-05
9.18385e-05
0.000145143
0.000192122
0.000139283
2.80063e-05
-7.00794e-05
-0.000158946
-0.000248582
-0.000280707
-0.00022862
-0.000170175
-0.000149617
-0.000151564
-0.000140606
-7.89997e-05
-3.31861e-05
-1.59831e-05
-3.30246e-05
-6.37799e-05
-8.43042e-05
-9.05489e-05
-0.000104382
-0.000154186
-0.000169143
-0.000121123
-7.34471e-05
-5.11176e-05
-1.27748e-06
4.29785e-05
3.45018e-05
7.8604e-07
-3.34076e-05
-4.65718e-05
-4.28732e-05
-3.35221e-05
-1.98502e-05
9.93419e-06
5.08778e-05
8.93674e-05
8.55796e-05
6.9207e-05
9.15578e-05
0.000128914
0.000109813
3.04165e-05
-4.7759e-05
-0.000106708
-0.000174738
-0.000230265
-0.000220308
-0.000178323
-0.000155132
-0.000152402
-0.000135522
-8.46064e-05
-3.08618e-05
-9.64068e-06
-2.64977e-05
-5.67404e-05
-8.16843e-05
-9.22284e-05
-9.8325e-05
-0.000120643
-0.000143146
-0.00010445
-5.97262e-05
-5.15955e-05
-1.15692e-05
3.69064e-05
5.06562e-05
2.55673e-05
-1.0515e-05
-3.44441e-05
-4.69973e-05
-4.94323e-05
-2.81238e-05
1.26186e-05
4.75564e-05
8.37052e-05
8.45952e-05
5.71127e-05
5.15396e-05
6.74661e-05
5.05388e-05
3.79092e-06
-3.18126e-05
-4.69838e-05
-8.31705e-05
-0.000148081
-0.000184908
-0.000180163
-0.00016774
-0.000169913
-0.00014298
-8.63249e-05
-2.42072e-05
-4.31589e-06
-2.036e-05
-5.2655e-05
-7.92684e-05
-9.53738e-05
-9.33172e-05
-0.000101985
-0.000119538
-0.000101692
-5.88198e-05
-3.27661e-05
-5.61587e-06
3.16363e-05
5.12444e-05
3.44321e-05
4.69444e-06
-2.27472e-05
-4.51103e-05
-5.29765e-05
-3.01196e-05
1.54839e-05
4.10028e-05
6.82679e-05
6.83977e-05
3.78268e-05
1.68661e-05
2.21957e-05
2.76571e-05
-5.6134e-07
-4.30902e-05
-2.64539e-05
2.19854e-06
-3.4918e-05
-0.000104938
-0.000149561
-0.000161936
-0.000158199
-0.000136865
-0.000100797
-6.00688e-05
-3.79863e-05
-3.52105e-05
-4.93324e-05
-7.13875e-05
-9.52659e-05
-8.65278e-05
-7.22635e-05
-7.98463e-05
-8.55741e-05
-6.37968e-05
-3.47987e-05
-3.76637e-06
3.21397e-05
5.30976e-05
2.75988e-05
-8.23002e-06
-2.8499e-05
-4.0464e-05
-4.74011e-05
-1.09868e-05
1.94807e-05
3.54686e-05
4.30038e-05
3.90618e-05
1.78378e-05
-7.43437e-07
-7.28866e-06
-1.17518e-05
-1.27544e-05
-1.93703e-05
-1.15705e-05
-1.05433e-06
-1.80286e-05
-5.05015e-05
-8.85681e-05
-0.000118578
-0.000131572
-0.000127838
-0.000100819
-8.17634e-05
-7.45331e-05
-8.0806e-05
-8.4315e-05
-8.36047e-05
-7.99409e-05
-7.07618e-05
-5.52814e-05
-5.34357e-05
-6.57014e-05
-7.9082e-05
-5.41134e-05
-1.6354e-05
2.51484e-05
4.95239e-05
2.25627e-05
-2.61265e-05
-5.47412e-05
-5.72464e-05
-4.01542e-05
-3.21295e-05
1.60188e-05
4.5083e-05
5.15823e-05
4.00059e-05
1.30819e-05
-2.51935e-06
-3.89314e-06
-2.07484e-05
-4.12572e-05
-5.51697e-05
-4.85697e-05
-2.36649e-05
-1.84211e-05
-3.44369e-05
-6.11453e-05
-9.05273e-05
-0.000108653
-0.00011461
-0.000112462
-0.000109847
-0.000107799
-0.000114813
-0.000119517
-0.000110686
-9.04153e-05
-6.95336e-05
-5.33706e-05
-4.974e-05
-6.30055e-05
-6.22737e-05
-4.78362e-05
-6.89909e-06
3.66943e-05
5.8486e-05
2.51806e-05
-4.20745e-05
-9.55628e-05
-0.000106895
-8.02698e-05
-7.10019e-05
-1.22315e-05
3.44754e-05
4.87982e-05
3.20355e-05
-4.7619e-06
-1.80912e-05
-6.09785e-06
1.16666e-05
-3.0147e-06
-2.9818e-05
-4.76856e-05
-4.08227e-05
-3.58812e-05
-3.31906e-05
-4.90681e-05
-7.93073e-05
-0.000102781
-0.000109229
-0.00010689
-0.000109309
-0.000109929
-0.000123438
-0.000143762
-0.000149678
-0.00013393
-9.97821e-05
-5.79625e-05
-3.35833e-05
-4.08162e-05
-5.55824e-05
-3.67059e-05
-1.49338e-05
3.03998e-05
6.11886e-05
4.37606e-05
-2.50539e-05
-9.54816e-05
-0.000133323
-0.00011746
-9.47854e-05
-5.38382e-05
-9.59698e-06
1.99614e-05
2.27657e-05
1.83601e-06
-2.43458e-05
-1.81855e-05
-6.40317e-06
-4.5136e-06
-1.15477e-05
-2.45239e-05
-3.41347e-05
-3.53758e-05
-3.52874e-05
-5.3462e-05
-8.14808e-05
-9.95244e-05
-0.00010146
-9.69593e-05
-8.67066e-05
-7.86547e-05
-7.51371e-05
-8.77312e-05
-0.000102694
-0.000105966
-9.8714e-05
-5.07997e-05
-2.69805e-05
-3.60716e-05
-6.07211e-05
-6.159e-05
-3.6634e-05
-2.61928e-06
2.67417e-05
3.64196e-05
-2.0733e-06
-5.78587e-05
-0.000104316
-0.000114992
-0.000104304
-7.70857e-05
-4.03973e-05
-8.43039e-06
2.50343e-06
-4.83728e-06
-1.57135e-05
-1.90987e-05
-9.01101e-07
2.5826e-06
-1.27754e-05
-3.73191e-05
-5.90619e-05
-6.8324e-05
-7.63099e-05
-8.44227e-05
-9.13707e-05
-8.79207e-05
-7.51657e-05
-6.82367e-05
-7.65353e-05
-8.82193e-05
-9.01796e-05
-8.56321e-05
-8.20515e-05
-6.87752e-05
-4.91237e-05
-2.43732e-05
-7.38871e-06
-6.10275e-06
-2.76186e-05
-5.23184e-05
-5.55797e-05
-4.0231e-05
-1.6181e-05
-1.61223e-06
-1.04982e-05
-4.5219e-05
-8.72422e-05
-0.000111921
-9.55875e-05
-8.81712e-05
-6.59336e-05
-4.08114e-05
-2.39139e-05
-1.65011e-05
-9.51301e-06
-5.82596e-06
-1.64793e-06
-2.50307e-06
-1.91352e-05
-4.88861e-05
-7.599e-05
-9.33374e-05
-0.000106362
-0.000122654
-0.00012646
-0.000111053
-8.65701e-05
-7.03403e-05
-7.17044e-05
-7.736e-05
-7.18375e-05
-6.69161e-05
-6.80313e-05
-5.22333e-05
-1.90182e-05
1.28074e-05
2.88003e-05
2.21055e-05
-1.56123e-05
-6.65925e-05
-8.86838e-05
-8.17304e-05
-6.0263e-05
-2.50312e-05
-2.91907e-05
-3.65038e-05
-6.04988e-05
-8.50951e-05
9.78012e-05
9.51295e-05
8.35298e-05
6.07289e-05
4.88541e-05
4.50063e-05
3.41223e-05
2.95575e-06
-3.63679e-05
-7.76812e-05
-0.000112528
-0.000135716
-0.000143183
-0.0001417
-0.000147615
-0.000165476
-0.000168871
-0.000135064
-8.10112e-05
-3.78984e-05
-1.44873e-05
-8.60128e-06
-1.1232e-05
-1.3222e-05
-3.06321e-05
-7.38209e-05
-0.000129401
-0.000183923
-0.000212247
-0.000171948
-6.4705e-05
2.9196e-05
7.43318e-05
0.000114682
0.000151512
0.00015522
0.000139725
0.000134133
0.000135281
0.000118081
9.62971e-05
9.47873e-05
8.46003e-05
6.24818e-05
5.10333e-05
4.7965e-05
3.75203e-05
6.30539e-06
-3.34774e-05
-7.55765e-05
-0.000111319
-0.000135194
-0.000143187
-0.000141816
-0.000147583
-0.000165595
-0.000169562
-0.000136225
-8.21728e-05
-3.89863e-05
-1.5521e-05
-9.55005e-06
-1.20962e-05
-1.3819e-05
-3.08118e-05
-7.35329e-05
-0.00012902
-0.000183815
-0.000212738
-0.000173693
-6.71253e-05
2.67619e-05
7.16653e-05
0.00011162
0.000148363
0.000151927
0.000135712
0.00012986
0.000131698
0.000115668
9.4998e-05
9.58998e-05
8.7906e-05
6.52766e-05
5.3946e-05
5.08494e-05
4.01888e-05
8.22256e-06
-3.24446e-05
-7.53942e-05
-0.000111728
-0.000135924
-0.000144145
-0.000142485
-0.000147918
-0.000166401
-0.000171363
-0.000138388
-8.38358e-05
-4.02312e-05
-1.65471e-05
-1.0388e-05
-1.28176e-05
-1.40818e-05
-3.0567e-05
-7.29127e-05
-0.000128791
-0.000184406
-0.000214241
-0.000176696
-6.99851e-05
2.46637e-05
6.9164e-05
0.000108825
0.000146169
0.000150076
0.000132639
0.000125307
0.000127105
0.000112583
9.34788e-05
9.91673e-05
9.33228e-05
6.99884e-05
5.77906e-05
5.32607e-05
4.11666e-05
7.3076e-06
-3.47236e-05
-7.83653e-05
-0.000114233
-0.000138304
-0.000146267
-0.000143896
-0.000148853
-0.000168173
-0.000174615
-0.000141916
-8.63546e-05
-4.19124e-05
-1.77138e-05
-1.11905e-05
-1.34702e-05
-1.44359e-05
-3.01395e-05
-7.19939e-05
-0.000128956
-0.000186338
-0.000217055
-0.000181022
-7.29477e-05
2.35242e-05
6.76789e-05
0.000107059
0.000145545
0.000150352
0.000131567
0.000121669
0.000122147
0.00010864
9.06303e-05
0.000102112
0.000101193
7.59515e-05
6.30094e-05
5.53752e-05
4.00574e-05
2.83765e-06
-4.09987e-05
-8.4577e-05
-0.000118947
-0.000142025
-0.000149269
-0.000145911
-0.000150275
-0.000170609
-0.000179068
-0.000146571
-8.98955e-05
-4.45911e-05
-1.96737e-05
-1.25124e-05
-1.46008e-05
-1.49101e-05
-2.93968e-05
-7.09109e-05
-0.000129802
-0.000188104
-0.000221693
-0.000187848
-7.75114e-05
2.26371e-05
6.74179e-05
0.000106452
0.000146096
0.00015224
0.000132745
0.000120132
0.000117765
0.000103705
8.60617e-05
0.000103262
0.000111335
8.73804e-05
7.11428e-05
5.82181e-05
3.74856e-05
-5.16917e-06
-5.14802e-05
-9.38667e-05
-0.000125616
-0.000146579
-0.000152693
-0.000148248
-0.000151833
-0.000172984
-0.000183184
-0.000151123
-9.35948e-05
-4.79021e-05
-2.26282e-05
-1.48861e-05
-1.68067e-05
-1.62341e-05
-2.90043e-05
-7.16088e-05
-0.000131802
-0.000191396
-0.000229489
-0.000200646
-8.88581e-05
1.7419e-05
6.57015e-05
0.000106189
0.000146717
0.000154
0.000135073
0.000121172
0.000115226
9.86162e-05
8.05083e-05
0.000101289
0.000122151
0.000102848
8.47554e-05
6.49957e-05
3.61726e-05
-1.542e-05
-6.57226e-05
-0.00010574
-0.000133819
-0.00015138
-0.000156027
-0.000150462
-0.000153052
-0.000174255
-0.00018567
-0.000154624
-9.67177e-05
-5.04785e-05
-2.49989e-05
-1.77086e-05
-2.02672e-05
-1.88243e-05
-2.92234e-05
-7.25526e-05
-0.000135197
-0.000197009
-0.000242689
-0.00022152
-0.000113324
-1.08351e-06
5.33981e-05
9.96861e-05
0.000144477
0.000151821
0.000134318
0.000122839
0.000115024
9.48232e-05
7.62109e-05
9.78237e-05
0.000128762
0.000119274
0.000104202
7.93381e-05
4.15357e-05
-2.32189e-05
-8.20691e-05
-0.000119893
-0.000142913
-0.000155867
-0.000159274
-0.000152682
-0.00015367
-0.000173446
-0.000184482
-0.000155671
-0.000101225
-5.6354e-05
-2.85111e-05
-2.01238e-05
-2.45811e-05
-2.28752e-05
-3.02139e-05
-7.36613e-05
-0.000140302
-0.000204938
-0.000254645
-0.000245054
-0.000147173
-3.25842e-05