/*--------------------------------*- C++ -*----------------------------------*\
| =========                 |                                                 |
| \\      /  F ield         | OpenFOAM: The Open Source CFD Toolbox           |
|  \\    /   O peration     | Version:  2306                                  |
|   \\  /    A nd           | Website:  www.openfoam.com                      |
|    \\/     M anipulation  |                                                 |
\*---------------------------------------------------------------------------*/
FoamFile
{
    version     2.0;
    format      ascii;
    arch        "LSB;label=32;scalar=64";
    class       surfaceScalarField;
    location    "9";
    object      phi_0;
}
// * * * * * * * * * * * * * * * * * * * * * * * * * * * * * * * * * * * * * //

dimensions      [0 3 -1 0 0 0 0];

oriented        oriented;

internalField   nonuniform List<scalar> 
175300
(
4.24207e-06
3.79907e-07
-8.73873e-07
4.44559e-06
4.22613e-07
-6.4039e-07
4.74127e-06
3.80713e-07
-3.95468e-07
5.09941e-06
2.59712e-07
-1.08961e-08
5.46639e-06
2.80444e-07
3.67936e-07
5.69822e-06
4.58599e-07
8.19076e-07
5.68511e-06
7.2975e-07
1.28997e-06
5.47101e-06
8.96745e-07
1.69633e-06
5.20693e-06
8.44057e-07
1.92495e-06
4.9999e-06
6.62182e-07
1.89307e-06
4.85304e-06
4.78125e-07
1.6715e-06
4.72393e-06
3.29483e-07
1.41939e-06
4.57331e-06
1.98138e-07
1.26951e-06
4.37953e-06
6.08316e-08
1.25238e-06
4.11921e-06
-4.67486e-08
1.31012e-06
3.80073e-06
-1.06467e-07
1.36188e-06
3.52232e-06
-1.92955e-07
1.35517e-06
3.38647e-06
-3.07303e-07
1.25437e-06
3.39312e-06
-3.76956e-07
1.03978e-06
3.46174e-06
-3.91641e-07
7.50254e-07
3.55155e-06
-4.36304e-07
4.85645e-07
3.69284e-06
-4.54211e-07
2.63539e-07
3.90547e-06
-3.52147e-07
1.94051e-09
4.12806e-06
-1.24065e-07
-2.09891e-07
4.33907e-06
1.5591e-07
-3.63682e-07
4.5342e-06
3.04015e-07
-3.34509e-07
4.70747e-06
2.1259e-07
-2.10059e-07
4.84428e-06
-1.53766e-07
-1.21505e-07
5.00008e-06
-7.33081e-07
-2.44785e-07
5.19526e-06
-1.10851e-06
-6.64158e-07
5.31458e-06
-9.73767e-07
-1.19888e-06
5.24354e-06
-4.77141e-07
-1.58356e-06
4.99509e-06
3.55642e-08
-1.83015e-06
4.63714e-06
3.95301e-07
-2.06921e-06
4.23104e-06
4.99354e-07
-2.15769e-06
3.88254e-06
3.04888e-07
-2.02202e-06
3.7073e-06
1.23076e-08
-1.8277e-06
3.73997e-06
-1.20967e-07
-1.66822e-06
3.90136e-06
-3.12694e-08
-1.45794e-06
1.94606e-07
-1.16796e-06
1.39259e-05
1.18907e-06
-2.51574e-06
1.47669e-05
1.16714e-06
-1.78017e-06
1.58641e-05
8.80238e-07
-9.63281e-07
1.71043e-05
4.95716e-07
1.39e-07
1.82992e-05
6.0308e-07
1.37096e-06
1.90675e-05
1.22877e-06
2.79209e-06
1.90941e-05
2.13057e-06
4.22524e-06
1.8456e-05
2.71323e-06
5.38899e-06
1.75846e-05
2.61956e-06
5.94237e-06
1.68626e-05
2.06485e-06
5.73304e-06
1.6373e-05
1.44172e-06
5.01524e-06
1.59884e-05
9.37283e-07
4.24596e-06
1.55399e-05
5.20023e-07
3.7709e-06
1.49067e-05
1.28213e-07
3.65198e-06
1.40383e-05
-1.78012e-07
3.75352e-06
1.30364e-05
-4.26682e-07
3.8912e-06
1.21756e-05
-8.1085e-07
3.90339e-06
1.16815e-05
-1.28707e-06
3.65528e-06
1.15569e-05
-1.58507e-06
3.09084e-06
1.16455e-05
-1.6311e-06
2.31276e-06
1.18618e-05
-1.64621e-06
1.54991e-06
1.22463e-05
-1.52902e-06
8.40863e-07
1.28081e-05
-9.7373e-07
5.65497e-08
1.34401e-05
-1.80859e-07
-5.36676e-07
1.41181e-05
6.01215e-07
-8.59513e-07
1.48528e-05
7.61196e-07
-7.13706e-07
1.56329e-05
4.64394e-08
-3.59372e-07
1.64266e-05
-1.55797e-06
-1.74244e-07
1.7248e-05
-3.58729e-06
-5.86309e-07
1.79502e-05
-4.58988e-06
-1.75725e-06
1.81722e-05
-3.74655e-06
-3.20464e-06
1.77489e-05
-1.77778e-06
-4.35348e-06
1.68563e-05
8.50941e-08
-5.16729e-06
1.57537e-05
1.21467e-06
-5.74118e-06
1.46033e-05
1.35765e-06
-5.80373e-06
1.35658e-05
6.37977e-07
-5.42919e-06
1.28501e-05
-1.90575e-07
-5.04688e-06
1.26275e-05
-4.58899e-07
-4.72088e-06
1.28475e-05
-7.58447e-08
-4.16661e-06
6.62338e-07
-3.35053e-06
2.54415e-05
2.04283e-06
-4.62931e-06
2.70773e-05
1.80774e-06
-3.4279e-06
2.91838e-05
8.72791e-07
-2.09307e-06
3.15556e-05
-1.18915e-07
-1.65152e-07
3.38878e-05
1.02425e-07
1.92549e-06
3.55792e-05
1.36321e-06
4.45675e-06
3.60128e-05
3.21951e-06
7.02727e-06
3.51111e-05
4.57581e-06
9.13555e-06
3.35105e-05
4.72194e-06
1.02109e-05
3.2019e-05
3.87651e-06
9.98644e-06
3.09966e-05
2.6987e-06
8.84163e-06
3.02937e-05
1.66558e-06
7.52774e-06
2.95645e-05
8.3333e-07
6.61566e-06
2.8527e-05
1.2203e-07
6.21844e-06
2.70676e-05
-4.14721e-07
6.18496e-06
2.53319e-05
-9.03221e-07
6.32538e-06
2.3702e-05
-1.68745e-06
6.41557e-06
2.25342e-05
-2.67869e-06
6.17504e-06
2.19422e-05
-3.36862e-06
5.42838e-06
2.1801e-05
-3.55479e-06
4.29319e-06
2.20015e-05
-3.56047e-06
3.09956e-06
2.2554e-05
-3.21547e-06
1.92051e-06
2.34264e-05
-1.96115e-06
6.38022e-07
2.44874e-05
-2.07528e-07
-4.61342e-07
2.57337e-05
1.17576e-06
-9.79062e-07
2.72043e-05
1.02509e-06
-6.69258e-07
2.88653e-05
-1.04653e-06
8.38734e-08
3.06381e-05
-4.85122e-06
5.62294e-07
3.24647e-05
-9.24212e-06
6.68875e-08
3.39677e-05
-1.12527e-05
-1.65608e-06
3.44719e-05
-9.11502e-06
-4.12291e-06
3.37483e-05
-4.59721e-06
-6.31759e-06
3.22044e-05
-4.15024e-07
-7.96014e-06
3.03655e-05
2.01533e-06
-8.98539e-06
2.84808e-05
2.25525e-06
-9.05163e-06
2.66296e-05
8.15758e-07
-8.46604e-06
2.49862e-05
-6.817e-07
-7.98577e-06
2.39465e-05
-1.04475e-06
-7.70674e-06
2.37697e-05
-2.43656e-07
-7.08617e-06
1.13548e-06
-5.93182e-06
3.85596e-05
2.52579e-06
-7.66962e-06
4.09546e-05
1.87266e-06
-6.27899e-06
4.41707e-05
-2.01913e-07
-4.66611e-06
4.79082e-05
-2.4294e-06
-2.26578e-06
5.17872e-05
-2.64391e-06
9.86706e-07
5.50386e-05
-5.9863e-07
4.71237e-06
5.66286e-05
2.63896e-06
8.71601e-06
5.60117e-05
5.35317e-06
1.22069e-05
5.37586e-05
6.38227e-06
1.43174e-05
5.11948e-05
5.71829e-06
1.45434e-05
4.93028e-05
4.10739e-06
1.32522e-05
4.81342e-05
2.42679e-06
1.14727e-05
4.71685e-05
1.03976e-06
1.00592e-05
4.58812e-05
-5.36012e-08
9.19452e-06
4.40068e-05
-8.02128e-07
8.73829e-06
4.16182e-05
-1.44529e-06
8.62926e-06
3.90603e-05
-2.51187e-06
8.74912e-06
3.67615e-05
-3.93518e-06
8.69339e-06
3.50858e-05
-5.09801e-06
8.04238e-06
3.4166e-05
-5.70843e-06
6.81038e-06
3.39833e-05
-6.05504e-06
5.39801e-06
3.44999e-05
-5.67428e-06
3.89799e-06
3.5586e-05
-3.5598e-06
2.13384e-06
3.70592e-05
-4.22192e-07
4.16508e-07
3.89357e-05
1.69327e-06
-3.53729e-07
4.12798e-05
9.20557e-07
1.79953e-07
4.39691e-05
-3.18489e-06
1.52925e-06
4.68294e-05
-1.03116e-05
3.00642e-06
4.98769e-05
-1.84939e-05
3.11963e-06
5.26669e-05
-2.2333e-05
1.01017e-06
5.40715e-05
-1.86484e-05
-2.69304e-06
5.35397e-05
-1.04025e-05
-6.4864e-06
5.16329e-05
-2.55309e-06
-9.57205e-06
4.92241e-05
2.1808e-06
-1.15575e-05
4.67275e-05
2.98765e-06
-1.18873e-05
4.40799e-05
8.48436e-07
-1.10758e-05
4.11977e-05
-1.40244e-06
-1.04203e-05
3.85927e-05
-1.84437e-06
-1.03255e-05
3.71447e-05
-6.36418e-07
-1.00655e-05
1.31228e-06
-9.07031e-06
5.31672e-05
2.48785e-06
-1.15834e-05
5.57328e-05
1.11515e-06
-1.07067e-05
5.97123e-05
-2.81184e-06
-9.44328e-06
6.47399e-05
-7.44587e-06
-7.07504e-06
7.04586e-05
-9.50628e-06
-3.06925e-06
7.607e-05
-7.14028e-06
1.9935e-06
8.00604e-05
-1.82577e-06
7.72844e-06
8.09814e-05
3.26588e-06
1.33368e-05
7.87656e-05
6.35266e-06
1.73546e-05
7.50573e-05
6.89095e-06
1.88645e-05
7.18544e-05
5.40143e-06
1.80022e-05
6.9906e-05
3.13767e-06
1.60327e-05
6.86843e-05
1.05406e-06
1.42533e-05
6.73538e-05
-5.30742e-07
1.2947e-05
6.53852e-05
-1.47241e-06
1.18454e-05
6.26606e-05
-2.08059e-06
1.10488e-05
5.9299e-05
-3.09582e-06
1.08528e-05
5.55583e-05
-4.54672e-06
1.09749e-05
5.20091e-05
-5.92938e-06
1.06843e-05
4.93273e-05
-7.17908e-06
9.68872e-06
4.79387e-05
-8.58131e-06
8.40203e-06
4.79112e-05
-8.90137e-06
6.92684e-06
4.89565e-05
-6.09576e-06
4.87929e-06
5.07125e-05
-1.17449e-06
2.5684e-06
5.3148e-05
2.12076e-06
1.35978e-06
5.63171e-05
7.05663e-07
2.10327e-06
5.98635e-05
-6.13113e-06
4.60893e-06
6.33199e-05
-1.76574e-05
7.74941e-06
6.71277e-05
-3.08216e-05
9.3896e-06
7.16095e-05
-3.86959e-05
7.71707e-06
7.52475e-05
-3.46947e-05
3.0514e-06
7.63457e-05
-2.16817e-05
-3.23232e-06
7.5067e-05
-8.26282e-06
-8.90862e-06
7.26407e-05
5.72178e-07
-1.29502e-05
6.98558e-05
3.15859e-06
-1.42342e-05
6.66722e-05
7.87434e-07
-1.32955e-05
6.26284e-05
-2.16002e-06
-1.22328e-05
5.79779e-05
-2.63695e-06
-1.21713e-05
5.41548e-05
-1.07224e-06
-1.25063e-05
1.20114e-06
-1.2312e-05
7.05315e-05
2.38443e-06
-1.51743e-05
7.17998e-05
-3.58495e-08
-1.57166e-05
7.51077e-05
-6.543e-06
-1.58661e-05
8.01201e-05
-1.50758e-05
-1.46831e-05
8.67866e-05
-2.09966e-05
-1.14361e-05
9.4903e-05
-2.07153e-05
-5.85716e-06
0.000102954
-1.42231e-05
1.59515e-06
0.000107884
-5.04036e-06
1.0099e-05
0.000107725
2.29283e-06
1.74766e-05
0.000103691
5.94939e-06
2.17156e-05
9.89652e-05
5.86986e-06
2.23418e-05
9.57911e-05
3.5477e-06
2.06971e-05
9.41476e-05
7.50438e-07
1.88827e-05
9.29102e-05
-1.49574e-06
1.75849e-05
9.11861e-05
-2.6892e-06
1.60954e-05
8.86404e-05
-3.06334e-06
1.42723e-05
8.5085e-05
-3.59801e-06
1.30646e-05
8.02449e-05
-4.46286e-06
1.29133e-05
7.44313e-05
-5.36078e-06
1.30046e-05
6.88037e-05
-6.85378e-06
1.25042e-05
6.47137e-05
-9.83395e-06
1.16647e-05
6.29433e-05
-1.21214e-05
1.06554e-05
6.3264e-05
-9.48672e-06
8.74887e-06
6.4922e-05
-2.58184e-06
6.0039e-06
6.7622e-05
2.5327e-06
4.39258e-06
7.13735e-05
7.00834e-07
5.46046e-06
7.55264e-05
-9.19787e-06
9.18434e-06
7.88053e-05
-2.5343e-05
1.40485e-05
8.15343e-05
-4.40467e-05
1.76087e-05
8.61994e-05
-5.78225e-05
1.77809e-05
9.30731e-05
-5.71686e-05
1.35642e-05
9.87353e-05
-4.16542e-05
5.74448e-06
0.000100766
-2.08211e-05
-3.98359e-06
9.99006e-05
-4.97524e-06
-1.19649e-05
9.76176e-05
1.74249e-06
-1.56845e-05
9.44041e-05
4.48284e-07
-1.52138e-05
8.97355e-05
-2.75209e-06
-1.3583e-05
8.33406e-05
-3.07616e-06
-1.31324e-05
7.66684e-05
-1.08015e-06
-1.37813e-05
1.31661e-06
-1.45678e-05
9.39491e-05
2.82192e-06
-1.68336e-05
9.29376e-05
-5.67403e-07
-1.89233e-05
9.36419e-05
-9.5265e-06
-2.10159e-05
9.57856e-05
-2.24542e-05
-2.2303e-05
9.99915e-05
-3.36544e-05
-2.15793e-05
0.000107151
-3.79055e-05
-1.81022e-05
0.000117993
-3.40755e-05
-1.12947e-05
0.000129772
-2.38474e-05
-8.49929e-07
0.000136388
-1.0602e-05
1.11671e-05
0.000135225
-3.0267e-07
2.0621e-05
0.000129931
3.7441e-06
2.48312e-05
0.000125331
2.82812e-06
2.45027e-05
0.00012307
-2.17599e-07
2.29056e-05
0.000121982
-3.19791e-06
2.222e-05
0.000120673
-4.78462e-06
2.142e-05
0.000118728
-4.81701e-06
1.90769e-05
0.000115917
-4.50186e-06
1.6249e-05
0.000111263
-4.24641e-06
1.48524e-05
0.00010406
-3.85728e-06
1.48522e-05
9.51626e-05
-4.51172e-06
1.48879e-05
8.67279e-05
-8.45657e-06
1.46546e-05
8.10653e-05
-1.35628e-05
1.43768e-05
7.90532e-05
-1.26525e-05
1.307e-05
7.97656e-05
-4.32378e-06
1.0232e-05
8.2275e-05
3.14415e-06
8.28098e-06
8.63972e-05
1.50372e-06
9.54382e-06
9.15256e-05
-1.12634e-05
1.38941e-05
9.56587e-05
-3.14042e-05
1.90432e-05
9.70599e-05
-5.34353e-05
2.28514e-05
9.81363e-05
-7.19608e-05
2.52566e-05
0.000103907
-7.84867e-05
2.50877e-05
0.000114279
-6.67889e-05
1.92981e-05
0.000123551
-4.26414e-05
7.43076e-06
0.000128068
-1.78651e-05
-6.33716e-06
0.000128325
-3.35864e-06
-1.49661e-05
0.000125935
-9.25388e-07
-1.65578e-05
0.000121361
-3.11527e-06
-1.47402e-05
0.000114265
-2.91529e-06
-1.34951e-05
0.000105575
-3.08906e-07
-1.38233e-05
2.10977e-06
-1.506e-05
0.000124736
3.9842e-06
-1.59644e-05
0.000122897
2.01694e-07
-1.8897e-05
0.000121379
-9.55394e-06
-2.22139e-05
0.000118604
-2.49854e-05
-2.60662e-05
0.000116664
-4.1071e-05
-2.94579e-05
0.000118189
-5.10354e-05
-3.00606e-05
0.000125493
-5.25627e-05
-2.63583e-05
0.00013974
-4.6718e-05
-1.76668e-05
0.00015552
-3.35188e-05
-3.74996e-06
0.000163271
-1.65566e-05
1.21375e-05
0.000161235
-4.5259e-06
2.30757e-05
0.00015625
-1.12494e-06
2.6251e-05
0.000153672
-3.02417e-06
2.50581e-05
0.00015321
-6.25521e-06
2.47765e-05
0.000152475
-8.08419e-06
2.58512e-05
0.000151009
-7.63497e-06
2.48925e-05
0.000149508
-6.28433e-06
2.10905e-05
0.000146871
-4.77134e-06
1.75165e-05
0.000140781
-2.81922e-06
1.63999e-05
0.000130447
-1.6754e-06
1.66781e-05
0.000117586
-4.85913e-06
1.71085e-05
0.000105837
-1.17589e-05
1.75935e-05
9.87404e-05
-1.36154e-05
1.71543e-05
9.67918e-05
-5.42879e-06
1.45961e-05
9.84561e-05
4.21023e-06
1.22691e-05
0.000102723
3.74039e-06
1.32742e-05
0.000109035
-1.08282e-05
1.74225e-05
0.000115786
-3.40481e-05
2.13145e-05
0.000119517
-5.72914e-05
2.30696e-05
0.000118129
-7.55377e-05
2.54543e-05
0.000117007
-8.66761e-05
3.04791e-05
0.000124113
-8.49508e-05
3.21115e-05
0.000138297
-6.6668e-05
2.32177e-05
0.000151446
-3.86421e-05
6.12191e-06
0.000158059
-1.45044e-05
-9.84073e-06
0.000158217
-4.49014e-06
-1.6213e-05
0.000154386
-3.21748e-06
-1.56561e-05
0.00014775
-2.03497e-06
-1.35801e-05
0.000138826
1.06459e-06
-1.28414e-05
3.61275e-06
-1.37504e-05
0.000157911
4.72457e-06
-1.2073e-05
0.000158456
1.72537e-06
-1.50489e-05
0.000158454
-6.5607e-06
-1.86275e-05
0.00015292
-2.06261e-05
-2.39413e-05
0.000143632
-3.85344e-05
-3.16394e-05
0.000136842
-5.39616e-05
-3.87064e-05
0.000136754
-6.17968e-05
-4.02649e-05
0.000145973
-6.26582e-05
-3.46423e-05
0.000164151
-5.61735e-05
-2.21247e-05
0.000181627
-4.02544e-05
-3.36532e-06
0.000187413
-2.1009e-05
1.54562e-05
0.000183893
-9.8625e-06
2.49384e-05
0.000181314
-9.0404e-06
2.4924e-05
0.000183
-1.23695e-05
2.35274e-05
0.000184429
-1.36474e-05
2.58231e-05
0.000183044
-1.12657e-05
2.80216e-05
0.000181795
-8.21238e-06
2.5672e-05
0.00018218
-6.15413e-06
2.0568e-05
0.000180718
-3.78936e-06
1.75054e-05
0.000173369
-1.17648e-06
1.7522e-05
0.000159303
-2.13949e-06
1.87675e-05
0.00014153
-7.72367e-06
2.00518e-05
0.000126495
-1.07372e-05
2.05383e-05
0.000118778
-4.10536e-06
1.87976e-05
0.00011797
6.05477e-06
1.64312e-05
0.000121978
6.61013e-06
1.67568e-05
0.000129159
-8.51595e-06
1.95705e-05
0.000138034
-3.33039e-05
2.11957e-05
0.000145709
-5.6741e-05
2.00156e-05
0.000147332
-7.17942e-05
2.05573e-05
0.000142184
-8.05755e-05
2.82446e-05
0.000139957
-8.589e-05
3.83759e-05
0.000150022
-8.12232e-05
3.75395e-05
0.000168471
-6.07993e-05
2.16173e-05
0.000183079
-3.17525e-05
9.43675e-07
0.000185916
-9.59795e-06
-1.24877e-05
0.000179949
-1.35007e-07
-1.56311e-05
0.000172747
1.30707e-06
-1.34747e-05
0.000166681
1.7514e-06
-1.08474e-05
3.71019e-06
-1.03147e-05
0.000179109
2.86691e-06
-3.94309e-06
0.000186548
3.06181e-07
-5.22447e-06
0.000194447
-5.47918e-06
-8.44157e-06
0.000193559
-1.31707e-05
-1.49225e-05
0.000181225
-2.6808e-05
-2.60538e-05
0.000166218
-4.48459e-05
-4.02539e-05
0.000157946
-5.94864e-05
-5.07207e-05
0.000159362
-6.65078e-05
-5.10406e-05
0.000171776
-6.80761e-05
-4.10482e-05
0.000192652
-6.16943e-05
-2.22482e-05
0.000209125
-4.46031e-05
1.696e-06
0.000211165
-2.43856e-05
1.96718e-05
0.000206205
-1.65092e-05
2.39204e-05
0.000207134
-2.06936e-05
2.06522e-05
0.000213114
-2.39487e-05
2.08306e-05
0.000214265
-1.73882e-05
2.47817e-05
0.000210043
-7.47166e-06
2.54456e-05
0.000208823
-3.69349e-06
2.09025e-05
0.000212932
-5.32538e-06
1.63288e-05
0.000215303
-6.28186e-06
1.59654e-05
0.000208016
-6.06397e-06
1.85593e-05
0.000189363
-6.31916e-06
2.11172e-05
0.000166414
-4.84204e-06
2.25002e-05
0.000149564
1.94183e-06
2.21356e-05
0.000143294
9.89393e-06
2.08955e-05
0.000145957
8.21376e-06
2.08505e-05
0.000154063
-8.86973e-06
2.1332e-05
0.000164741
-3.45728e-05
1.90039e-05
0.000175124
-5.59467e-05
1.30071e-05
0.000180615
-6.56562e-05
1.04071e-05
0.000176904
-6.7697e-05
1.96193e-05
0.000168013
-7.19109e-05
3.65544e-05
0.000167909
-7.91598e-05
4.50142e-05
0.00018302
-7.53056e-05
3.40078e-05
0.000200964
-5.08882e-05
1.22296e-05
0.000205416
-1.63881e-05
-6.73959e-06
0.000195105
6.73437e-06
-1.47292e-05
0.00018283
1.10144e-05
-1.36724e-05
0.000176967
5.92869e-06
-8.6489e-06
3.2258e-06
-4.83145e-06
0.000190049
4.35121e-06
4.57951e-06
0.000199081
-6.15332e-07
8.95305e-06
0.000215394
-7.94704e-06
9.45784e-06
0.000227442
-1.12726e-05
3.21106e-06
0.000222515
-1.34354e-05
-1.2449e-05
0.000204241
-2.61957e-05
-3.26562e-05
0.000187865
-4.60707e-05
-5.25183e-05
0.000182344
-6.03839e-05
-6.33894e-05
0.000187397
-6.73618e-05
-5.99807e-05
0.000202491
-7.06991e-05
-4.36732e-05
0.000224377
-6.58114e-05
-1.86785e-05
0.000239691
-4.88094e-05
7.22199e-06
0.000239308
-2.96116e-05
2.05546e-05
0.000232852
-2.58269e-05
1.9664e-05
0.000234652
-3.20623e-05
1.57961e-05
0.000241486
-2.8296e-05
1.72281e-05
0.000241528
-1.11197e-05
2.03275e-05
0.000235723
2.33328e-06
1.91579e-05
0.00023475
5.25116e-07
1.47411e-05
0.000242606
-1.1354e-05
1.30048e-05
0.00024974
-2.06258e-05
1.62545e-05
0.000242119
-1.68201e-05
2.02527e-05
0.00021864
-2.44056e-06
2.21343e-05
0.000193109
1.21046e-05
2.29988e-05
0.000178473
1.81829e-05
2.46202e-05
0.000176945
1.02111e-05
2.63147e-05
0.000184052
-1.21203e-05
2.49936e-05
0.000195654
-4.05813e-05
1.75153e-05
0.000208685
-6.02216e-05
4.24425e-06
0.00021767
-6.31172e-05
-4.67334e-06
0.000216498
-5.5334e-05
3.54866e-06
0.000204922
-5.18925e-05
2.70738e-05
0.000194779
-6.26738e-05
4.58591e-05
0.000199884
-7.56035e-05
4.23755e-05
0.000214824
-6.39456e-05
2.11851e-05
0.000221027
-2.47182e-05
-4.11955e-07
0.000211956
1.13169e-05
-1.29107e-05
0.000198073
2.20362e-05
-1.49851e-05
0.00018983
1.42893e-05
-9.20606e-06
6.96054e-06
-1.25733e-06
0.000209167
1.19619e-05
1.97011e-06
0.000211595
3.19645e-06
1.18811e-05
0.000226616
-1.04628e-05
2.10536e-05
0.000248666
-1.46658e-05
2.06698e-05
0.000258763
-7.12911e-06
6.75113e-06
0.000247595
-5.95405e-06
-1.86448e-05
0.000226793
-2.38502e-05
-4.48406e-05
0.000213127
-4.48388e-05
-6.60562e-05
0.000212585
-5.80722e-05
-7.41189e-05
0.000221651
-6.73593e-05
-6.53169e-05
0.000238829
-7.48014e-05
-4.25228e-05
0.000260397
-7.20853e-05
-1.27447e-05
0.000272914
-5.41577e-05
1.0923e-05
0.000268805
-3.50949e-05
1.74084e-05
0.000260288
-3.1625e-05
1.27805e-05
0.000261585
-3.24137e-05
1.02968e-05
0.000268866
-2.06303e-05
1.4e-05
0.000270716
-1.81332e-06
1.77465e-05
0.000266081
6.68736e-06
1.62138e-05
0.000265025
-5.54646e-06
1.27146e-05
0.00027468
-3.10466e-05
1.38186e-05
0.000283309
-3.90605e-05
1.80398e-05
0.00027346
-1.531e-05
1.9821e-05
0.000248847
1.62665e-05
2.08885e-05
0.000227698
2.76788e-05
2.62105e-05
0.000218626
1.67265e-05
3.20604e-05
0.000218968
-8.83282e-06
2.98232e-05
0.000226022
-4.06246e-05
1.66199e-05
0.000240086
-6.60781e-05
-1.76188e-06
0.000254739
-6.98164e-05
-1.61954e-05
0.00025848
-5.16023e-05
-1.44175e-05
0.000247301
-3.60485e-05
1.13855e-05
0.000230336
-3.96812e-05
4.05682e-05
0.000223433
-6.09414e-05
4.79964e-05
0.000229974
-6.44401e-05
3.0888e-05
0.000236554
-3.15662e-05
7.87525e-06
0.000234217
1.03243e-05
-9.10588e-06
0.000226303
2.7559e-05
-1.69467e-05
0.000218836
2.26023e-05
-1.50958e-05
1.52014e-05
-6.79665e-06
0.000243323
2.26789e-05
-9.85976e-06
0.000238391
1.19485e-05
-2.04377e-06
0.000245874
-8.6848e-06
1.11337e-05
0.000267744
-1.98855e-05
2.19543e-05
0.000289219
-8.41214e-06
1.66469e-05
0.000291305
6.30689e-06
-5.40995e-06
0.00027413
-1.19383e-06
-3.32289e-05
0.000253692
-2.28873e-05
-5.95054e-05
0.000245506
-4.16286e-05
-7.84814e-05
0.000251087
-5.62867e-05
-8.18021e-05
0.000264102
-7.21175e-05
-6.60642e-05
0.000281745
-8.43173e-05
-3.60538e-05
0.000298429
-7.72292e-05
-5.60199e-06
0.00030273
-5.18763e-05
1.0593e-05
0.000294432
-3.18238e-05
9.50265e-06
0.000287534
-2.72337e-05
5.30278e-06
0.000291447
-2.37334e-05
8.60252e-06
0.000300781
-1.2082e-05
1.65969e-05
0.00030506
1.20715e-06
1.99987e-05
0.000301605
3.90033e-07
1.65922e-05
0.000299885
-2.44972e-05
1.28593e-05
0.000307333
-4.85996e-05
1.35562e-05
0.000313085
-3.64577e-05
1.53358e-05
0.000304507
7.16332e-07
1.81733e-05
0.000286602
2.39494e-05
2.7185e-05
0.000270796
2.25115e-05
3.69915e-05
0.000260543
5.74477e-06
3.32463e-05
0.000256984
-2.21552e-05
1.38313e-05
0.000265605
-5.67585e-05
-7.90077e-06
0.000285029
-7.61643e-05
-2.33861e-05
0.000297918
-6.11623e-05
-2.50932e-05
0.000292002
-3.14864e-05
-4.97577e-06
0.000272597
-2.1659e-05
3.10701e-05
0.000256044
-3.80266e-05
5.08315e-05
0.000251976
-5.03911e-05
4.15192e-05
0.000255306
-2.92915e-05
1.83365e-05
0.000258611
8.00184e-06
-3.43658e-06
0.000259842
2.63937e-05
-1.7594e-05
0.000258158
2.55165e-05
-2.14419e-05
2.3128e-05
-1.65149e-05
0.000293488
2.83765e-05
-2.27101e-05
0.000284966
2.06564e-05
-2.01898e-05
0.000283067
-2.03439e-06
-1.03231e-05
0.000296218
-1.98557e-05
5.07416e-06
0.000320567
-1.36606e-05
1.06253e-05
0.000335301
6.57729e-06
-9.77574e-07
0.000327109
1.31161e-05
-2.42234e-05
0.000304218
-5.57875e-07
-5.03963e-05
0.000287495
-1.93478e-05
-7.52913e-05
0.000287883
-3.8581e-05
-8.94868e-05
0.000299601
-6.12852e-05
-8.44257e-05
0.000314051
-8.4506e-05
-5.97794e-05
0.000327594
-9.03821e-05
-2.61543e-05
0.000334278
-6.73508e-05
-1.70293e-06
0.000329976
-3.5885e-05
4.8066e-06
0.000321794
-1.9973e-05
1.08484e-06
0.000320163
-1.78885e-05
3.01382e-06
0.000327762
-1.54059e-05
1.37516e-05
0.000338997
-8.12355e-06
2.43713e-05
0.000344841
-3.45096e-06
2.51073e-05
0.000341086
-1.52833e-05
1.68782e-05
0.000335237
-3.78254e-05
9.97815e-06
0.000334958
-4.2999e-05
1.13942e-05
0.000333827
-2.14696e-05
1.99066e-05
0.00032436
4.74292e-06
3.25171e-05
0.000311316
1.81846e-05
3.99092e-05
0.000301509
1.67182e-05
3.07069e-05
0.000295553
-2.0959e-07
6.66581e-06
0.000297799
-3.5153e-05
-1.57868e-05
0.000314667
-6.94608e-05
-2.89624e-05
0.000334189
-7.06989e-05
-2.90795e-05
0.000336159
-4.02667e-05
-1.27099e-05
0.000318503
-1.69947e-05
2.14212e-05
0.00029685
-1.89808e-05
4.99406e-05
0.000284115
-2.79222e-05
5.13911e-05
0.000282253
-1.52833e-05
3.07095e-05
0.000286838
1.09254e-05
5.75418e-06
0.000294642
2.44043e-05
-1.47632e-05
0.000300923
2.25466e-05
-2.46866e-05
2.37127e-05
-2.48193e-05
0.000345002
2.17269e-05
-3.18028e-05
0.000341073
1.98299e-05
-3.21758e-05
0.000333045
4.9848e-06
-2.38656e-05
0.000333058
-1.12922e-05
-1.01666e-05
0.0003506
-1.27188e-05
-1.50663e-06
0.000373561
2.56067e-06
-5.57391e-06
0.000379173
1.70583e-05
-2.00965e-05
0.000361738
1.59203e-05
-4.15491e-05
0.000340157
5.00259e-06
-6.78506e-05
0.000333811
-1.34864e-05
-9.01107e-05
0.000343243
-4.14741e-05
-9.61978e-05
0.000357164
-7.45218e-05
-8.08125e-05
0.000367909
-9.24743e-05
-4.96347e-05
0.000372646
-7.70454e-05
-1.85579e-05
0.000369447
-4.11712e-05
-3.37371e-06
0.000361762
-1.46869e-05
-2.69639e-06
0.000357302
-7.5769e-06
-2.053e-06
0.000360955
-9.99339e-06
9.97412e-06
0.00037239
-1.1577e-05
2.62655e-05
0.000384236
-1.05509e-05
3.29947e-05
0.00038504
-1.3621e-05
2.47519e-05
0.000371838
-2.37432e-05
1.27927e-05
0.000355033
-3.12368e-05
1.12794e-05
0.000343684
-2.53909e-05
1.95691e-05
0.000338526
-1.02879e-05
2.78529e-05
0.000338998
4.62271e-06
2.74193e-05
0.000341968
1.42471e-05
1.46378e-05
0.000341912
1.15269e-05
-5.47412e-06
0.000341566
-1.40533e-05
-2.41204e-05
0.000352474
-5.41235e-05
-3.29912e-05
0.00037231
-7.35035e-05
-2.96652e-05
0.00038002
-5.2549e-05
-1.38249e-05
0.000365036
-2.16779e-05
1.66371e-05
0.000340915
-1.0434e-05
4.62362e-05
0.000324503
-9.70806e-06
5.44959e-05
0.00032029
1.64111e-06
3.93748e-05
0.000323257
2.15803e-05
1.57542e-05
0.000328878
3.03567e-05
-5.7491e-06
0.000335673
2.3797e-05
-2.01484e-05
1.87147e-05
-2.76437e-05
0.000375042
5.94319e-06
-2.66421e-05
0.000381671
5.57458e-06
-2.72596e-05
0.000376941
1.89916e-06
-1.85132e-05
0.000368992
-3.00832e-06
-8.01503e-06
0.000375298
-2.83392e-06
-3.13949e-06
0.00039854
5.63533e-06
-6.5608e-06
0.00041814
1.75559e-05
-1.71235e-05
0.000415196
2.65315e-05
-3.43433e-05
0.000398092
2.65067e-05
-5.85166e-05
0.000389502
1.42849e-05
-8.42394e-05
0.000396593
-1.4056e-05
-9.98671e-05
0.000409645
-5.4558e-05
-9.6148e-05
0.00041841
-8.41383e-05
-7.29142e-05
0.00042028
-7.90329e-05
-4.0992e-05
0.000415753
-4.50976e-05
-1.69163e-05
0.000407968
-1.22548e-05
-7.39365e-06
0.000402708
1.59996e-06
-4.00637e-06
0.000403471
1.3587e-07
5.26403e-06
0.000410411
-5.75944e-06
2.0851e-05
0.000419413
-1.12502e-05
3.31791e-05
0.000421936
-1.55961e-05
3.1723e-05
0.000411011
-1.69544e-05
1.90456e-05
0.000390456
-1.4546e-05
8.49675e-06
0.000373047
-1.15738e-05
7.1856e-06
0.000369214
-1.17724e-05
9.97495e-06
0.000378098
-1.12026e-05
1.00304e-05
0.000388178
-1.68202e-06
2.62996e-06
0.000389283
9.57954e-06
-9.03943e-06
0.000386075
1.31339e-06
-2.00199e-05
0.000391573
-3.44702e-05
-2.48521e-05
0.000408674
-6.8227e-05
-2.17781e-05
0.000421027
-6.3023e-05
-8.86908e-06
0.000412707
-3.36906e-05
1.69081e-05
0.000391031
-1.25786e-05
4.45194e-05
0.000372535
3.7303e-07
5.41313e-05
0.000363486
1.80295e-05
4.14156e-05
0.000359416
3.72238e-05
2.33595e-05
0.000356309
4.16387e-05
1.00815e-05
0.000356352
2.7832e-05
-2.49783e-06
1.1795e-05
-1.63025e-05
0.000401299
-5.5866e-06
-9.21616e-06
0.000414105
-9.21599e-06
-1.55137e-05
0.000415884
-6.87227e-06
-1.0629e-05
0.000408224
2.26539e-07
5.83936e-07
0.000405523
1.15011e-05
7.70976e-06
0.000419846
2.10796e-05
3.5571e-06
0.000444809
2.71292e-05
-1.04045e-05
0.000461128
3.27996e-05
-2.64289e-05
0.000461399
3.87542e-05
-4.47134e-05
0.000459469
3.71198e-05
-6.84273e-05
0.000466687
1.63975e-05
-9.19129e-05
0.000477601
-2.51084e-05
-0.000102245
0.000482299
-6.33264e-05
-9.12157e-05
0.000479017
-6.84628e-05
-6.43121e-05
0.000470141
-4.06741e-05
-3.58917e-05
0.00045951
-8.8651e-06
-1.66467e-05
0.000452928
5.93836e-06
-5.82545e-06
0.000452224
6.94053e-06
3.2479e-06
0.000454426
2.87632e-06
1.61985e-05
0.000455535
-4.14066e-06
2.97248e-05
0.000452623
-1.13822e-05
3.26837e-05
0.000443878
-1.14698e-05
2.14493e-05
0.000431524
-3.32787e-06
5.33834e-06
0.000422821
9.03602e-07
-4.00375e-06
0.000423919
-9.23343e-06
-3.06138e-06
0.000432535
-2.41846e-05
3.46781e-06
0.00043773
-2.12991e-05
6.08325e-06
0.000433135
-7.53906e-08
4.9872e-07
0.000426479
9.94208e-06
-5.98633e-06
0.000428838
-1.3425e-05
-9.92833e-06
0.000443258
-5.22252e-05
-8.96968e-06
0.00045983
-6.63791e-05
3.08006e-07
0.000462851
-4.6749e-05
1.95007e-05
0.000449093
-1.8344e-05
4.21224e-05
0.000428376
6.78606e-06
5.23992e-05
0.000409543
3.08908e-05
4.38977e-05
0.000394406
5.13477e-05
2.833e-05
0.00038384
5.42962e-05
1.78943e-05
0.000380575
3.56905e-05
1.17354e-05
1.00041e-05
3.06043e-06
0.000440384
3.88077e-06
1.39728e-05
0.000451302
-4.27108e-06
4.85991e-06
0.000453724
-2.52064e-06
2.75492e-06
0.000448306
8.34058e-06
7.85456e-06
0.000444009
2.62259e-05
1.48831e-05
0.000450849
4.16172e-05
1.59803e-05
0.00046929
4.55544e-05
8.44933e-06
0.000491193
4.08022e-05
-6.47102e-06
0.000510056
3.68456e-05
-2.29733e-05
0.000527572
3.67726e-05
-4.30451e-05
0.00054565
2.87879e-05
-6.80857e-05
0.000558046
6.99161e-07
-9.0486e-05
0.000558381
-3.40908e-05
-9.65309e-05
0.000548435
-4.6701e-05
-7.99253e-05
0.000533751
-2.94981e-05
-5.10884e-05
0.000519081
-5.02581e-06
-2.62747e-05
0.000507782
8.63207e-06
-1.10414e-05
0.000501243
1.19433e-05
-2.08491e-08
0.000497653
1.09337e-05
1.23909e-05
0.000493327
5.75321e-06
2.54538e-05
0.000485757
-5.81541e-07
2.98882e-05
0.000477798
-4.04825e-07
1.85286e-05
0.000476579
6.24186e-06
-1.535e-06
0.000485036
7.44979e-06
-1.35535e-05
0.000497044
-9.96835e-06
-8.21514e-06
0.000500595
-3.39461e-05
6.53068e-06
0.000491225
-3.71547e-05
1.62535e-05
0.000476823
-1.29901e-05
1.82254e-05
0.000469974
9.76177e-06
1.9762e-05
0.000475387
4.61656e-06
1.77498e-05
0.000490276
-2.72306e-05
8.74007e-06
0.000507458
-5.40853e-05
5.05733e-06
0.000516007
-4.99721e-05
1.82325e-05
0.000507841
-2.05778e-05
3.94894e-05
0.00048588
1.31444e-05
4.82931e-05
0.000458295
4.10958e-05
3.8038e-05
0.000434011
5.92688e-05
2.51403e-05
0.000420217
6.11156e-05
2.34865e-05
0.000418951
4.55006e-05
2.75683e-05
2.21598e-05
2.46505e-05
0.000485736
2.69945e-05
3.08428e-05
0.00050106
1.7812e-05
1.57819e-05
0.000510418
1.54791e-05
6.41e-06
0.000509899
2.02437e-05
1.01149e-05
0.000504704
3.30848e-05
2.30358e-05
0.000504625
5.00292e-05
3.28935e-05
0.000513394
6.03519e-05
2.89209e-05
0.000527907
5.50962e-05
1.3165e-05
0.000546691
3.71403e-05
-2.30287e-06
0.00057221
1.88455e-05
-1.30374e-05
0.000602221
8.48143e-06
-3.04107e-05
0.000624215
-4.8488e-07
-5.94234e-05
0.000627253
-1.34654e-05
-8.39335e-05
0.000617023
-2.17988e-05
-8.70472e-05
0.000605543
-1.53926e-05
-7.01886e-05
0.000595592
-1.77144e-06
-4.59263e-05
0.000584738
7.34319e-06
-2.30741e-05
0.000570787
1.40865e-05
-6.54564e-06
0.000555893
1.8132e-05
4.14946e-06
0.000542386
1.60452e-05
1.38134e-05
0.000531938
8.86696e-06
2.35906e-05
0.000528771
2.14565e-06
2.63944e-05
0.000538194
-1.53287e-06
1.70047e-05
0.000560538
-1.01026e-05
3.33432e-06
0.00058237
-2.87215e-05
-1.1379e-06
0.00058517
-4.90617e-05
1.24221e-05
0.000565699
-5.09072e-05
3.48005e-05
0.000541266
-2.43877e-05
5.19546e-05
0.000529939
1.22582e-05
5.7132e-05
0.000533828
2.90603e-05
4.52948e-05
0.000545783
1.13688e-05
2.01582e-05
0.000559745
-2.36247e-05
1.80571e-06
0.000567648
-4.06942e-05
4.901e-06
0.000558934
-2.15217e-05
2.40248e-05
0.000532835
1.62271e-05
3.84049e-05
0.000499398
4.93294e-05
3.46472e-05
0.000472625
6.8645e-05
2.44872e-05
0.000460664
7.26184e-05
2.47408e-05
0.000461842
6.20583e-05
3.4077e-05
4.34483e-05
3.88326e-05
0.00054786
4.74674e-05
1.14331e-05
0.000560495
3.33916e-05
1.28503e-05
0.000568392
2.72138e-05
1.55524e-05
0.000567992
2.72773e-05
2.04899e-05
0.000562635
3.30931e-05
2.80875e-05
0.000560289
4.25916e-05
3.67836e-05
0.000566663
4.80132e-05
4.16144e-05
0.000580279
4.16244e-05
3.61381e-05
0.000596471
2.36454e-05
1.98574e-05
0.000615277
2.2981e-06
-2.99665e-07
0.000639574
-1.07662e-05
-2.11384e-05
0.000668064
-1.69444e-05
-4.26583e-05
0.000688861
-1.79234e-05
-6.25686e-05
0.000692297
-1.21661e-05
-7.48918e-05
0.000683043
1.30434e-07
-7.55437e-05
0.000671529
1.21209e-05
-6.57373e-05
0.000662115
1.74828e-05
-4.85269e-05
0.000653222
1.85036e-05
-2.89584e-05
0.000641231
1.76961e-05
-1.51219e-05
0.000625007
1.51674e-05
-6.91388e-06
0.000609158
1.17359e-05
2.58456e-06
0.00060198
5.62693e-06
1.6086e-05
0.000609108
-7.82327e-06
2.67042e-05
0.000626987
-3.0127e-05
2.70957e-05
0.000643247
-5.26985e-05
2.09414e-05
0.000645331
-6.35618e-05
2.24956e-05
0.000630973
-5.44571e-05
3.99418e-05
0.000610112
-2.28716e-05
6.08485e-05
0.000594345
1.86447e-05
6.40656e-05
0.00058697
4.36163e-05
4.19194e-05
0.000587966
3.25591e-05
7.60564e-06
0.000597899
-6.46245e-06
-1.50538e-05
0.00060854
-3.87574e-05
-1.22288e-05
0.000606795
-3.38454e-05
9.16212e-06
0.000585482
4.71133e-06
2.98187e-05
0.000555426
4.78667e-05
3.6365e-05
0.00053301
7.93699e-05
3.04146e-05
0.000525246
9.38172e-05