/*--------------------------------*- C++ -*----------------------------------*\
| =========                 |                                                 |
| \\      /  F ield         | OpenFOAM: The Open Source CFD Toolbox           |
|  \\    /   O peration     | Version:  2306                                  |
|   \\  /    A nd           | Website:  www.openfoam.com                      |
|    \\/     M anipulation  |                                                 |
\*---------------------------------------------------------------------------*/
FoamFile
{
    version     2.0;
    format      ascii;
    arch        "LSB;label=32;scalar=64";
    class       volScalarField;
    location    "9";
    object      pMean;
}
// * * * * * * * * * * * * * * * * * * * * * * * * * * * * * * * * * * * * * //

dimensions      [0 2 -2 0 0 0 0];

internalField   nonuniform List<scalar> 
60000
(
-9.03906e-06
-1.1578e-05
-5.66081e-06
2.90057e-06
1.05478e-05
1.3704e-05
1.01314e-05
9.75171e-07
-8.25366e-06
-9.90997e-06
-9.83502e-07
1.47255e-05
3.08521e-05
4.26937e-05
4.88204e-05
4.99537e-05
4.64003e-05
3.70649e-05
2.13819e-05
1.57037e-06
-1.66227e-05
-2.89992e-05
-3.6527e-05
-4.10103e-05
-4.10624e-05
-3.42982e-05
-1.73293e-05
1.19303e-05
4.82878e-05
7.97595e-05
9.72976e-05
0.000102634
0.000102982
0.000102917
0.000102604
9.98152e-05
8.9407e-05
6.66817e-05
3.54423e-05
7.01416e-06
-8.91207e-06
-1.18376e-05
-6.14083e-06
2.31918e-06
9.86326e-06
1.29039e-05
9.20215e-06
-7.53477e-08
-9.39134e-06
-1.10906e-05
-2.11007e-06
1.37035e-05
2.99365e-05
4.19146e-05
4.82321e-05
4.95887e-05
4.6238e-05
3.70654e-05
2.14989e-05
1.76019e-06
-1.63982e-05
-2.8786e-05
-3.6443e-05
-4.12435e-05
-4.17686e-05
-3.55346e-05
-1.90002e-05
1.00731e-05
4.65778e-05
7.84372e-05
9.64373e-05
0.000102215
0.000102951
0.000103215
0.000103194
0.00010075
9.06566e-05
6.80306e-05
3.65608e-05
7.64568e-06
-1.0085e-05
-1.33154e-05
-7.71735e-06
7.76526e-07
8.33615e-06
1.13964e-05
7.68551e-06
-1.66194e-06
-1.11308e-05
-1.29013e-05
-3.76334e-06
1.23261e-05
2.88034e-05
4.10007e-05
4.75528e-05
4.91536e-05
4.60259e-05
3.70147e-05
2.15308e-05
1.80413e-06
-1.63678e-05
-2.88054e-05
-3.66613e-05
-4.18224e-05
-4.28505e-05
-3.72052e-05
-2.12634e-05
7.54977e-06
4.4251e-05
7.65316e-05
9.49737e-05
0.000101171
0.000102329
0.000102917
0.000103128
0.000100929
9.10865e-05
6.84607e-05
3.65876e-05
7.03307e-06
-1.26175e-05
-1.60741e-05
-1.04146e-05
-1.79186e-06
5.82531e-06
8.94674e-06
5.24676e-06
-4.12866e-06
-1.37144e-05
-1.55294e-05
-6.09255e-06
1.05417e-05
2.75114e-05
4.00688e-05
4.6913e-05
4.87705e-05
4.58765e-05
3.70055e-05
2.15481e-05
1.79419e-06
-1.64055e-05
-2.89112e-05
-3.70237e-05
-4.26073e-05
-4.416e-05
-3.91047e-05
-2.38657e-05
4.51949e-06
4.13833e-05
7.4062e-05
9.28018e-05
9.9313e-05
0.000100921
0.000101924
0.000102375
0.000100311
9.05848e-05
6.78386e-05
3.54323e-05
5.09365e-06
-1.59156e-05
-1.96802e-05
-1.39836e-05
-5.20134e-06
2.41285e-06
5.48183e-06
1.80757e-06
-7.44683e-06
-1.6948e-05
-1.87341e-05
-8.95213e-06
8.42594e-06
2.61802e-05
3.92952e-05
4.64939e-05
4.85964e-05
4.58838e-05
3.71068e-05
2.16131e-05
1.79639e-06
-1.64037e-05
-2.90042e-05
-3.75672e-05
-4.38404e-05
-4.60543e-05
-4.17147e-05
-2.73846e-05
3.56221e-07
3.74256e-05
7.07043e-05
8.9875e-05
9.67055e-05
9.88579e-05
0.00010051
0.000101461
9.96767e-05
8.99372e-05
6.68852e-05
3.38088e-05
2.55525e-06
-1.97202e-05
-2.4163e-05
-1.8665e-05
-9.80684e-06
-2.22907e-06
5.70341e-07
-3.06939e-06
-1.17194e-05
-2.06069e-05
-2.20539e-05
-1.19043e-05
6.25686e-06
2.5033e-05
3.89638e-05
4.66334e-05
4.89756e-05
4.63821e-05
3.75437e-05
2.1769e-05
1.65836e-06
-1.67086e-05
-2.95791e-05
-3.91742e-05
-4.71133e-05
-5.07293e-05
-4.73458e-05
-3.4062e-05
-7.12961e-06
3.03637e-05
6.51394e-05
8.55853e-05
9.32506e-05
9.64351e-05
9.92027e-05
0.000101146
0.000100178
9.07054e-05
6.69295e-05
3.25517e-05
-6.97044e-08
-2.3389e-05
-2.92964e-05
-2.43944e-05
-1.58349e-05
-8.58838e-06
-6.40596e-06
-1.0508e-05
-1.84868e-05
-2.55165e-05
-2.5406e-05
-1.43976e-05
4.57442e-06
2.44374e-05
3.9384e-05
4.76653e-05
5.02621e-05
4.77194e-05
3.86471e-05
2.22327e-05
1.31481e-06
-1.76213e-05
-3.09252e-05
-4.17596e-05
-5.22185e-05
-5.85775e-05
-5.70512e-05
-4.50332e-05
-1.89003e-05
1.93481e-05
5.64809e-05
7.94729e-05
8.87912e-05
9.33893e-05
9.78788e-05
0.000101564
0.000102426
9.41733e-05
7.01467e-05
3.3851e-05
-1.4092e-06
-2.60904e-05
-3.4631e-05
-3.08596e-05
-2.28126e-05
-1.61091e-05
-1.47473e-05
-1.98054e-05
-2.81847e-05
-3.41679e-05
-3.1518e-05
-1.76398e-05
3.41242e-06
2.48484e-05
4.08807e-05
4.97496e-05
5.25738e-05
5.00823e-05
4.06659e-05
2.33516e-05
1.17135e-06
-1.858e-05
-3.17108e-05
-4.24442e-05
-5.4376e-05
-6.33181e-05
-6.41138e-05
-5.35675e-05
-2.83816e-05
9.95861e-06
4.82663e-05
7.25915e-05
8.31035e-05
8.8882e-05
9.49296e-05
0.000100621
0.000104032
9.8811e-05
7.64908e-05
3.88893e-05
-2.18476e-07
-2.60456e-05
-3.81054e-05
-3.67376e-05
-2.99816e-05
-2.41951e-05
-2.38101e-05
-2.9969e-05
-3.92927e-05
-4.52206e-05
-4.13624e-05
-2.5198e-05
-9.43343e-07
2.36999e-05
4.2052e-05
5.20193e-05
5.51132e-05
5.28698e-05
4.36032e-05
2.57349e-05
2.5167e-06
-1.73802e-05
-2.89057e-05
-3.72273e-05
-4.83467e-05
-5.8618e-05
-6.13499e-05
-5.23875e-05
-2.83166e-05
9.11762e-06
4.62487e-05
6.85028e-05
7.6439e-05
8.09204e-05
8.71841e-05
9.44182e-05
0.000100729
9.94685e-05
8.0999e-05
4.49738e-05
3.90212e-06
-2.20177e-05
-3.77942e-05
-3.93758e-05
-3.48898e-05
-3.09487e-05
-3.20306e-05
-3.96117e-05
-5.0484e-05
-5.76237e-05
-5.38477e-05
-3.65257e-05
-1.01113e-05
1.7346e-05
3.8503e-05
5.04869e-05
5.46575e-05
5.3054e-05
4.47161e-05
2.78479e-05
5.55816e-06
-1.3253e-05
-2.20191e-05
-2.59006e-05
-3.36481e-05
-4.33462e-05
-4.7128e-05
-3.95548e-05
-1.69304e-05
1.82806e-05
5.17753e-05
6.89382e-05
7.1265e-05
7.1417e-05
7.58474e-05
8.37964e-05
9.28852e-05
9.62378e-05
8.36387e-05
5.18113e-05
1.10032e-05
-1.0167e-05
-2.95474e-05
-3.526e-05
-3.47213e-05
-3.34249e-05
-3.62629e-05
-4.52748e-05
-5.83352e-05
-6.79292e-05
-6.62944e-05
-4.97439e-05
-2.27617e-05
6.20195e-06
2.86253e-05
4.20059e-05
4.76317e-05
4.76325e-05
4.08967e-05
2.56449e-05
5.5755e-06
-9.78256e-06
-1.42368e-05
-1.25371e-05
-1.50494e-05
-2.1773e-05
-2.51448e-05
-1.85971e-05
1.5232e-06
3.27362e-05
6.10002e-05
7.23208e-05
6.8154e-05
6.24305e-05
6.37532e-05
7.1768e-05
8.32688e-05
9.20782e-05
8.70547e-05
6.22035e-05
2.43912e-05
1.17988e-05
-1.12328e-05
-2.18175e-05
-2.68176e-05
-2.99734e-05
-3.49681e-05
-4.48367e-05
-5.96514e-05
-7.25234e-05
-7.45693e-05
-6.08065e-05
-3.45233e-05
-5.45389e-06
1.65472e-05
2.87331e-05
3.38583e-05
3.47134e-05
3.03213e-05
1.80189e-05
7.90806e-07
-1.10046e-05
-1.04734e-05
-2.06662e-06
2.96332e-06
1.7319e-06
3.87298e-07
6.26895e-06
2.24283e-05
4.69701e-05
6.93254e-05
7.71176e-05
7.00935e-05
6.03505e-05
5.78169e-05
6.44179e-05
7.72306e-05
9.03569e-05
9.30139e-05
7.73001e-05
4.55192e-05
3.46387e-05
1.02412e-05
-3.34883e-06
-1.27169e-05
-2.0747e-05
-2.89985e-05
-3.87901e-05
-5.41964e-05
-7.00716e-05
-7.6955e-05
-6.82247e-05
-4.43789e-05
-1.4862e-05
6.79713e-06
1.6461e-05
1.86885e-05
1.87277e-05
1.59844e-05
7.20707e-06
-5.7577e-06
-1.42132e-05
-1.1156e-05
2.0638e-06
1.61982e-05
2.32826e-05
2.63689e-05
3.15039e-05
4.33679e-05
6.01947e-05
7.60198e-05
8.25634e-05
7.81945e-05
6.77865e-05
6.22087e-05
6.57554e-05
7.71359e-05
9.08949e-05
9.80678e-05
9.0729e-05
6.62795e-05
5.19919e-05
2.88394e-05
1.40986e-05
3.28765e-06
-7.0938e-06
-1.76545e-05
-2.71895e-05
-4.22115e-05
-6.01251e-05
-7.19112e-05
-6.96011e-05
-5.04605e-05
-2.19186e-05
4.99949e-07
8.88125e-06
8.91869e-06
7.66351e-06
5.68579e-06
-6.21139e-08
-9.42055e-06
-1.61275e-05
-1.35318e-05
-3.66085e-07
1.81337e-05
3.38046e-05
4.25495e-05
4.88166e-05
5.7544e-05
6.8747e-05
8.00333e-05
8.70331e-05
8.7039e-05
8.08762e-05
7.51741e-05
7.4612e-05
8.12732e-05
9.12569e-05
9.86911e-05
9.61954e-05
7.85794e-05
6.44486e-05
4.60486e-05
3.2464e-05
2.18118e-05
1.1012e-05
-1.73137e-07
-1.05665e-05
-2.51484e-05
-4.42647e-05
-5.98423e-05
-6.38362e-05
-5.12813e-05
-2.61307e-05
-2.59624e-06
7.88428e-06
7.86623e-06
5.59926e-06
3.66471e-06
-3.01705e-07
-7.06356e-06
-1.26024e-05
-1.17203e-05
-2.00607e-06
1.57219e-05
3.55168e-05
4.96527e-05
5.74192e-05
6.35811e-05
7.04824e-05
7.77079e-05
8.40767e-05
8.85508e-05
8.8486e-05
8.50622e-05
8.34244e-05
8.55251e-05
8.97451e-05
9.34595e-05
9.25525e-05
8.2623e-05
7.46005e-05
6.2415e-05
5.02964e-05
3.94742e-05
2.93159e-05
1.82286e-05
6.48315e-06
-8.06889e-06
-2.71873e-05
-4.45434e-05
-5.27308e-05
-4.64659e-05
-2.72844e-05
-5.36511e-06
7.40282e-06
9.30676e-06
7.14695e-06
4.62578e-06
1.1927e-06
-3.49942e-06
-6.74503e-06
-5.20295e-06
2.42176e-06
1.65802e-05
3.58856e-05
5.29658e-05
6.27291e-05
6.65476e-05
6.87108e-05
7.08858e-05
7.44519e-05
8.03141e-05
8.40195e-05
8.45865e-05
8.46095e-05
8.53339e-05
8.60933e-05
8.64776e-05
8.59339e-05
8.29314e-05
8.01691e-05
7.25944e-05
6.17401e-05
5.06524e-05
4.07951e-05
3.09443e-05
1.9727e-05
5.09492e-06
-1.27479e-05
-2.96218e-05
-3.97987e-05
-3.82813e-05
-2.49317e-05
-6.90974e-06
5.85632e-06
9.16762e-06
7.6565e-06
5.37901e-06
2.90584e-06
4.01705e-07
6.03896e-08
3.3331e-06
1.02687e-05
2.1216e-05
3.68196e-05
5.36404e-05
6.43214e-05
6.74711e-05
6.70137e-05
6.64063e-05
6.78108e-05
7.29456e-05
7.82973e-05
8.07611e-05
8.11234e-05
8.09569e-05
8.04125e-05
7.99153e-05
8.02904e-05
8.16514e-05
7.98888e-05
7.6042e-05
6.75664e-05
5.76808e-05
4.76626e-05
3.82387e-05
2.7399e-05
1.35405e-05
-2.51126e-06
-1.73338e-05
-2.66072e-05
-2.79702e-05
-1.96663e-05
-5.63608e-06
6.46502e-06
1.13898e-05
1.05387e-05
8.57336e-06
6.76201e-06
5.43117e-06
5.59047e-06
8.49989e-06
1.41782e-05
2.23845e-05
3.53019e-05
5.05334e-05
6.16542e-05
6.41966e-05
6.28813e-05
6.14456e-05
6.19825e-05
6.55009e-05
7.19695e-05
7.74878e-05
8.04064e-05
8.05358e-05
7.86431e-05
7.64164e-05
7.6518e-05
7.87865e-05
7.49097e-05
7.18126e-05
6.38641e-05
5.40797e-05
4.49648e-05
3.74853e-05
2.99873e-05
1.90168e-05
3.92114e-06
-1.09132e-05
-2.06116e-05
-2.25644e-05
-1.82509e-05
-9.16423e-06
3.31864e-07
6.08059e-06
9.37845e-06
1.05903e-05
1.16004e-05
1.28126e-05
1.43507e-05
1.76e-05
2.2713e-05
3.0031e-05
4.07147e-05
5.42692e-05
6.45453e-05
6.63561e-05
6.26912e-05
5.94772e-05
5.83013e-05
5.96132e-05
6.48921e-05
7.1398e-05
7.54157e-05
7.55091e-05
7.36741e-05
7.20649e-05
7.17408e-05
7.34363e-05
5.8858e-05
5.50513e-05
4.73808e-05
3.84268e-05
3.04017e-05
2.39821e-05
1.86923e-05
1.19478e-05
1.91666e-06
-8.9689e-06
-1.83443e-05
-2.32264e-05
-2.27945e-05
-1.76155e-05
-1.04541e-05
-5.22373e-06
-2.32208e-06
3.63191e-07
3.0242e-06
5.25432e-06
7.39251e-06
1.0914e-05
1.82203e-05
2.937e-05
4.13346e-05
5.2518e-05
5.95656e-05
5.87464e-05
5.23326e-05
4.63667e-05
4.51112e-05
4.85789e-05
5.43607e-05
6.18749e-05
6.49155e-05
6.32627e-05
6.06866e-05
5.96247e-05
5.92161e-05
5.92525e-05
4.87737e-05
4.66981e-05
4.00662e-05
3.07641e-05
2.12025e-05
1.28612e-05
5.88806e-06
-1.49806e-06
-1.03969e-05
-1.92388e-05
-2.55188e-05
-2.86651e-05
-2.92863e-05
-2.77502e-05
-2.43552e-05
-2.02158e-05
-1.62152e-05
-1.18473e-05
-7.48933e-06
-4.17914e-06
-1.59828e-06
2.09306e-06
9.58301e-06
2.27626e-05
3.7786e-05
4.98416e-05
5.50939e-05
5.11605e-05
3.96886e-05
2.88818e-05
2.56412e-05
2.93878e-05
3.5558e-05
4.24705e-05
4.4538e-05
4.26384e-05
3.99453e-05
4.00308e-05
4.25086e-05
4.6662e-05
5.20278e-05
5.25696e-05
4.70999e-05
3.85843e-05
3.01344e-05
2.28499e-05
1.56069e-05
7.74559e-06
-2.63825e-06
-1.38738e-05
-2.2866e-05
-2.78692e-05
-2.9435e-05
-2.94106e-05
-2.87907e-05
-2.67601e-05
-2.3139e-05
-1.83322e-05
-1.33693e-05
-8.9229e-06
-4.17994e-06
1.35026e-06
9.68467e-06
2.31715e-05
3.93439e-05
5.28376e-05
5.99638e-05
5.63361e-05
4.24629e-05
2.71085e-05
1.94216e-05
2.09152e-05
2.70478e-05
3.35549e-05
3.37534e-05
2.85004e-05
2.45202e-05
2.65096e-05
3.43185e-05
4.50199e-05
4.50233e-05
4.69786e-05
4.35399e-05
3.67576e-05
2.91957e-05
2.22676e-05
1.64763e-05
1.08639e-05
3.9935e-06
-4.59106e-06
-1.3158e-05
-2.00955e-05
-2.3906e-05
-2.50047e-05
-2.38418e-05
-2.07732e-05
-1.54366e-05
-9.17919e-06
-3.67465e-06
1.45439e-06
7.46918e-06
1.43885e-05
2.15532e-05
3.05333e-05
4.15582e-05
5.20998e-05
5.85256e-05
5.72777e-05
4.79562e-05
3.478e-05
2.64886e-05
2.68521e-05
3.21069e-05
3.80218e-05
3.9278e-05
3.4569e-05
2.87387e-05
2.68598e-05
3.11177e-05
3.85119e-05
3.31256e-05
3.26909e-05
2.87686e-05
2.31629e-05
1.74414e-05
1.29202e-05
9.25514e-06
4.37373e-06
-1.4182e-06
-8.18147e-06
-1.48625e-05
-1.95457e-05
-2.07981e-05
-1.9266e-05
-1.56611e-05
-1.06958e-05
-4.48241e-06
1.83537e-06
6.82677e-06
1.04498e-05
1.47645e-05
2.00569e-05
2.61923e-05
3.30181e-05
4.10866e-05
4.79897e-05
5.12799e-05
4.97406e-05
4.18839e-05
2.93544e-05
1.82456e-05
1.45086e-05
1.77441e-05
2.33437e-05
2.73307e-05
2.72737e-05
2.50939e-05
2.40621e-05
2.61805e-05
3.02526e-05
2.19715e-05
1.92233e-05
1.42364e-05
8.65783e-06
4.08108e-06
1.27312e-06
-1.39076e-06
-4.32634e-06
-8.59213e-06
-1.4237e-05
-2.04331e-05
-2.3962e-05
-2.39405e-05
-2.08512e-05
-1.59697e-05
-9.22256e-06
-4.81742e-07
9.18152e-06
1.82228e-05
2.52688e-05
3.05295e-05
3.49391e-05
3.74762e-05
3.84624e-05
4.04219e-05
4.33679e-05
4.39316e-05
3.94643e-05
2.9924e-05
1.62882e-05
3.40949e-06
-1.70107e-06
1.92457e-06
8.80314e-06
1.54598e-05
2.09615e-05
2.32888e-05
2.35774e-05
2.33644e-05
2.29076e-05
2.06058e-05
5.72304e-09
-8.81346e-06
-1.3096e-05
-1.79782e-05
-2.50289e-05
-3.49209e-05
-4.59889e-05
-5.33879e-05
-5.15568e-05
-3.99262e-05
-2.39205e-05
-9.49577e-06
1.11654e-06
9.13463e-06
1.57803e-05
2.0038e-05
1.93673e-05
1.15985e-05
-1.69218e-06
-1.42872e-05
-2.009e-05
-1.79007e-05
-1.02037e-05
9.37026e-07
1.65964e-05
3.94017e-05
7.16999e-05
0.000111468
0.00014838
0.000170491
0.000177731
0.000179337
0.000180119
0.000178403
0.000174005
0.000164168
0.00014081
0.000101428
5.65193e-05
2.17875e-05
8.63181e-07
-8.24579e-06
-1.27405e-05
-1.77485e-05
-2.49403e-05
-3.50217e-05
-4.63534e-05
-5.40355e-05
-5.23965e-05
-4.08128e-05
-2.47861e-05
-1.03305e-05
3.07665e-07
8.37368e-06
1.51121e-05
1.95141e-05
1.89986e-05
1.13437e-05
-1.94776e-06
-1.47195e-05
-2.08562e-05
-1.90859e-05
-1.18591e-05
-1.17926e-06
1.40934e-05
3.65976e-05
6.87147e-05
0.000108463
0.000145579
0.000168063
0.000175687
0.000177668
0.000178863
0.000177593
0.000173684
0.00016449
0.000141802
0.000102848
5.79585e-05
2.24395e-05
1.12064e-06
-8.26516e-06
-1.29842e-05
-1.81966e-05
-2.56352e-05
-3.60227e-05
-4.77126e-05
-5.57169e-05
-5.41984e-05
-4.25067e-05
-2.62829e-05
-1.16967e-05
-1.0041e-06
7.14085e-06
1.40448e-05
1.86954e-05
1.84536e-05
1.101e-05
-2.24261e-06
-1.5187e-05
-2.16328e-05
-2.02058e-05
-1.33833e-05
-3.10859e-06
1.18071e-05
3.40588e-05
6.60307e-05
0.000105772
0.000143046
0.00016576
0.00017359
0.000175916
0.000177581
0.000176803
0.000173434
0.000164952
0.00014295
0.000104257
5.91055e-05
2.21252e-05
3.91429e-07
-9.2227e-06
-1.42843e-05
-1.99178e-05
-2.78685e-05
-3.86791e-05
-5.06767e-05
-5.88325e-05
-5.71927e-05
-4.51169e-05
-2.84545e-05
-1.35968e-05
-2.80159e-06
5.44889e-06
1.25947e-05
1.759e-05
1.77525e-05
1.06502e-05
-2.43799e-06
-1.54167e-05
-2.20093e-05
-2.07206e-05
-1.41071e-05
-4.10284e-06
1.04926e-05
3.25161e-05
6.43654e-05
0.000104073
0.000141352
0.00016397
0.000171567
0.000174009
0.000176159
0.000175926
0.000173157
0.000165421
0.000144001
0.000105273
5.94995e-05
2.0585e-05
-1.47926e-06
-1.12313e-05
-1.67558e-05
-2.32034e-05
-3.20002e-05
-4.33372e-05
-5.5361e-05
-6.32e-05
-6.10862e-05
-4.8404e-05
-3.11029e-05
-1.58063e-05
-4.84684e-06
3.49717e-06
1.08704e-05
1.62324e-05
1.68337e-05
1.01665e-05
-2.62174e-06
-1.54804e-05
-2.20823e-05
-2.08097e-05
-1.42818e-05
-4.5383e-06
9.73142e-06
3.14495e-05
6.3001e-05
0.000102596
0.000139935
0.000162449
0.000169495
0.000171685
0.000174221
0.000174608
0.000172528
0.000165635
0.000144713
0.000105664
5.88703e-05
1.80797e-05
-4.33764e-06
-1.41643e-05
-2.03477e-05
-2.81124e-05
-3.82517e-05
-5.02843e-05
-6.19813e-05
-6.87014e-05
-6.53768e-05
-5.17834e-05
-3.3745e-05
-1.78508e-05
-6.59119e-06
1.84582e-06
9.34965e-06
1.49761e-05
1.5941e-05
9.6397e-06
-2.92835e-06
-1.57702e-05
-2.25918e-05
-2.1718e-05
-1.58391e-05
-6.99459e-06
6.3717e-06
2.7323e-05
5.8292e-05
9.78394e-05
0.00013592
0.000159334
0.000166539
0.000168516
0.000171309
0.000172373
0.000171172
0.000165368
0.000145124
0.000105616
5.74671e-05
1.65391e-05
-6.19586e-06
-1.5951e-05
-2.29666e-05
-3.29854e-05
-4.57706e-05
-5.93082e-05
-7.10072e-05
-7.60676e-05
-7.0483e-05
-5.51695e-05
-3.60641e-05
-1.93554e-05
-7.51455e-06
1.1682e-06
8.71536e-06
1.44264e-05
1.55664e-05
9.34691e-06
-3.56745e-06
-1.72742e-05
-2.52947e-05
-2.58576e-05
-2.18703e-05
-1.53581e-05
-4.25393e-06
1.50613e-05
4.52352e-05
8.51416e-05
0.000125217
0.000151337
0.000160253
0.000162807
0.000166107
0.000167926
0.000168012
0.00016414
0.000145486
0.000106363
5.7169e-05
1.98574e-05
-3.42769e-06
-1.33495e-05
-2.10919e-05
-3.36937e-05
-5.03624e-05
-6.75723e-05
-8.09002e-05
-8.55148e-05
-7.8089e-05
-6.06042e-05
-3.95701e-05
-2.12587e-05
-8.20919e-06
1.11124e-06
8.91465e-06
1.47701e-05
1.60546e-05
9.63636e-06
-4.47091e-06
-2.05373e-05
-3.13804e-05
-3.45758e-05
-3.34437e-05
-3.0202e-05
-2.22119e-05
-5.20401e-06
2.41759e-05
6.48739e-05
0.000107365
0.000137125
0.00014908
0.000152799
0.000156845
0.000159518
0.000161083
0.000160342
0.000145565
0.000109333
6.10571e-05
3.12324e-05
7.03071e-06
-4.11253e-06
-1.31369e-05
-2.82868e-05
-4.92993e-05
-7.14547e-05
-8.86573e-05
-9.50026e-05
-8.75188e-05
-6.87405e-05
-4.57629e-05
-2.52757e-05
-1.03338e-05
1.35696e-07
8.35136e-06
1.45043e-05
1.61825e-05
9.9579e-06
-5.24445e-06
-2.42057e-05
-3.8645e-05
-4.46671e-05
-4.56195e-05
-4.47785e-05
-3.93173e-05
-2.43987e-05
3.96236e-06
4.48651e-05
8.83633e-05
0.000119724
0.000133625
0.00013844
0.000143107
0.000147048
0.000150365
0.000153607
0.000145096
0.000115294
7.13037e-05
4.85524e-05
2.34807e-05
1.04514e-05
-5.82445e-07
-1.78617e-05
-4.22205e-05
-6.94011e-05
-9.23616e-05
-0.000102889
-9.74788e-05
-7.89975e-05
-5.43321e-05
-3.18406e-05
-1.51805e-05
-3.60677e-06
5.23488e-06
1.18308e-05
1.39392e-05
8.19965e-06
-6.67617e-06
-2.64735e-05
-4.30275e-05
-5.09689e-05
-5.27706e-05
-5.28899e-05
-4.90656e-05
-3.59948e-05
-9.22553e-06
3.06787e-05
7.31861e-05
0.000103629
0.000117207
0.000122362
0.000127647
0.000133464
0.000139479
0.000147565
0.000146639
0.00012458
8.62519e-05
6.95729e-05
4.18627e-05
2.5344e-05
1.23788e-05
-5.62185e-06
-3.0595e-05
-6.07967e-05
-8.94689e-05
-0.000106267
-0.000105079
-8.89276e-05
-6.41199e-05
-3.97982e-05
-2.20855e-05
-1.04487e-05
-1.57192e-06
5.58528e-06
8.40117e-06
3.30363e-06
-1.04831e-05
-2.89854e-05
-4.48045e-05
-5.21355e-05
-5.26582e-05
-5.19054e-05
-4.85688e-05
-3.71774e-05
-1.32276e-05
2.34795e-05
6.26961e-05
9.07074e-05
0.000103036
0.000107943
0.000114464
0.00012316
0.00013317
0.000146505
0.000153739
0.000140123
0.000106699
9.09263e-05
6.01365e-05
3.87446e-05
2.25577e-05
4.9649e-06
-1.75448e-05
-4.73675e-05
-7.97864e-05
-0.000102987
-0.000108748
-9.72483e-05
-7.3865e-05
-4.84968e-05
-2.99041e-05
-1.90769e-05
-1.1328e-05
-4.1205e-06
-6.55958e-07
-5.10719e-06
-1.79681e-05
-3.42387e-05
-4.72023e-05
-5.17237e-05
-4.90676e-05
-4.54121e-05
-4.13854e-05
-3.17209e-05
-1.15137e-05
2.04259e-05
5.49816e-05
8.0496e-05
9.2329e-05
9.70353e-05
0.000103507
0.000114194
0.000127824
0.000145602
0.000159673
0.000154803
0.000127253
0.000108013
7.58735e-05
5.03728e-05
3.12992e-05
1.39966e-05
-5.36958e-06
-3.2648e-05
-6.60866e-05
-9.47786e-05
-0.000107392
-0.000102054
-8.23904e-05
-5.69468e-05
-3.6646e-05
-2.61423e-05
-2.02621e-05
-1.42514e-05
-1.08126e-05
-1.52614e-05
-2.78082e-05
-4.23062e-05
-5.2601e-05
-5.45805e-05
-4.87862e-05
-4.05192e-05
-3.33091e-05
-2.40643e-05
-7.6141e-06
1.92863e-05
4.81559e-05
7.14002e-05
8.44248e-05
9.09248e-05
9.68783e-05
0.000107371
0.000121821
0.000140556
0.000158142
0.000160856
0.000140952
0.000117094
8.72515e-05
6.11096e-05
4.05128e-05
2.35381e-05
6.60264e-06
-1.75517e-05
-5.02156e-05
-8.1719e-05
-9.98395e-05
-0.000100622
-8.59182e-05
-6.20715e-05
-4.04758e-05
-2.87214e-05
-2.3787e-05
-1.92933e-05
-1.60233e-05
-1.89246e-05
-2.91757e-05
-4.14193e-05
-5.04262e-05
-5.20142e-05
-4.48832e-05
-3.29374e-05
-2.18223e-05
-1.20017e-05
1.81372e-06
2.33228e-05
4.57507e-05
6.47254e-05
7.83047e-05
8.70391e-05
9.32017e-05
0.000102216
0.000114489
0.000130469
0.000147275
0.000154718
0.000143444
0.000116739
9.33608e-05
7.0593e-05
5.03123e-05
3.31035e-05
1.65561e-05
-4.99706e-06
-3.5333e-05
-6.71434e-05
-8.7729e-05
-9.26773e-05
-8.26064e-05
-6.21182e-05
-3.98618e-05
-2.51446e-05
-1.92594e-05
-1.66547e-05
-1.45207e-05
-1.56463e-05
-2.21125e-05
-3.13004e-05
-3.86547e-05
-4.03248e-05
-3.41448e-05
-2.13933e-05
-8.03201e-06
3.20396e-06
1.57218e-05
3.1807e-05
4.78053e-05
6.13833e-05
7.36571e-05
8.36689e-05
9.01914e-05
9.71725e-05
0.000106313
0.00011706
0.000129797
0.000138465
0.000134506
0.000117017
0.000101074
8.22568e-05
6.234e-05
4.33281e-05
2.53482e-05
4.9332e-06
-2.24037e-05
-5.23182e-05
-7.30694e-05
-7.99702e-05
-7.38195e-05
-5.75738e-05
-3.68414e-05
-2.04942e-05
-1.31533e-05
-1.17762e-05
-1.25629e-05
-1.43691e-05
-1.85662e-05
-2.47232e-05
-2.97879e-05
-3.02409e-05
-2.41488e-05
-1.15562e-05
4.03477e-06
1.76775e-05
2.92392e-05
4.06664e-05
5.09273e-05
5.9431e-05
6.96858e-05
8.06518e-05
8.81951e-05
9.43121e-05
0.00010141
0.000109294
0.000117606
0.000124421
0.000125543
0.000117199
0.000107406
9.20248e-05
7.3028e-05
5.26038e-05
3.3205e-05
1.37773e-05
-1.04309e-05
-3.67922e-05
-5.69577e-05
-6.52155e-05
-6.19645e-05
-5.08961e-05
-3.42673e-05
-1.84441e-05
-9.2522e-06
-5.9048e-06
-5.92887e-06
-7.68946e-06
-1.08026e-05
-1.48242e-05
-1.77765e-05
-1.70414e-05
-1.12903e-05
8.23144e-08
1.57726e-05
3.02939e-05
4.01804e-05
4.76988e-05
5.39882e-05
5.97308e-05
6.81624e-05
7.93348e-05
8.82486e-05
9.43904e-05
9.93355e-05
0.000104254
0.000109204
0.000114797
0.000119069
0.000111398
0.000106583
9.48952e-05
7.85111e-05
5.96868e-05
4.11361e-05
2.30803e-05
2.88677e-06
-1.76277e-05
-3.33733e-05
-4.09394e-05
-4.25801e-05
-3.82361e-05
-2.88277e-05
-1.72728e-05
-8.18617e-06
-3.37044e-06
-7.45279e-07
5.65997e-07
-6.36324e-07
-4.59371e-06
-7.49159e-06
-6.53883e-06
-8.41034e-07
9.56871e-06
2.46193e-05
3.91258e-05
4.78654e-05
5.25297e-05
5.64739e-05
6.1208e-05
6.82959e-05
7.8029e-05
8.72646e-05
9.35708e-05
9.73067e-05
9.94569e-05
0.000101023
0.000104222
0.000109174
9.51199e-05
9.38011e-05
8.64536e-05
7.50642e-05
6.12338e-05
4.68266e-05
3.30472e-05
1.81738e-05
1.61407e-06
-1.31231e-05
-2.04451e-05
-2.13168e-05
-2.06641e-05
-1.87852e-05
-1.39359e-05
-8.2544e-06
-3.49423e-06
1.96455e-07
2.59369e-06
2.64071e-06
7.16625e-07
-3.04748e-07
1.76934e-06
8.10885e-06
1.79881e-05
3.15715e-05
4.50226e-05
5.30932e-05
5.55769e-05
5.70512e-05
6.05145e-05
6.60025e-05
7.3351e-05
8.06561e-05
8.52665e-05
8.75079e-05
8.85209e-05
8.82792e-05
8.84111e-05
9.15449e-05
7.68139e-05
7.46011e-05
6.83599e-05
5.97641e-05
5.01599e-05
4.05481e-05
3.05622e-05
1.96665e-05
7.77562e-06
-4.25796e-06
-1.3515e-05
-1.88669e-05
-2.12636e-05
-2.06105e-05
-1.72442e-05
-1.30463e-05
-9.06522e-06
-5.06058e-06
-1.57584e-06
-1.70852e-07
-1.64814e-06
-3.36634e-06
-3.13142e-07
8.36627e-06
2.00274e-05
3.16306e-05
4.16285e-05
4.77356e-05
4.91837e-05
4.89897e-05
5.21432e-05
5.90895e-05
6.61659e-05
7.17229e-05
7.41637e-05
7.42722e-05
7.431e-05
7.44932e-05
7.4792e-05
7.59497e-05
6.74713e-05
6.54431e-05
5.92966e-05
5.10066e-05
4.18444e-05
3.25217e-05
2.32588e-05
1.28974e-05
1.36776e-06
-9.64728e-06
-1.86813e-05
-2.54962e-05
-3.02358e-05
-3.29445e-05
-3.2967e-05
-3.04569e-05
-2.65238e-05
-2.17366e-05
-1.70243e-05
-1.35161e-05
-1.149e-05
-9.79601e-06
-4.77834e-06
5.5769e-06
1.88605e-05
3.04874e-05
3.84455e-05
4.21074e-05
4.19021e-05
4.10834e-05
4.39633e-05
5.00427e-05
5.61534e-05
5.91285e-05
5.94647e-05
5.81783e-05
5.831e-05
6.05909e-05
6.36279e-05
6.63306e-05
6.72057e-05
6.68346e-05
6.20501e-05
5.46918e-05
4.66234e-05
3.89414e-05
3.13568e-05
2.2451e-05
1.04516e-05
-2.08968e-06
-1.32442e-05
-2.26632e-05
-3.02848e-05
-3.64326e-05
-4.04513e-05
-4.23097e-05
-4.08873e-05
-3.68036e-05
-3.2035e-05
-2.7756e-05
-2.33781e-05
-1.86009e-05
-1.19285e-05
-2.36535e-07
1.52468e-05
3.10595e-05
4.18334e-05
4.63064e-05
4.39668e-05
3.89528e-05
3.79207e-05
4.22202e-05
4.8432e-05
5.19601e-05
5.15953e-05
4.81278e-05
4.66898e-05
5.009e-05
5.70293e-05
6.34139e-05
5.54465e-05
5.66787e-05
5.40688e-05
4.8534e-05
4.14355e-05
3.43917e-05
2.80549e-05
2.17271e-05
1.49629e-05
7.28482e-06
-1.30213e-07
-6.77117e-06
-1.23712e-05
-1.72388e-05
-2.17048e-05
-2.42513e-05
-2.35891e-05
-2.02258e-05
-1.61699e-05
-1.23725e-05
-8.41021e-06
-4.12104e-06
2.56475e-07
6.82444e-06
1.66001e-05
2.76488e-05
3.60183e-05
3.92907e-05
3.62458e-05
3.03597e-05
2.76402e-05
3.07933e-05
3.73881e-05
4.30539e-05
4.5009e-05
4.30307e-05
4.0888e-05
4.13892e-05
4.51183e-05
5.08088e-05
4.30266e-05
4.30912e-05
3.9687e-05
3.40775e-05
2.79172e-05
2.25619e-05
1.82858e-05
1.37358e-05
8.40997e-06
1.3813e-06
-6.07842e-06
-1.19214e-05
-1.48892e-05
-1.55542e-05
-1.48993e-05
-1.28775e-05
-9.48515e-06
-5.21397e-06
-1.16339e-06
1.8856e-06
4.94762e-06
9.18973e-06
1.41046e-05
1.93643e-05
2.61461e-05
3.34158e-05
3.81603e-05
3.87757e-05
3.44544e-05
2.65987e-05
1.96784e-05
1.83577e-05
2.2155e-05
2.73397e-05
3.09706e-05
3.21025e-05
3.162e-05
3.20193e-05
3.49168e-05
3.95793e-05
3.08736e-05
2.70366e-05
2.11472e-05
1.46631e-05
9.15639e-06
5.62619e-06
2.80169e-06
-2.55491e-07
-4.5328e-06
-1.01736e-05
-1.6144e-05
-1.98644e-05
-2.05534e-05
-1.88262e-05
-1.52207e-05
-9.66626e-06
-1.79531e-06
7.08448e-06
1.5272e-05
2.13863e-05
2.53151e-05
2.79437e-05
2.96111e-05
3.11138e-05
3.43479e-05
3.86027e-05
4.0996e-05
3.87685e-05
3.18211e-05
2.2184e-05
1.37541e-05
1.06048e-05
1.30628e-05
1.85621e-05
2.39921e-05
2.85097e-05
3.05975e-05
3.15407e-05
3.21729e-05
3.23919e-05
7.36451e-05
4.20802e-05
1.48523e-05
-4.8352e-06
-1.53885e-05
-1.99401e-05
-2.38173e-05
-3.01665e-05
-3.75944e-05
-4.17503e-05
-4.02862e-05
-3.54566e-05
-3.0632e-05
-2.67887e-05
-2.20469e-05
-1.46264e-05
-5.69353e-06
8.19326e-07
1.66335e-06
-2.232e-06
-6.2948e-06
-5.77445e-06
3.62739e-07
8.71473e-06
1.69119e-05
2.72474e-05
4.3097e-05
6.74039e-05
0.000100945
0.000138568
0.000172563
0.000198643
0.000216751
0.000224784
0.000222555
0.000213064
0.00019801
0.000175654
0.000144979
0.000108968
7.5094e-05
4.3734e-05
1.65307e-05
-3.25644e-06
-1.40142e-05
-1.87902e-05
-2.28988e-05
-2.94847e-05
-3.71527e-05
-4.1517e-05
-4.01788e-05
-3.54064e-05
-3.06238e-05
-2.68426e-05
-2.22219e-05
-1.49232e-05
-6.10005e-06
3.15204e-07
1.05806e-06
-2.94089e-06
-7.09727e-06
-6.65596e-06
-5.65457e-07
7.7104e-06
1.57397e-05
2.58059e-05
4.12672e-05
6.50711e-05
9.81101e-05
0.000135331
0.000169142
0.000195303
0.000213714
0.00022216
0.000220414
0.000211521
0.000197177
0.000175587
0.000145607
0.000110097
7.67273e-05
4.53072e-05
1.7744e-05
-2.53486e-06
-1.37681e-05
-1.8864e-05
-2.31416e-05
-2.98356e-05
-3.76284e-05
-4.21077e-05
-4.07989e-05
-3.60239e-05
-3.12477e-05
-2.75146e-05
-2.29345e-05
-1.56522e-05
-6.77544e-06
-2.95919e-07
4.51332e-07
-3.6114e-06
-7.8711e-06
-7.53451e-06
-1.47192e-06
6.80162e-06
1.47041e-05
2.45436e-05
3.96516e-05
6.29179e-05
9.53438e-05
0.000132033
0.000165594
0.000191939
0.000210885
0.000219994
0.000218871
0.000210591
0.000196916
0.00017604
0.000146713
0.000111595
7.84436e-05
4.66028e-05
1.81482e-05
-3.2199e-06
-1.54318e-05
-2.10749e-05
-2.54732e-05
-3.20694e-05
-3.97269e-05
-4.41168e-05
-4.27083e-05
-3.78374e-05
-3.30194e-05
-2.93111e-05
-2.47108e-05
-1.72504e-05
-8.03023e-06
-1.18231e-06
-2.28967e-07
-4.21946e-06
-8.47025e-06
-8.14151e-06
-1.99754e-06
6.40165e-06
1.42488e-05
2.39193e-05
3.87587e-05
6.15982e-05
9.34484e-05
0.000129562
0.000162746
0.000189221
0.000208852
0.000218846
0.000218453
0.000210787
0.000197649
0.000177258
0.00014836
0.000113432
8.03865e-05
4.78697e-05
1.80384e-05
-5.2031e-06
-1.90981e-05
-2.57625e-05
-3.03445e-05
-3.65724e-05
-4.37159e-05
-4.77358e-05
-4.61398e-05
-4.11487e-05
-3.6298e-05
-3.26274e-05
-2.8047e-05
-2.02467e-05
-1.03505e-05
-2.81257e-06
-1.44406e-06
-5.20773e-06
-9.26123e-06
-8.73818e-06
-2.29708e-06
6.42295e-06
1.43395e-05
2.38462e-05
3.84529e-05
6.10011e-05
9.24696e-05
0.000128206
0.000160989
0.000187399
0.000207699
0.000218741
0.000219215
0.000212251
0.000199573
0.000179362
0.00015056
0.000115623
8.29059e-05
4.97141e-05
1.81237e-05
-7.81312e-06
-2.43776e-05
-3.28038e-05
-3.78556e-05
-4.34373e-05
-4.95011e-05
-5.27456e-05
-5.08821e-05
-4.58586e-05
-4.10802e-05
-3.76063e-05
-3.29654e-05
-2.47223e-05
-1.39446e-05
-5.46805e-06
-3.50542e-06
-7.01534e-06
-1.09556e-05
-1.03835e-05
-3.68869e-06
5.54463e-06
1.37271e-05
2.30408e-05
3.72439e-05
5.93833e-05
9.07296e-05
0.000126794
0.0001598
0.000186244
0.000207169
0.000219351
0.000220896
0.000214945
0.000202882
0.000182673
0.000153619
0.000118475
8.67881e-05
5.28675e-05
1.95926e-05
-9.76477e-06
-3.0277e-05
-4.16894e-05
-4.79221e-05
-5.27287e-05
-5.69288e-05
-5.8598e-05
-5.61273e-05
-5.11121e-05
-4.65576e-05
-4.33584e-05
-3.87869e-05
-3.00794e-05
-1.83497e-05
-8.75107e-06
-6.01025e-06
-9.36069e-06
-1.3733e-05
-1.40371e-05
-8.17874e-06
6.4628e-07
8.57559e-06
1.73452e-05
3.07924e-05
5.2168e-05
8.34852e-05
0.000121041
0.000155784
0.000183224
0.000205225
0.000219016
0.000222145
0.000218013
0.000207469
0.000187621
0.000158193
0.000122702
9.28995e-05
5.83154e-05
2.35689e-05
-9.2356e-06
-3.47108e-05
-5.0781e-05
-5.97331e-05
-6.46372e-05
-6.65745e-05
-6.56093e-05
-6.17042e-05
-5.62877e-05
-5.17079e-05
-4.87098e-05
-4.44152e-05
-3.54714e-05
-2.30441e-05
-1.25317e-05
-8.96801e-06
-1.21068e-05
-1.74516e-05
-1.99136e-05
-1.6493e-05
-9.66215e-06
-3.42174e-06
3.77076e-06
1.58737e-05
3.62234e-05
6.71073e-05
0.000106322
0.000144017
0.000173668
0.000197384
0.000213686
0.000219611
0.000218584
0.000211355
0.000193781
0.000164988
0.000129235
0.000101605
6.62717e-05
3.03889e-05
-4.91792e-06
-3.48714e-05
-5.63843e-05
-7.00568e-05
-7.73669e-05
-7.87128e-05
-7.56646e-05
-7.03578e-05
-6.42462e-05
-5.93231e-05
-5.59921e-05
-5.14501e-05
-4.25419e-05
-2.98574e-05
-1.89501e-05
-1.4902e-05
-1.79327e-05
-2.43648e-05
-2.93764e-05
-2.88927e-05
-2.43853e-05
-2.01913e-05
-1.48334e-05
-3.83067e-06
1.59507e-05
4.65683e-05
8.55785e-05
0.000124213
0.000155317
0.000180394
0.000199304
0.000209263
0.000213013
0.000211066
0.000198219
0.000172743
0.000138375
0.000112241
7.63212e-05
3.94291e-05
2.39023e-06
-2.97699e-05
-5.5856e-05
-7.47395e-05