/*--------------------------------*- C++ -*----------------------------------*\
| =========                 |                                                 |
| \\      /  F ield         | OpenFOAM: The Open Source CFD Toolbox           |
|  \\    /   O peration     | Version:  2306                                  |
|   \\  /    A nd           | Website:  www.openfoam.com                      |
|    \\/     M anipulation  |                                                 |
\*---------------------------------------------------------------------------*/
FoamFile
{
    version     2.0;
    format      ascii;
    arch        "LSB;label=32;scalar=64";
    class       volScalarField;
    location    "9";
    object      pPrime2Mean;
}
// * * * * * * * * * * * * * * * * * * * * * * * * * * * * * * * * * * * * * //

dimensions      [0 4 -4 0 0 0 0];

internalField   nonuniform List<scalar> 
60000
(
3.8063e-09
7.39314e-09
1.47282e-08
2.20732e-08
2.69519e-08
2.88249e-08
2.81038e-08
2.54306e-08
2.20981e-08
2.12826e-08
2.57064e-08
3.35394e-08
3.97121e-08
4.04264e-08
3.5028e-08
2.53922e-08
1.5312e-08
8.40059e-09
5.28894e-09
4.36352e-09
5.6621e-09
1.17962e-08
2.29729e-08
3.50465e-08
4.32352e-08
4.4698e-08
3.98701e-08
3.25083e-08
2.67606e-08
2.59874e-08
2.94887e-08
3.16884e-08
2.98394e-08
2.51428e-08
1.90075e-08
1.32102e-08
1.01403e-08
9.91568e-09
8.87427e-09
5.46215e-09
3.6331e-09
7.09213e-09
1.44481e-08
2.19216e-08
2.69148e-08
2.88125e-08
2.80401e-08
2.52961e-08
2.19026e-08
2.1051e-08
2.55166e-08
3.34606e-08
3.97453e-08
4.05481e-08
3.52097e-08
2.55953e-08
1.54839e-08
8.50691e-09
5.33081e-09
4.34981e-09
5.59983e-09
1.1705e-08
2.28793e-08
3.49444e-08
4.31134e-08
4.45787e-08
3.98052e-08
3.25237e-08
2.68294e-08
2.60728e-08
2.96403e-08
3.19636e-08
3.02206e-08
2.55618e-08
1.93807e-08
1.34625e-08
1.02594e-08
9.97151e-09
8.93094e-09
5.45222e-09
3.39617e-09
6.78365e-09
1.42685e-08
2.19764e-08
2.71705e-08
2.91444e-08
2.83195e-08
2.54379e-08
2.18594e-08
2.08137e-08
2.52285e-08
3.3314e-08
3.98112e-08
4.08048e-08
3.55877e-08
2.59811e-08
1.57608e-08
8.62659e-09
5.33002e-09
4.27717e-09
5.49308e-09
1.16247e-08
2.28703e-08
3.49848e-08
4.31563e-08
4.4584e-08
3.97428e-08
3.24096e-08
2.67098e-08
2.60188e-08
2.97646e-08
3.23119e-08
3.07391e-08
2.61371e-08
1.98605e-08
1.37233e-08
1.03124e-08
9.9656e-09
8.95511e-09
5.39516e-09
3.0932e-09
6.47223e-09
1.42121e-08
2.22837e-08
2.77823e-08
2.99097e-08
2.90504e-08
2.5978e-08
2.2091e-08
2.06686e-08
2.48803e-08
3.30952e-08
3.98995e-08
4.11957e-08
3.61737e-08
2.65706e-08
1.61619e-08
8.76888e-09
5.27998e-09
4.129e-09
5.34758e-09
1.16005e-08
2.302e-08
3.52458e-08
4.34209e-08
4.47329e-08
3.96788e-08
3.21569e-08
2.64146e-08
2.58577e-08
2.99033e-08
3.27557e-08
3.14105e-08
2.68897e-08
2.04704e-08
1.40008e-08
1.02974e-08
9.90048e-09
8.95252e-09
5.29142e-09
2.73857e-09
6.10161e-09
1.41575e-08
2.26957e-08
2.86131e-08
3.10043e-08
3.02098e-08
2.69995e-08
2.27844e-08
2.08397e-08
2.45972e-08
3.2764e-08
3.98582e-08
4.1538e-08
3.68261e-08
2.73061e-08
1.66976e-08
8.96666e-09
5.20795e-09
3.9148e-09
5.14404e-09
1.15854e-08
2.32345e-08
3.56003e-08
4.38513e-08
4.51315e-08
3.9864e-08
3.21357e-08
2.6342e-08
2.59158e-08
3.02217e-08
3.33367e-08
3.22139e-08
2.78255e-08
2.12811e-08
1.44189e-08
1.03405e-08
9.87171e-09
8.98004e-09
5.18575e-09
2.34933e-09
5.65194e-09
1.40369e-08
2.31126e-08
2.95573e-08
3.2302e-08
3.16534e-08
2.84353e-08
2.40071e-08
2.1573e-08
2.46949e-08
3.24924e-08
3.96592e-08
4.16548e-08
3.73219e-08
2.80263e-08
1.73191e-08
9.2472e-09
5.13364e-09
3.6002e-09
4.80517e-09
1.1479e-08
2.33439e-08
3.56616e-08
4.38788e-08
4.53167e-08
4.02166e-08
3.26825e-08
2.71434e-08
2.68232e-08
3.12126e-08
3.43559e-08
3.3277e-08
2.89882e-08
2.2348e-08
1.50949e-08
1.06194e-08
1.00796e-08
9.21004e-09
5.16559e-09
2.08296e-09
4.8797e-09
1.3477e-08
2.32406e-08
3.06124e-08
3.41429e-08
3.37664e-08
3.03513e-08
2.56476e-08
2.2903e-08
2.54753e-08
3.26905e-08
3.95859e-08
4.16207e-08
3.75561e-08
2.85619e-08
1.791e-08
9.58453e-09
5.08853e-09
3.18726e-09
4.22855e-09
1.11867e-08
2.35134e-08
3.58485e-08
4.36556e-08
4.48246e-08
3.98316e-08
3.29037e-08
2.8329e-08
2.87747e-08
3.35808e-08
3.66583e-08
3.5255e-08
3.06259e-08
2.3662e-08
1.59859e-08
1.11866e-08
1.06538e-08
1.00267e-08
5.72111e-09
2.21235e-09
3.85444e-09
1.2299e-08
2.27342e-08
3.12127e-08
3.59873e-08
3.64128e-08
3.3159e-08
2.80742e-08
2.45942e-08
2.67888e-08
3.37436e-08
4.02339e-08
4.19164e-08
3.77752e-08
2.894e-08
1.83858e-08
9.91583e-09
5.07873e-09
2.73949e-09
3.51199e-09
1.09198e-08
2.41687e-08
3.67985e-08
4.38651e-08
4.37664e-08
3.7745e-08
3.07929e-08
2.75418e-08
2.97737e-08
3.59837e-08
3.99447e-08
3.87905e-08
3.36998e-08
2.56755e-08
1.69097e-08
1.15784e-08
1.12234e-08
1.13132e-08
7.02847e-09
2.88383e-09
2.82667e-09
1.07109e-08
2.18264e-08
3.15698e-08
3.77914e-08
3.93122e-08
3.64932e-08
3.13673e-08
2.70413e-08
2.79631e-08
3.46677e-08
4.1506e-08
4.31576e-08
3.87023e-08
2.96734e-08
1.89784e-08
1.02244e-08
5.02754e-09
2.33412e-09
2.98957e-09
1.1192e-08
2.59819e-08
3.92848e-08
4.52536e-08
4.27811e-08
3.41611e-08
2.58407e-08
2.36734e-08
2.87967e-08
3.76669e-08
4.28451e-08
4.2056e-08
3.68781e-08
2.8104e-08
1.81156e-08
1.21076e-08
1.18123e-08
1.26463e-08
8.8534e-09
4.18896e-09
1.98803e-09
8.73174e-09
2.03977e-08
3.16236e-08
3.95683e-08
4.24696e-08
4.02351e-08
3.52135e-08
3.03018e-08
2.94531e-08
3.44731e-08
4.10727e-08
4.34821e-08
3.97283e-08
3.11309e-08
2.04277e-08
1.10684e-08
5.07467e-09
1.94264e-09
2.83804e-09
1.25284e-08
2.98017e-08
4.46157e-08
4.98265e-08
4.44536e-08
3.18819e-08
2.04745e-08
1.81735e-08
2.6205e-08
3.8434e-08
4.54551e-08
4.53048e-08
4.02663e-08
3.09906e-08
1.96291e-08
1.28045e-08
1.2586e-08
1.41541e-08
1.10756e-08
5.99182e-09
1.61675e-09
6.38356e-09
1.77861e-08
3.03846e-08
4.0513e-08
4.54274e-08
4.42161e-08
3.93841e-08
3.41193e-08
3.14858e-08
3.40274e-08
3.88433e-08
4.12199e-08
3.86203e-08
3.15944e-08
2.2171e-08
1.28642e-08
5.80706e-09
1.71866e-09
2.92405e-09
1.48277e-08
3.58417e-08
5.36998e-08
5.93788e-08
5.1633e-08
3.47186e-08
1.86385e-08
1.37755e-08
2.25545e-08
3.72667e-08
4.63669e-08
4.75775e-08
4.39026e-08
3.53113e-08
2.30342e-08
1.44533e-08
1.34875e-08
1.52731e-08
1.30895e-08
7.22504e-09
1.72099e-09
4.18323e-09
1.40857e-08
2.68626e-08
3.88891e-08
4.65715e-08
4.72794e-08
4.30109e-08
3.78985e-08
3.45436e-08
3.45593e-08
3.64548e-08
3.70747e-08
3.44693e-08
2.90474e-08
2.1951e-08
1.42837e-08
7.27846e-09
2.39797e-09
3.36004e-09
1.66908e-08
4.11872e-08
6.28603e-08
7.0429e-08
6.19699e-08
4.18995e-08
2.10838e-08
1.15053e-08
1.75756e-08
3.24162e-08
4.38037e-08
4.74309e-08
4.61929e-08
3.97644e-08
2.80235e-08
1.78882e-08
1.511e-08
1.58353e-08
1.39325e-08
7.78682e-09
1.92329e-09
2.55715e-09
1.01806e-08
2.15293e-08
3.39868e-08
4.42709e-08
4.77785e-08
4.46069e-08
3.97647e-08
3.70004e-08
3.63754e-08
3.56454e-08
3.36452e-08
2.9499e-08
2.42889e-08
1.91323e-08
1.38625e-08
8.66183e-09
4.61982e-09
5.42136e-09
1.75577e-08
4.17245e-08
6.5357e-08
7.50769e-08
6.76307e-08
4.76168e-08
2.46876e-08
1.08478e-08
1.19023e-08
2.39637e-08
3.68559e-08
4.36858e-08
4.55101e-08
4.19838e-08
3.27001e-08
2.26101e-08
1.79258e-08
1.6694e-08
1.41005e-08
7.99713e-09
2.25643e-09
1.57633e-09
6.60336e-09
1.5474e-08
2.68985e-08
3.85182e-08
4.47215e-08
4.31702e-08
3.8801e-08
3.70032e-08
3.74903e-08
3.64124e-08
3.28583e-08
2.74353e-08
2.15972e-08
1.68197e-08
1.27843e-08
9.30909e-09
7.02768e-09
8.31232e-09
1.81573e-08
3.88372e-08
6.19091e-08
7.33221e-08
6.82161e-08
5.04486e-08
2.82032e-08
1.17993e-08
7.85762e-09
1.55701e-08
2.78865e-08
3.76016e-08
4.19692e-08
4.09094e-08
3.48651e-08
2.64932e-08
2.0548e-08
1.75322e-08
1.40291e-08
8.77556e-09
3.67443e-09
1.75921e-09
3.92592e-09
9.93774e-09
1.96517e-08
3.1026e-08
3.88459e-08
3.90272e-08
3.54006e-08
3.42003e-08
3.62382e-08
3.6753e-08
3.38512e-08
2.8894e-08
2.30345e-08
1.77915e-08
1.33961e-08
9.5324e-09
7.54935e-09
9.08884e-09
1.69035e-08
3.34152e-08
5.42598e-08
6.73948e-08
6.54679e-08
5.09793e-08
3.08965e-08
1.36266e-08
6.51455e-09
1.0523e-08
2.06998e-08
3.1101e-08
3.76183e-08
3.8607e-08
3.50869e-08
2.86896e-08
2.246e-08
1.82855e-08
1.42999e-08
1.00566e-08
5.94268e-09
3.5928e-09
3.32351e-09
6.34787e-09
1.3588e-08
2.33441e-08
3.11163e-08
3.25762e-08
3.0057e-08
2.95524e-08
3.26524e-08
3.52068e-08
3.41123e-08
3.05657e-08
2.5582e-08
2.02405e-08
1.51732e-08
1.01893e-08
7.49356e-09
9.39535e-09
1.61864e-08
2.85394e-08
4.50519e-08
5.76129e-08
5.84198e-08
4.81011e-08
3.18037e-08
1.56049e-08
6.83082e-09
8.06348e-09
1.56232e-08
2.51708e-08
3.28292e-08
3.64646e-08
3.55908e-08
3.06958e-08
2.43867e-08
1.95189e-08
1.51115e-08
1.13958e-08
8.09117e-09
6.06795e-09
4.91237e-09
5.92254e-09
1.02844e-08
1.70125e-08
2.2789e-08
2.4645e-08
2.34487e-08
2.38273e-08
2.78182e-08
3.25087e-08
3.3886e-08
3.15623e-08
2.70556e-08
2.18175e-08
1.66965e-08
1.14461e-08
8.57527e-09
1.11363e-08
1.77229e-08
2.64716e-08
3.74504e-08
4.67266e-08
4.85265e-08
4.18292e-08
3.01909e-08
1.72038e-08
8.37335e-09
7.17686e-09
1.26453e-08
2.11884e-08
2.89872e-08
3.37713e-08
3.47817e-08
3.16108e-08
2.60857e-08
2.10254e-08
1.63109e-08
1.06868e-08
9.17889e-09
8.79558e-09
8.20234e-09
8.09806e-09
9.6231e-09
1.25926e-08
1.52094e-08
1.61251e-08
1.62357e-08
1.80752e-08
2.30262e-08
2.96924e-08
3.37875e-08
3.28756e-08
2.83948e-08
2.28967e-08
1.73792e-08
1.20717e-08
9.36131e-09
1.22202e-08
1.87956e-08
2.6024e-08
3.37508e-08
4.02481e-08
4.14443e-08
3.66076e-08
2.74289e-08
1.70125e-08
9.43052e-09
8.15245e-09
1.30331e-08
2.11114e-08
2.90548e-08
3.41432e-08
3.46399e-08
3.05789e-08
2.42415e-08
1.85824e-08
1.41318e-08
9.0945e-09
9.41145e-09
1.07246e-08
1.15035e-08
1.20866e-08
1.26494e-08
1.26286e-08
1.18561e-08
1.04926e-08
9.92882e-09
1.20442e-08
1.74092e-08
2.50765e-08
3.18758e-08
3.4255e-08
3.1999e-08
2.71641e-08
2.1884e-08
1.6392e-08
1.23727e-08
1.28049e-08
1.69468e-08
2.20946e-08
2.82939e-08
3.46945e-08
3.69395e-08
3.27997e-08
2.48922e-08
1.60399e-08
9.56036e-09
8.58592e-09
1.33268e-08
2.14105e-08
2.94942e-08
3.44938e-08
3.47288e-08
3.01631e-08
2.25792e-08
1.55365e-08
1.10983e-08
8.23034e-09
9.17817e-09
1.12769e-08
1.30612e-08
1.4318e-08
1.50523e-08
1.46617e-08
1.31169e-08
1.10819e-08
9.5507e-09
9.74718e-09
1.22591e-08
1.71688e-08
2.31759e-08
2.76392e-08
2.88635e-08
2.782e-08
2.63379e-08
2.40351e-08
2.0273e-08
1.74701e-08
1.7389e-08
1.90207e-08
2.32075e-08
2.96592e-08
3.36e-08
3.12389e-08
2.43268e-08
1.62766e-08
1.02755e-08
8.58792e-09
1.21174e-08
1.98246e-08
2.80198e-08
3.34135e-08
3.38768e-08
2.95387e-08
2.20769e-08
1.46375e-08
9.80269e-09
7.37442e-09
7.10629e-09
9.76633e-09
1.33938e-08
1.68553e-08
1.89961e-08
1.85535e-08
1.60136e-08
1.30927e-08
1.0926e-08
1.01986e-08
1.11413e-08
1.36316e-08
1.73826e-08
2.17166e-08
2.50217e-08
2.64597e-08
2.69938e-08
2.68295e-08
2.46355e-08
2.10481e-08
1.88789e-08
1.92467e-08
2.27211e-08
2.91473e-08
3.39673e-08
3.2128e-08
2.4337e-08
1.49024e-08
7.97549e-09
6.41744e-09
1.13986e-08
2.13752e-08
3.17768e-08
3.86861e-08
3.97087e-08
3.58683e-08
2.87622e-08
2.00755e-08
1.19996e-08
1.27739e-08
9.27299e-09
8.79751e-09
1.00632e-08
1.23589e-08
1.48249e-08
1.6059e-08
1.54336e-08
1.36819e-08
1.19719e-08
1.12813e-08
1.18442e-08
1.34233e-08
1.55859e-08
1.81953e-08
2.11364e-08
2.36294e-08
2.57233e-08
2.72267e-08
2.67267e-08
2.41068e-08
2.1568e-08
2.0826e-08
2.26879e-08
2.7431e-08
3.22805e-08
3.22425e-08
2.60028e-08
1.63368e-08
7.73847e-09
4.78689e-09
9.71711e-09
2.11289e-08
3.43786e-08
4.38352e-08
4.62562e-08
4.29642e-08
3.67428e-08
2.88768e-08
1.98323e-08
1.63966e-08
1.24829e-08
1.06579e-08
1.0258e-08
1.03468e-08
1.11515e-08
1.23001e-08
1.29986e-08
1.30896e-08
1.30548e-08
1.32775e-08
1.4124e-08
1.55804e-08
1.72829e-08
1.90154e-08
2.07851e-08
2.23923e-08
2.36791e-08
2.46303e-08
2.46549e-08
2.31684e-08
2.10603e-08
2.00396e-08
2.09364e-08
2.38517e-08
2.71052e-08
2.72094e-08
2.26444e-08
1.53227e-08
8.73784e-09
5.81681e-09
8.37362e-09
1.61811e-08
2.61866e-08
3.42532e-08
3.74683e-08
3.63473e-08
3.32271e-08
2.83695e-08
2.22606e-08
1.83653e-08
1.24781e-08
8.7118e-09
7.48836e-09
8.32677e-09
1.07657e-08
1.40236e-08
1.69529e-08
1.85255e-08
1.87338e-08
1.8355e-08
1.76672e-08
1.67113e-08
1.62224e-08
1.7101e-08
1.91798e-08
2.17775e-08
2.42304e-08
2.58451e-08
2.61166e-08
2.43974e-08
2.14392e-08
1.8717e-08
1.73239e-08
1.78513e-08
2.0398e-08
2.25291e-08
2.12901e-08
1.69951e-08
1.20782e-08
9.14672e-09
9.80746e-09
1.43177e-08
2.12013e-08
2.76809e-08
3.15287e-08
3.24271e-08
3.14555e-08
2.90262e-08
2.45035e-08
2.01054e-08
1.387e-08
8.96394e-09
6.66077e-09
7.18636e-09
9.97186e-09
1.40483e-08
1.80015e-08
2.04393e-08
2.12882e-08
2.1221e-08
2.07693e-08
2.04806e-08
2.02599e-08
2.02102e-08
2.10216e-08
2.3121e-08
2.58917e-08
2.82551e-08
2.87952e-08
2.61935e-08
2.11564e-08
1.59774e-08
1.22335e-08
1.12111e-08
1.36387e-08
1.79507e-08
2.09248e-08
2.06743e-08
1.80641e-08
1.56009e-08
1.47759e-08
1.61433e-08
1.9925e-08
2.45891e-08
2.83032e-08
3.04989e-08
3.07948e-08
2.9123e-08
2.54837e-08
3.48489e-09
3.07153e-15
3.87008e-09
1.36043e-08
2.45504e-08
3.26642e-08
3.59338e-08
3.42186e-08
2.94927e-08
2.6437e-08
2.87999e-08
3.46026e-08
3.84914e-08
3.74155e-08
3.181e-08
2.38751e-08
1.63711e-08
1.13103e-08
8.65582e-09
6.97737e-09
6.71697e-09
1.16235e-08
2.42131e-08
4.14375e-08
5.66597e-08
6.39861e-08
6.13354e-08
5.07404e-08
3.58794e-08
2.3788e-08
2.05734e-08
2.27835e-08
2.45685e-08
2.29979e-08
1.83012e-08
1.3651e-08
1.22017e-08
1.40734e-08
1.50571e-08
1.06751e-08
3.64533e-09
3.39916e-12
3.68165e-09
1.32883e-08
2.4211e-08
3.23586e-08
3.56757e-08
3.39909e-08
2.92757e-08
2.62314e-08
2.86491e-08
3.45516e-08
3.85349e-08
3.75151e-08
3.19344e-08
2.40055e-08
1.649e-08
1.14009e-08
8.7111e-09
6.99062e-09
6.64601e-09
1.13885e-08
2.37671e-08
4.0829e-08
5.60369e-08
6.35384e-08
6.1206e-08
5.09487e-08
3.6282e-08
2.41282e-08
2.07679e-08
2.29545e-08
2.48357e-08
2.33863e-08
1.87347e-08
1.40366e-08
1.24736e-08
1.42502e-08
1.52363e-08
1.08852e-08
3.87006e-09
2.04617e-11
3.57827e-09
1.32064e-08
2.42535e-08
3.25264e-08
3.58935e-08
3.41633e-08
2.93136e-08
2.61205e-08
2.85117e-08
3.45174e-08
3.86269e-08
3.76843e-08
3.21345e-08
2.42055e-08
1.66622e-08
1.15278e-08
8.78568e-09
7.0016e-09
6.55432e-09
1.11547e-08
2.34091e-08
4.04234e-08
5.56929e-08
6.33753e-08
6.13002e-08
5.12951e-08
3.67052e-08
2.43614e-08
2.07884e-08
2.29603e-08
2.50261e-08
2.38076e-08
1.92444e-08
1.44726e-08
1.27646e-08
1.44705e-08
1.55409e-08
1.12444e-08
4.16957e-09
7.68756e-11
3.6524e-09
1.3512e-08
2.48534e-08
3.33261e-08
3.67509e-08
3.49126e-08
2.97697e-08
2.62079e-08
2.83987e-08
3.44616e-08
3.87251e-08
3.78882e-08
3.23804e-08
2.4445e-08
1.68604e-08
1.16677e-08
8.86527e-09
7.00648e-09
6.46468e-09
1.10148e-08
2.3324e-08
4.0465e-08
5.58513e-08
6.36168e-08
6.16062e-08
5.16512e-08
3.69943e-08
2.44033e-08
2.06188e-08
2.27766e-08
2.5058e-08
2.41599e-08
1.97461e-08
1.49237e-08
1.30921e-08
1.47929e-08
1.6046e-08
1.17932e-08
4.64011e-09
2.31441e-10
3.93898e-09
1.42353e-08
2.60211e-08
3.47712e-08
3.83011e-08
3.63806e-08
3.08776e-08
2.67194e-08
2.84208e-08
3.43518e-08
3.87168e-08
3.79979e-08
3.25512e-08
2.46327e-08
1.70337e-08
1.17997e-08
8.93265e-09
6.98842e-09
6.36731e-09
1.09604e-08
2.34825e-08
4.08961e-08
5.64554e-08
6.42552e-08
6.22225e-08
5.2242e-08
3.74685e-08
2.45647e-08
2.04971e-08
2.25359e-08
2.4888e-08
2.42624e-08
2.00427e-08
1.52854e-08
1.34841e-08
1.53391e-08
1.68879e-08
1.26639e-08
5.47699e-09
5.74762e-10
4.41342e-09
1.52594e-08
2.76009e-08
3.67084e-08
4.04297e-08
3.85619e-08
3.27934e-08
2.79909e-08
2.89442e-08
3.43937e-08
3.8629e-08
3.79357e-08
3.25299e-08
2.4656e-08
1.71061e-08
1.18991e-08
8.99845e-09
6.93826e-09
6.18166e-09
1.07809e-08
2.34845e-08
4.11198e-08
5.68765e-08
6.49476e-08
6.33393e-08
5.37691e-08
3.91248e-08
2.577e-08
2.10933e-08
2.27145e-08
2.47732e-08
2.40765e-08
1.99396e-08
1.53978e-08
1.39472e-08
1.62721e-08
1.83078e-08
1.4104e-08
7.09672e-09
1.26631e-09
4.99568e-09
1.64323e-08
2.94244e-08
3.88547e-08
4.2821e-08
4.11472e-08
3.52957e-08
3.00051e-08
3.02578e-08
3.50243e-08
3.88218e-08
3.78942e-08
3.23621e-08
2.44838e-08
1.70197e-08
1.19175e-08
9.04782e-09
6.83613e-09
5.73883e-09
1.00881e-08
2.28596e-08
4.07361e-08
5.67147e-08
6.5152e-08
6.43423e-08
5.5935e-08
4.22285e-08
2.87704e-08
2.33303e-08
2.42653e-08
2.55846e-08
2.41599e-08
1.95571e-08
1.51711e-08
1.44453e-08
1.77463e-08
2.06257e-08
1.65671e-08
9.70318e-09
2.41279e-09
5.38989e-09
1.71701e-08
3.10626e-08
4.10772e-08
4.52677e-08
4.3915e-08
3.82014e-08
3.22504e-08
3.15736e-08
3.57817e-08
3.93526e-08
3.82577e-08
3.2467e-08
2.43696e-08
1.68408e-08
1.17995e-08
9.01341e-09
6.67004e-09
5.01338e-09
8.76023e-09
2.15254e-08
3.99142e-08
5.63816e-08
6.51228e-08
6.47044e-08
5.71453e-08
4.48048e-08
3.22805e-08
2.68315e-08
2.73872e-08
2.80215e-08
2.55428e-08
1.9811e-08
1.50208e-08
1.49843e-08
1.95173e-08
2.3603e-08
1.9979e-08
1.29186e-08
4.04271e-09
5.65683e-09
1.72594e-08
3.20594e-08
4.30992e-08
4.76679e-08
4.65893e-08
4.13424e-08
3.50415e-08
3.28987e-08
3.57937e-08
3.89686e-08
3.81731e-08
3.27312e-08
2.47113e-08
1.69988e-08
1.17294e-08
8.85507e-09
6.44162e-09
4.31286e-09
7.27525e-09
1.97359e-08
3.82604e-08
5.47015e-08
6.30792e-08
6.21e-08
5.45192e-08
4.3619e-08
3.37796e-08
3.02028e-08
3.09752e-08
3.10232e-08
2.78376e-08
2.11761e-08
1.57459e-08
1.59684e-08
2.12097e-08
2.6283e-08
2.35445e-08
1.63075e-08
6.18377e-09
6.05131e-09
1.69583e-08
3.25544e-08
4.51084e-08
5.02856e-08
4.91e-08
4.42287e-08
3.80312e-08
3.4918e-08
3.59398e-08
3.78652e-08
3.69849e-08
3.22623e-08
2.50618e-08
1.76378e-08
1.20477e-08
8.75809e-09
6.19591e-09
3.95168e-09
6.50091e-09
1.86355e-08
3.69422e-08
5.25123e-08
5.94928e-08
5.68815e-08
4.80651e-08
3.82578e-08
3.22936e-08
3.26333e-08
3.51425e-08
3.50762e-08
3.12231e-08
2.36796e-08
1.73508e-08
1.74675e-08
2.29819e-08
2.85499e-08
2.67913e-08
1.94199e-08
8.58141e-09
6.3671e-09
1.56582e-08
3.16317e-08
4.65156e-08
5.33849e-08
5.17495e-08
4.66502e-08
4.06632e-08
3.71359e-08
3.66225e-08
3.65811e-08
3.47877e-08
3.04625e-08
2.44737e-08
1.80923e-08
1.26427e-08
8.94916e-09
6.10649e-09
3.98779e-09
6.83203e-09
1.9287e-08
3.75389e-08
5.18699e-08
5.66283e-08
5.16752e-08
4.09858e-08
3.12608e-08
2.87186e-08
3.34355e-08
3.88257e-08
4.00032e-08
3.67305e-08
2.89364e-08
2.10538e-08
1.97043e-08
2.42765e-08
2.95305e-08
2.88806e-08
2.12171e-08
1.03592e-08
6.02619e-09
1.25251e-08
2.75833e-08
4.47763e-08
5.49643e-08
5.43201e-08
4.81524e-08
4.20859e-08
3.86756e-08
3.75966e-08
3.59605e-08
3.2637e-08
2.79757e-08
2.28738e-08
1.77869e-08
1.30946e-08
9.40916e-09
6.48413e-09
4.76149e-09
8.45048e-09
2.18225e-08
4.06981e-08
5.4237e-08
5.69465e-08
5.00004e-08
3.74526e-08
2.60819e-08
2.41381e-08
3.12754e-08
3.93099e-08
4.27117e-08
4.14e-08
3.51377e-08
2.70737e-08
2.41223e-08
2.68042e-08
3.01926e-08
2.94679e-08
2.13302e-08
1.10257e-08
5.0906e-09
8.38825e-09
2.10142e-08
3.87057e-08
5.21123e-08
5.40146e-08
4.81467e-08
4.18288e-08
3.90191e-08
3.89942e-08
3.71099e-08
3.2083e-08
2.61094e-08
2.09552e-08
1.69266e-08
1.33107e-08
1.01217e-08
7.51004e-09
6.49316e-09
1.08037e-08
2.43353e-08
4.33468e-08
5.67461e-08
5.82772e-08
5.03285e-08
3.72184e-08
2.39655e-08
2.00604e-08
2.61958e-08
3.5264e-08
4.10535e-08
4.25956e-08
3.94631e-08
3.29625e-08
2.92776e-08
3.01804e-08
3.10514e-08
2.8899e-08
2.00533e-08
1.06302e-08
3.86914e-09
4.27239e-09
1.36033e-08
2.99204e-08
4.5141e-08
5.00547e-08
4.58506e-08
4.01545e-08
3.83021e-08
4.0054e-08
3.93672e-08
3.36919e-08
2.63335e-08
2.046e-08
1.67016e-08
1.38063e-08
1.10918e-08
8.93417e-09
8.41549e-09
1.214e-08
2.36058e-08
4.08151e-08
5.41378e-08
5.61586e-08
4.88128e-08
3.65914e-08
2.32212e-08
1.73585e-08
2.06763e-08
2.82241e-08
3.49658e-08
3.91627e-08
3.97741e-08
3.62941e-08
3.27955e-08
3.21373e-08
3.10466e-08
2.72763e-08
1.86456e-08
1.01823e-08
3.15474e-09
1.25606e-09
7.06063e-09
2.0467e-08
3.56797e-08
4.34288e-08
4.18481e-08
3.77891e-08
3.68779e-08
3.96982e-08
4.08582e-08
3.6369e-08
2.92552e-08
2.30791e-08
1.83593e-08
1.42466e-08
1.04845e-08
8.32033e-09
8.66119e-09
1.2273e-08
2.14826e-08
3.6388e-08
4.97207e-08
5.36108e-08
4.74764e-08
3.55374e-08
2.27068e-08
1.55646e-08
1.65691e-08
2.22635e-08
2.87258e-08
3.4241e-08
3.72235e-08
3.6372e-08
3.36889e-08
3.18224e-08
2.97163e-08
2.54095e-08
1.66063e-08
9.75435e-09
3.53847e-09
2.18087e-10
2.45027e-09
1.16129e-08
2.45299e-08
3.38097e-08
3.53765e-08
3.37512e-08
3.41073e-08
3.7799e-08
4.08631e-08
3.85784e-08
3.2179e-08
2.57404e-08
1.99689e-08
1.43881e-08
9.40868e-09
7.12397e-09
8.87976e-09
1.3626e-08
2.16371e-08
3.38562e-08
4.63333e-08
5.16058e-08
4.66559e-08
3.50557e-08
2.22715e-08
1.4291e-08
1.39422e-08
1.86115e-08
2.48114e-08
3.11361e-08
3.59337e-08
3.69053e-08
3.40844e-08
3.03961e-08
2.72013e-08
2.26892e-08
1.53815e-08
9.8594e-09
4.88073e-09
1.71926e-09
1.95325e-09
6.30453e-09
1.36063e-08
2.0456e-08
2.37138e-08
2.50827e-08
2.81426e-08
3.39309e-08
3.96453e-08
4.04141e-08
3.53349e-08
2.82919e-08
2.14117e-08
1.53038e-08
9.88328e-09
7.21171e-09
9.42315e-09
1.51899e-08
2.27064e-08
3.21147e-08
4.20513e-08
4.68938e-08
4.27456e-08
3.26556e-08
2.14079e-08
1.37294e-08
1.23883e-08
1.64055e-08
2.25964e-08
2.9127e-08
3.45051e-08
3.65873e-08
3.4139e-08
2.95458e-08
2.53945e-08
2.08147e-08
1.4212e-08
1.09419e-08
7.94613e-09
5.82287e-09
5.52243e-09
6.9244e-09
9.11863e-09
1.09629e-08
1.22769e-08
1.46893e-08
2.01117e-08
2.85399e-08
3.70884e-08
4.12282e-08
3.87205e-08
3.14526e-08
2.32483e-08
1.62514e-08
1.06949e-08
7.91227e-09
1.00451e-08
1.58995e-08
2.32114e-08
3.14157e-08
3.96504e-08
4.35234e-08
3.96492e-08
3.03494e-08
2.01995e-08
1.2985e-08
1.13562e-08
1.50486e-08
2.14327e-08
2.80331e-08
3.32586e-08
3.50344e-08
3.2089e-08
2.66496e-08
2.17885e-08
1.78303e-08
1.29998e-08
1.21777e-08
1.14703e-08
1.10265e-08
1.15274e-08
1.20943e-08
1.10512e-08
8.74592e-09
6.81036e-09
7.07428e-09
1.112e-08
1.89967e-08
2.88105e-08
3.65718e-08
3.8719e-08
3.45523e-08
2.70214e-08
1.97611e-08
1.39723e-08
1.02099e-08
1.05113e-08
1.49605e-08
2.14017e-08
2.8969e-08
3.68844e-08
4.08217e-08
3.71821e-08
2.84648e-08
1.92044e-08
1.27579e-08
1.09094e-08
1.40084e-08
2.02044e-08
2.70249e-08
3.19571e-08
3.31308e-08
2.98267e-08
2.36087e-08
1.79452e-08
1.46534e-08
1.13616e-08
1.23089e-08
1.35107e-08
1.40816e-08
1.41517e-08
1.3785e-08
1.24716e-08
1.01112e-08
7.66657e-09
6.32679e-09
7.33587e-09
1.14396e-08
1.81253e-08
2.52164e-08
3.00945e-08
3.09433e-08
2.83817e-08
2.47322e-08
2.08166e-08
1.64137e-08
1.32741e-08
1.35635e-08
1.73229e-08
2.37078e-08
3.16716e-08
3.71035e-08
3.54679e-08
2.79952e-08
1.95013e-08
1.38026e-08
1.20737e-08
1.43968e-08
1.99195e-08
2.59675e-08
2.98992e-08
3.03375e-08
2.71073e-08
2.11884e-08
1.52952e-08
1.20171e-08
9.58041e-09
1.03589e-08
1.24547e-08
1.47214e-08
1.6749e-08
1.7639e-08
1.60826e-08
1.27408e-08
9.37355e-09
7.05023e-09
6.43784e-09
8.15004e-09
1.19309e-08
1.70488e-08
2.21906e-08
2.60243e-08
2.79241e-08
2.82433e-08
2.69609e-08
2.33784e-08
1.87407e-08
1.66553e-08
1.86662e-08
2.35983e-08
2.98211e-08
3.4122e-08
3.23966e-08
2.51227e-08
1.68249e-08
1.11395e-08
1.01932e-08
1.42937e-08
2.15472e-08
2.86684e-08
3.25552e-08
3.27419e-08
2.98628e-08
2.42369e-08
1.71805e-08
1.1671e-08
1.32254e-08
1.19472e-08
1.20098e-08
1.28693e-08
1.41549e-08
1.5027e-08
1.45051e-08
1.25511e-08
1.03275e-08
8.73892e-09
8.27447e-09
9.00031e-09
1.0674e-08
1.28956e-08
1.5642e-08
1.88712e-08
2.23681e-08
2.54868e-08
2.76001e-08
2.76852e-08
2.57712e-08
2.41896e-08
2.4764e-08
2.69864e-08
3.00578e-08
3.17412e-08
2.9835e-08
2.35817e-08
1.55754e-08
9.37935e-09
7.85427e-09
1.20463e-08
2.02341e-08
2.89263e-08
3.44481e-08
3.5155e-08
3.26238e-08
2.82105e-08
2.22799e-08
1.67057e-08
1.58522e-08
1.3453e-08
1.26157e-08
1.23731e-08
1.24231e-08
1.26683e-08
1.25726e-08
1.18591e-08
1.07624e-08
1.02359e-08
1.08973e-08
1.26149e-08
1.46541e-08
1.62034e-08
1.69455e-08
1.73943e-08
1.82128e-08
1.94959e-08
2.09307e-08
2.17557e-08
2.14339e-08
2.08273e-08
2.14129e-08
2.3577e-08
2.6613e-08
2.87901e-08
2.8084e-08
2.33604e-08
1.64972e-08
1.07277e-08
8.5847e-09
1.10574e-08
1.73784e-08
2.49776e-08
3.05007e-08
3.22189e-08
3.10033e-08
2.84463e-08
2.47646e-08
2.0056e-08
1.77445e-08
1.34266e-08
1.07157e-08
9.45362e-09
9.47835e-09
1.04917e-08
1.21451e-08
1.38754e-08
1.50188e-08
1.54913e-08
1.56369e-08
1.56878e-08
1.58499e-08
1.6229e-08
1.7257e-08
1.88303e-08
2.05586e-08
2.19968e-08
2.27438e-08
2.25666e-08
2.13266e-08
1.94554e-08
1.82568e-08
1.84853e-08
1.97452e-08
2.15286e-08
2.25799e-08
2.09325e-08
1.67305e-08
1.24321e-08
1.04536e-08
1.17092e-08
1.59755e-08
2.19459e-08
2.71476e-08
2.97724e-08
2.99813e-08
2.89228e-08
2.67437e-08
2.28049e-08
1.94797e-08
1.37359e-08
9.05723e-09
6.61278e-09
6.78682e-09
9.07711e-09
1.2687e-08
1.64927e-08
1.91621e-08
2.03139e-08
2.05074e-08
2.03667e-08
2.02751e-08
2.02934e-08
2.04327e-08
2.11594e-08
2.27468e-08
2.46626e-08
2.60719e-08
2.60695e-08
2.37742e-08
1.95756e-08
1.55314e-08
1.32077e-08
1.29751e-08
1.4952e-08
1.81023e-08
1.99363e-08
1.93353e-08
1.73825e-08
1.58021e-08
1.55484e-08
1.68108e-08
1.96835e-08
2.31098e-08
2.58972e-08
2.77393e-08
2.84523e-08
2.7552e-08
2.45505e-08
4.5682e-09
2.56845e-09
2.25491e-09
4.89386e-09
1.07763e-08
1.8622e-08
2.53179e-08
2.78582e-08
2.5587e-08
2.18268e-08
2.12213e-08
2.45059e-08
2.82091e-08
2.91296e-08
2.68041e-08
2.23385e-08
1.73133e-08
1.33862e-08
1.10387e-08
9.5767e-09
9.58248e-09
1.3667e-08
2.35471e-08
3.68514e-08
4.88157e-08
5.57795e-08
5.6432e-08
5.15584e-08
4.22614e-08
3.21822e-08
2.70346e-08
2.75987e-08
2.82135e-08
2.58104e-08
2.1258e-08
1.63628e-08
1.27923e-08
1.08472e-08
9.21039e-09
7.03404e-09
4.6175e-09
2.54251e-09
2.17156e-09
4.76575e-09
1.06135e-08
1.84487e-08
2.51732e-08
2.77776e-08
2.55737e-08
2.18525e-08
2.12593e-08
2.45517e-08
2.82634e-08
2.91812e-08
2.6842e-08
2.23777e-08
1.7352e-08
1.34123e-08
1.10481e-08
9.56306e-09
9.52846e-09
1.35462e-08
2.33406e-08
3.65439e-08
4.84179e-08
5.53348e-08
5.59814e-08
5.11311e-08
4.18773e-08
3.18343e-08
2.67259e-08
2.74714e-08
2.84021e-08
2.62656e-08
2.1836e-08
1.69328e-08
1.32632e-08
1.11857e-08
9.43673e-09
7.16892e-09
4.6064e-09
2.49499e-09
2.09987e-09
4.68688e-09
1.05475e-08
1.8436e-08
2.5249e-08
2.79356e-08
2.57456e-08
2.1955e-08
2.12843e-08
2.45615e-08
2.82993e-08
2.92447e-08
2.69313e-08
2.24924e-08
1.74694e-08
1.34927e-08
1.10858e-08
9.55388e-09
9.45213e-09
1.33898e-08
2.31347e-08
3.63303e-08
4.82074e-08
5.51519e-08
5.58233e-08
5.09572e-08
4.1617e-08
3.13921e-08
2.614e-08
2.7072e-08
2.84967e-08
2.68193e-08
2.26473e-08
1.77622e-08
1.39281e-08
1.16116e-08
9.6523e-09
7.24072e-09
4.5156e-09
2.41831e-09
2.0599e-09
4.69066e-09
1.06171e-08
1.86304e-08
2.55989e-08
2.83757e-08
2.61078e-08
2.20953e-08
2.12306e-08
2.44699e-08
2.82734e-08
2.92983e-08
2.70673e-08
2.27175e-08
1.77278e-08
1.36861e-08
1.11917e-08
9.57187e-09
9.38732e-09
1.32783e-08
2.30752e-08
3.64014e-08
4.83838e-08
5.54063e-08
5.61012e-08
5.11626e-08
4.16213e-08
3.09817e-08
2.5323e-08
2.63339e-08
2.83595e-08
2.73288e-08
2.35909e-08
1.88256e-08
1.48284e-08
1.21934e-08
9.90079e-09
7.24734e-09
4.36118e-09
2.3358e-09
2.09393e-09
4.79673e-09
1.08113e-08
1.89879e-08
2.61745e-08
2.90575e-08
2.66273e-08
2.22261e-08
2.10162e-08
2.41526e-08
2.80394e-08
2.91904e-08
2.71352e-08
2.29785e-08
1.81077e-08
1.40336e-08
1.14131e-08
9.63821e-09
9.33994e-09
1.32451e-08
2.32463e-08
3.68707e-08
4.90962e-08
5.62354e-08
5.6917e-08
5.18682e-08
4.21435e-08
3.09772e-08
2.45949e-08
2.53709e-08
2.78919e-08
2.75962e-08
2.44826e-08
2.00474e-08
1.60166e-08
1.30549e-08
1.02969e-08
7.24651e-09
4.18766e-09
2.27425e-09
2.26172e-09
5.05171e-09
1.112e-08
1.94665e-08
2.69211e-08
2.99577e-08
2.73259e-08
2.2394e-08
2.06506e-08
2.35164e-08
2.73999e-08
2.8686e-08
2.68343e-08
2.30322e-08
1.84857e-08
1.45145e-08
1.17777e-08
9.77233e-09
9.24049e-09
1.30553e-08
2.32889e-08
3.74416e-08
5.02434e-08
5.77796e-08
5.85898e-08
5.34728e-08
4.37274e-08
3.21095e-08
2.46731e-08
2.46669e-08
2.72375e-08
2.75238e-08
2.51416e-08
2.13243e-08
1.75342e-08
1.43559e-08
1.10249e-08
7.36081e-09
4.1003e-09
2.24334e-09
2.60822e-09
5.5381e-09
1.1539e-08
1.99197e-08
2.76723e-08
3.10157e-08
2.82866e-08
2.27914e-08
2.03732e-08
2.27115e-08
2.62982e-08
2.74957e-08
2.58504e-08
2.25923e-08
1.86904e-08
1.50672e-08
1.2289e-08
9.99474e-09
9.02335e-09
1.23561e-08
2.24238e-08
3.6994e-08
5.07901e-08
5.95632e-08
6.12813e-08
5.64821e-08
4.69785e-08
3.52357e-08
2.6627e-08
2.52629e-08
2.71401e-08
2.74233e-08
2.55998e-08
2.2665e-08
1.95272e-08
1.63449e-08
1.23718e-08
7.83046e-09
4.34151e-09
2.27655e-09
3.05305e-09
6.26081e-09
1.21275e-08
2.02379e-08
2.8043e-08
3.17815e-08
2.92791e-08
2.35117e-08
2.04447e-08
2.20871e-08
2.51467e-08
2.60502e-08
2.44308e-08
2.18067e-08
1.8797e-08
1.57623e-08
1.29889e-08
1.03039e-08
8.6552e-09
1.10327e-08
2.04284e-08
3.51829e-08
5.0095e-08
6.06791e-08
6.40968e-08
6.0251e-08
5.12945e-08
3.95551e-08
3.01438e-08
2.75034e-08
2.8513e-08
2.83036e-08
2.65609e-08
2.45375e-08
2.23842e-08
1.93948e-08
1.47361e-08
9.03299e-09
5.25386e-09
2.41702e-09
3.32373e-09
6.97586e-09
1.29153e-08
2.06381e-08
2.80565e-08
3.18999e-08
2.97924e-08
2.40346e-08
2.05095e-08
2.13226e-08
2.36167e-08
2.41972e-08
2.28297e-08
2.10585e-08
1.93534e-08
1.71649e-08
1.43353e-08
1.09889e-08
8.31674e-09
9.28699e-09
1.75792e-08
3.23124e-08
4.8201e-08
6.0265e-08
6.51073e-08
6.21393e-08
5.37935e-08
4.27193e-08
3.29626e-08
2.93095e-08
3.00023e-08
3.00181e-08
2.8646e-08
2.7758e-08
2.69405e-08
2.41477e-08
1.85588e-08
1.13718e-08
7.17866e-09
2.86584e-09
3.13672e-09
6.91249e-09
1.34265e-08
2.11216e-08
2.80031e-08
3.1442e-08
2.95216e-08
2.39084e-08
2.01016e-08
2.01035e-08
2.14399e-08
2.15837e-08
2.06607e-08
2.0328e-08
2.04278e-08
1.94979e-08
1.67275e-08
1.26141e-08
8.76581e-09
8.01032e-09
1.45668e-08
2.86378e-08
4.49555e-08
5.79024e-08
6.34053e-08
6.06891e-08
5.26857e-08
4.30222e-08
3.39986e-08
2.94352e-08
2.98155e-08
3.08144e-08
3.07012e-08
3.1674e-08
3.30415e-08
3.08346e-08
2.41417e-08
1.51634e-08
1.01606e-08
3.88591e-09
2.63196e-09
5.66552e-09
1.24586e-08
2.12598e-08
2.84394e-08
3.11345e-08
2.87536e-08
2.29736e-08
1.88983e-08
1.84113e-08
1.93761e-08
1.95117e-08
1.90778e-08
1.97694e-08
2.13161e-08
2.14685e-08
1.90375e-08
1.46936e-08
1.02707e-08
8.17905e-09
1.25946e-08
2.49973e-08
4.07992e-08
5.40057e-08
5.96505e-08
5.64883e-08
4.84344e-08
4.02873e-08
3.3379e-08
2.8595e-08
2.79362e-08
2.98519e-08
3.14671e-08
3.44794e-08
3.85432e-08
3.75687e-08
3.01768e-08
1.98411e-08
1.33438e-08
5.41326e-09
2.28399e-09
3.99093e-09
1.023e-08
1.99331e-08
2.86941e-08