/*--------------------------------*- C++ -*----------------------------------*\
| =========                 |                                                 |
| \\      /  F ield         | OpenFOAM: The Open Source CFD Toolbox           |
|  \\    /   O peration     | Version:  2306                                  |
|   \\  /    A nd           | Website:  www.openfoam.com                      |
|    \\/     M anipulation  |                                                 |
\*---------------------------------------------------------------------------*/
FoamFile
{
    version     2.0;
    format      ascii;
    arch        "LSB;label=32;scalar=64";
    class       volVectorField;
    location    "9";
    object      U;
}
// * * * * * * * * * * * * * * * * * * * * * * * * * * * * * * * * * * * * * //

dimensions      [0 1 -1 0 0 0 0];

internalField   nonuniform List<vector> 
60000
(
(0.00644121 2.04614e-05 -0.000485787)
(0.00671923 2.61464e-05 -0.000224495)
(0.00710472 3.06812e-05 -6.76014e-05)
(0.0076193 2.35279e-05 0.000174581)
(0.00821372 2.08661e-05 0.000645703)
(0.00873888 2.21394e-05 0.00128091)
(0.00895874 2.7674e-05 0.00194386)
(0.00877481 3.16904e-05 0.00245097)
(0.00835393 3.04756e-05 0.0026494)
(0.00795272 2.61449e-05 0.00251933)
(0.00767809 2.16044e-05 0.00216891)
(0.00748158 1.64395e-05 0.00176654)
(0.00728381 9.14143e-06 0.00145988)
(0.00703018 7.50553e-07 0.00130312)
(0.0066776 -5.78099e-06 0.00125051)
(0.00621048 -6.30198e-06 0.00125123)
(0.0057167 -3.41831e-06 0.00125377)
(0.00536918 -1.28464e-06 0.00120116)
(0.00526323 -3.57133e-07 0.00104804)
(0.00532412 -1.13351e-06 0.000758137)
(0.00544262 -7.08593e-06 0.000419775)
(0.00561574 -1.34457e-05 0.000156654)
(0.00589415 -1.31957e-05 -3.90619e-05)
(0.00623561 -7.86841e-06 -0.000213223)
(0.00657344 7.15321e-06 -0.000286817)
(0.0068898 2.17726e-05 -0.000237861)
(0.00718145 2.64259e-05 -0.000205359)
(0.00742983 1.93819e-05 -0.000395021)
(0.0076765 -4.28445e-06 -0.000928601)
(0.00798682 -2.99675e-05 -0.00165624)
(0.00826169 -3.91443e-05 -0.00222725)
(0.00830684 -2.97038e-05 -0.00240823)
(0.00804865 -1.46753e-05 -0.00236175)
(0.00757395 9.59539e-07 -0.00236849)
(0.00698029 1.37234e-05 -0.00236507)
(0.00636995 1.50614e-05 -0.00224114)
(0.00590747 8.24064e-06 -0.00204933)
(0.00575321 3.83452e-06 -0.00179305)
(0.00590376 2.76562e-06 -0.00140224)
(0.00617769 1.15136e-05 -0.000912746)
(0.0190768 0.000111495 -0.00130757)
(0.0200872 0.000119953 -0.000644607)
(0.0214547 0.000105299 -0.000162373)
(0.0231257 6.63945e-05 0.000610134)
(0.0249258 7.22602e-05 0.00193831)
(0.0264835 0.000123263 0.00363008)
(0.0272047 0.000206716 0.00531663)
(0.0267713 0.000265508 0.00654693)
(0.0255611 0.0002603 0.00696981)
(0.0243143 0.000208672 0.00655152)
(0.0234455 0.000149837 0.00560232)
(0.0228815 0.000101486 0.00456777)
(0.0223625 5.99522e-05 0.00378555)
(0.0216527 2.08165e-05 0.00335066)
(0.020601 -1.0832e-05 0.00318826)
(0.019235 -3.21423e-05 0.00319768)
(0.0178438 -6.14182e-05 0.00321276)
(0.0168199 -9.95128e-05 0.00304488)
(0.0163595 -0.000123741 0.00258732)
(0.0163321 -0.00012768 0.00185981)
(0.0165379 -0.000134672 0.001092)
(0.0169502 -0.000136926 0.000486208)
(0.0176211 -0.000100781 1.72254e-06)
(0.0184559 -3.66418e-05 -0.000395204)
(0.0193633 4.4171e-05 -0.000537827)
(0.0203481 8.44327e-05 -0.000444768)
(0.0214231 5.21183e-05 -0.000465942)
(0.0225565 -6.32166e-05 -0.00105641)
(0.0237735 -0.000237447 -0.00244156)
(0.0249918 -0.000352987 -0.00422525)
(0.0257521 -0.000312394 -0.00562248)
(0.025623 -0.000154886 -0.00616946)
(0.0246398 6.10232e-06 -0.00620006)
(0.0232014 0.000114325 -0.00617885)
(0.0216182 0.000142615 -0.00602737)
(0.0200487 8.71559e-05 -0.00570692)
(0.0186897 3.26055e-06 -0.00531033)
(0.0178831 -3.53004e-05 -0.00468038)
(0.0178371 -1.29708e-05 -0.00363784)
(0.0183243 5.57508e-05 -0.00237158)
(0.0315517 0.000243004 -0.00249089)
(0.0332895 0.000235956 -0.00151698)
(0.0356846 0.000158365 -0.000799988)
(0.0385773 6.29161e-05 0.000367342)
(0.0416899 8.18313e-05 0.00238516)
(0.0445244 0.000206622 0.00498046)
(0.0461853 0.000406188 0.00757255)
(0.0459709 0.000558214 0.00951976)
(0.0441706 0.000571849 0.0103289)
(0.0419419 0.000468853 0.0098856)
(0.0402533 0.000331837 0.00859166)
(0.0392181 0.000214055 0.00710583)
(0.0384225 0.000117501 0.00590781)
(0.0373934 3.12425e-05 0.00512365)
(0.0358268 -3.88711e-05 0.00472158)
(0.0337414 -9.71075e-05 0.00466277)
(0.0315032 -0.000182603 0.0047271)
(0.029606 -0.000288245 0.00455561)
(0.0284045 -0.000355462 0.00393372)
(0.0279032 -0.000365018 0.00293236)
(0.0279254 -0.000363709 0.0018919)
(0.0283954 -0.000341303 0.00105738)
(0.0293044 -0.000225932 0.000360582)
(0.0305104 -4.78041e-05 -0.000203059)
(0.0319392 0.000120158 -0.000390746)
(0.0336456 0.000147935 -0.000215449)
(0.0356595 -1.93275e-05 -0.000145221)
(0.037894 -0.000373162 -0.000823662)
(0.0403171 -0.000818714 -0.00264533)
(0.0427017 -0.0010673 -0.00522165)
(0.0441994 -0.000902559 -0.0075106)
(0.0440875 -0.00045862 -0.00872707)
(0.0425243 -2.38598e-05 -0.00909984)
(0.0402843 0.000242836 -0.00911374)
(0.0379289 0.000284782 -0.00880103)
(0.0355825 0.000138486 -0.00834574)
(0.0332349 -4.48479e-05 -0.00793452)
(0.0312432 -0.000105701 -0.0072316)
(0.0302792 -2.55131e-05 -0.00585263)
(0.0304882 0.00013033 -0.00404731)
(0.0434678 0.000353379 -0.00440174)
(0.0456419 0.000310807 -0.00330101)
(0.0488886 0.000108635 -0.00258602)
(0.0529288 -0.000107374 -0.00133117)
(0.0574162 -0.00011269 0.00109094)
(0.0618474 0.000114921 0.00445835)
(0.0651181 0.000475764 0.00800461)
(0.0659738 0.000777642 0.0108817)
(0.0641684 0.000877476 0.0124565)
(0.0609799 0.000765704 0.0124505)
(0.0581611 0.000550911 0.0112047)
(0.0564201 0.000341815 0.00952923)
(0.0553432 0.00016967 0.00804667)
(0.0541867 2.73311e-05 0.00688345)
(0.0524228 -8.13211e-05 0.00605502)
(0.0499621 -0.000176001 0.00573039)
(0.0470733 -0.000321435 0.0058141)
(0.0441475 -0.000509295 0.00579174)
(0.0416757 -0.000646166 0.00520869)
(0.0400485 -0.000689311 0.00409092)
(0.0393646 -0.000698666 0.002904)
(0.0395454 -0.000652048 0.00196726)
(0.0404635 -0.000424439 0.00116451)
(0.0418877 -7.18396e-05 0.000493175)
(0.043747 0.000200962 0.000306348)
(0.0461486 0.000172221 0.00068925)
(0.0491145 -0.000233022 0.00115692)
(0.0523958 -0.000976923 0.000922495)
(0.0558952 -0.00186189 -0.000699425)
(0.0595605 -0.00231787 -0.00371289)
(0.0623499 -0.00196071 -0.00708464)
(0.0629709 -0.00108052 -0.00951017)
(0.061411 -0.000215763 -0.0107616)
(0.0587764 0.000322142 -0.0111614)
(0.0559703 0.000419811 -0.0108163)
(0.053148 0.00016653 -0.0102233)
(0.0499589 -0.000135856 -0.00987326)
(0.0464295 -0.000220966 -0.00939828)
(0.0436382 -7.68576e-05 -0.00814272)
(0.0426506 0.000177512 -0.00620169)
(0.0549105 0.000381736 -0.00700796)
(0.0566415 0.000272691 -0.0061904)
(0.0600533 -0.000126428 -0.0059129)
(0.0647209 -0.000601078 -0.00508583)
(0.07033 -0.000774973 -0.00280123)
(0.076513 -0.00044329 0.00100948)
(0.082172 0.000201965 0.0056229)
(0.0853656 0.000754952 0.00986414)
(0.0847969 0.00104324 0.0127893)
(0.0812291 0.00102028 0.0138513)
(0.0771165 0.000774337 0.0131748)
(0.0743046 0.000468355 0.0116696)
(0.0728009 0.000200883 0.0101955)
(0.0716514 -7.73787e-06 0.00884864)
(0.0700304 -0.000148189 0.00752656)
(0.0676478 -0.000255677 0.00664272)
(0.0645632 -0.000425035 0.00652184)
(0.0608241 -0.000661816 0.00669005)
(0.0567702 -0.000869475 0.00634295)
(0.0532172 -0.000999546 0.00525774)
(0.0509231 -0.00110223 0.0040168)
(0.0501234 -0.00109256 0.00311597)
(0.0506417 -0.000747793 0.00237723)
(0.0520452 -0.000154567 0.00172287)
(0.0541444 0.000266106 0.00163398)
(0.0570471 0.000157954 0.00237658)
(0.0607313 -0.000592698 0.00352516)
(0.0645847 -0.00192882 0.00425643)
(0.068238 -0.003508 0.00369033)
(0.0725485 -0.00441241 0.00114089)
(0.0773395 -0.00385597 -0.00311468)
(0.0802539 -0.00228127 -0.00741306)
(0.0800896 -0.000753959 -0.0105083)
(0.0779679 0.000235307 -0.0121124)
(0.075242 0.000509895 -0.0121688)
(0.0723467 0.000183502 -0.0114774)
(0.0687693 -0.000241128 -0.0111168)
(0.0639622 -0.000352897 -0.0109548)
(0.058858 -0.000161045 -0.0101553)
(0.0555035 0.000162915 -0.00857739)
(0.0672869 0.000345036 -0.00946738)
(0.0672429 0.000119129 -0.00943916)
(0.0693872 -0.000600748 -0.0101904)
(0.0731705 -0.00152684 -0.0104688)
(0.0784634 -0.00214693 -0.00921565)
(0.0853476 -0.0020022 -0.00609003)
(0.0936208 -0.0010689 -0.0010514)
(0.10093 0.000118238 0.00496639)
(0.103824 0.000884276 0.0101957)
(0.101549 0.001123 0.0132867)
(0.096645 0.000950526 0.0139237)
(0.092483 0.000574208 0.0130236)
(0.0902745 0.000194773 0.0119289)
(0.0891235 -0.000102697 0.0108912)
(0.0878536 -0.000271594 0.0094053)
(0.0859402 -0.000357491 0.00780778)
(0.0832843 -0.000486247 0.00706462)
(0.079505 -0.000685497 0.00720105)
(0.0743218 -0.000888603 0.00717167)
(0.0684934 -0.00110828 0.00625428)
(0.0635008 -0.00142575 0.00498805)
(0.0604649 -0.00161862 0.00418252)
(0.0597077 -0.00123035 0.00368886)
(0.0606232 -0.000347636 0.00324742)
(0.0626094 0.000320815 0.00339716)
(0.0656339 0.000154795 0.00459046)
(0.0696767 -0.00106068 0.00643048)
(0.0737269 -0.00315904 0.00807798)
(0.0764234 -0.00567197 0.00889914)
(0.0789526 -0.00743758 0.0081686)
(0.0844246 -0.0071169 0.00483744)
(0.091464 -0.00482098 -0.000852186)
(0.0956061 -0.00209986 -0.00687247)
(0.0960339 -0.000235888 -0.0111177)
(0.0944952 0.00046422 -0.0126061)
(0.0920867 0.000177387 -0.0122066)
(0.0886883 -0.000321996 -0.0117976)
(0.0834307 -0.000447388 -0.0118442)
(0.0765735 -0.000204236 -0.0114782)
(0.0704483 0.000142229 -0.0104261)
(0.0823708 0.000355202 -0.0106726)
(0.0803629 -4.05112e-05 -0.0112737)
(0.0804292 -0.00122344 -0.0132066)
(0.0813834 -0.00280873 -0.0151342)
(0.0836552 -0.0040928 -0.0156464)
(0.0879131 -0.0044707 -0.0144344)
(0.095261 -0.0037413 -0.0111394)
(0.106109 -0.00214975 -0.00505557)
(0.115925 -0.000372212 0.0028021)
(0.118729 0.000750682 0.00936167)
(0.115109 0.00096059 0.0125881)
(0.10997 0.000625872 0.0129436)
(0.106865 0.000122267 0.0124625)
(0.105677 -0.000305146 0.0122229)
(0.104807 -0.00051656 0.0113931)
(0.103459 -0.000540813 0.0095193)
(0.101674 -0.000566382 0.00786199)
(0.0989198 -0.000631954 0.00747455)
(0.0940147 -0.00069705 0.00758848)
(0.0868356 -0.000874402 0.00692078)
(0.0788903 -0.0014091 0.00564361)
(0.0721966 -0.00200501 0.00485572)
(0.0685304 -0.00178227 0.0046412)
(0.0679709 -0.000634889 0.00453088)
(0.0693388 0.000382126 0.00497489)
(0.0721156 0.000207161 0.00656896)
(0.0763036 -0.00150283 0.00886916)
(0.0810794 -0.0042948 0.0107695)
(0.0841527 -0.00754684 0.0118745)
(0.0841153 -0.0102866 0.0128303)
(0.0852578 -0.0109249 0.0127758)
(0.0925959 -0.0087896 0.00913594)
(0.102578 -0.00508078 0.00162545)
(0.109206 -0.00171534 -0.00642136)
(0.111335 1.12374e-05 -0.011082)
(0.110472 0.000106734 -0.0121166)
(0.107709 -0.000336504 -0.0119983)
(0.10289 -0.000441566 -0.0121937)
(0.0956587 -0.000179393 -0.0120934)
(0.0878214 0.000197097 -0.0113007)
(0.0990936 0.000543253 -0.0104037)
(0.0965909 -3.20275e-05 -0.0107297)
(0.0961542 -0.0015114 -0.0130168)
(0.0945336 -0.00374293 -0.0164733)
(0.0918165 -0.00587103 -0.0192172)
(0.0907529 -0.00701613 -0.0201983)
(0.0932134 -0.00692116 -0.0191809)
(0.101134 -0.00568153 -0.0154637)
(0.114675 -0.00346074 -0.00815745)
(0.126286 -0.00109542 0.00118447)
(0.128474 0.00021024 0.00823494)
(0.124356 0.000383979 0.010933)
(0.12071 -2.63769e-05 0.0111909)
(0.119819 -0.000593544 0.0116648)
(0.119696 -0.000956625 0.0122073)
(0.118727 -0.000933011 0.0112457)
(0.117564 -0.000749891 0.00915962)
(0.116492 -0.000606528 0.00786483)
(0.113705 -0.000467459 0.0076818)
(0.107488 -0.000418433 0.00717341)
(0.098239 -0.000956711 0.00591992)
(0.0878024 -0.0019443 0.00508026)
(0.0794162 -0.00213718 0.00505751)
(0.0756222 -0.000918297 0.00523197)
(0.0755901 0.000486187 0.00586982)
(0.0778657 0.000467781 0.00773093)
(0.0819929 -0.00147047 0.0103652)
(0.0876254 -0.00469159 0.0121838)
(0.0930841 -0.00816491 0.0123983)
(0.094496 -0.0112401 0.012919)
(0.0912424 -0.0130849 0.0155289)
(0.0915523 -0.0123276 0.0168609)
(0.10068 -0.00898599 0.0122989)
(0.113151 -0.00460693 0.00272541)
(0.122002 -0.00133581 -0.00601193)
(0.124804 -0.000327732 -0.010246)
(0.123182 -0.00048612 -0.0114418)
(0.119239 -0.00037826 -0.0119569)
(0.113021 8.10579e-05 -0.0120325)
(0.105296 0.000493908 -0.0112656)
(0.112452 0.000783801 -0.00842798)
(0.111509 0.000299399 -0.00782289)
(0.113084 -0.00108433 -0.00939215)
(0.112234 -0.00343346 -0.0135487)
(0.106157 -0.00620076 -0.0185003)
(0.0988534 -0.00831526 -0.0221674)
(0.0953826 -0.00920205 -0.0233636)
(0.0974904 -0.0089328 -0.0215878)
(0.107101 -0.00737838 -0.0164876)
(0.122433 -0.00455799 -0.00780418)
(0.132884 -0.00186509 0.00173969)
(0.132637 -0.000723331 0.00738878)
(0.128747 -0.000768205 0.00852556)
(0.12844 -0.00115165 0.00883078)
(0.130569 -0.00147379 0.0103417)
(0.130662 -0.00152738 0.0112655)
(0.129001 -0.00128867 0.0101691)
(0.128779 -0.000858904 0.00845397)
(0.129332 -0.000343321 0.00767667)
(0.127023 -1.33281e-05 0.00707634)
(0.119953 -0.000337835 0.00580457)
(0.10825 -0.00138871 0.0048623)
(0.0949728 -0.00198583 0.00500069)
(0.0858533 -0.00098161 0.00551773)
(0.0827956 0.000661654 0.00634737)
(0.0840041 0.000922405 0.00821565)
(0.0880017 -0.00100639 0.010637)
(0.0939419 -0.00448394 0.0119983)
(0.100842 -0.00800967 0.0113501)
(0.105595 -0.0106258 0.0106917)
(0.104041 -0.0125498 0.0135648)
(0.0984486 -0.0135139 0.0187978)
(0.0995218 -0.0120491 0.0195241)
(0.110877 -0.00819455 0.0124619)
(0.12526 -0.00378568 0.0019105)
(0.132998 -0.00116091 -0.00607995)
(0.131054 -0.000454702 -0.00970406)
(0.125317 -0.00028384 -0.0105822)
(0.120678 0.000133267 -0.0104173)
(0.116369 0.000616452 -0.00961384)
(0.113238 0.000552379 -0.00345511)
(0.116083 0.000246858 -0.00180093)
(0.12232 -0.000667874 -0.00218829)
(0.126897 -0.00223171 -0.00663496)
(0.122943 -0.00472151 -0.0135969)
(0.112044 -0.00750576 -0.0202225)
(0.102888 -0.00944944 -0.024492)
(0.0999692 -0.0102879 -0.0249269)
(0.103366 -0.0101643 -0.0214808)
(0.114563 -0.00844911 -0.0145457)
(0.129731 -0.00518922 -0.00493102)
(0.137254 -0.00242005 0.00319873)
(0.134331 -0.00194079 0.00593689)
(0.131104 -0.00263894 0.00540522)
(0.134445 -0.00274796 0.00626753)
(0.138554 -0.00200961 0.00854039)
(0.13689 -0.0013834 0.00936885)
(0.133542 -0.00121214 0.0084067)
(0.13457 -0.000936134 0.00741144)
(0.13817 -0.000311646 0.00675742)
(0.138263 -2.38074e-05 0.00552879)
(0.130591 -0.000649613 0.0043489)
(0.115623 -0.0012109 0.00445505)
(0.100702 -0.00047345 0.0055271)
(0.0925581 0.00101 0.00685646)
(0.0914693 0.00128622 0.00850021)
(0.0951461 -0.000768848 0.00987022)
(0.101485 -0.00435679 0.00989317)
(0.108997 -0.0077657 0.00808258)
(0.11533 -0.00975598 0.00640948)
(0.116788 -0.0106889 0.00904886)
(0.111449 -0.0118879 0.0162338)
(0.105297 -0.0128401 0.021423)
(0.109466 -0.0112459 0.0182031)
(0.123154 -0.00700677 0.00827718)
(0.133468 -0.00230228 -0.00196027)
(0.131077 0.000331834 -0.00786428)
(0.121528 0.000807607 -0.00878307)
(0.114874 0.000473758 -0.0071157)
(0.112967 0.000439871 -0.00520602)
(0.109236 0.000396471 0.00157464)
(0.111313 -9.62931e-05 0.00511908)
(0.118607 -0.000886967 0.0070111)
(0.129825 -0.00152459 0.00334575)
(0.134287 -0.00261725 -0.00546593)
(0.126356 -0.00504129 -0.0149601)
(0.113554 -0.00792854 -0.0223377)
(0.105972 -0.00969682 -0.0260789)
(0.105586 -0.0105472 -0.0250409)
(0.110703 -0.0107119 -0.0199188)
(0.122148 -0.00911756 -0.011589)
(0.136001 -0.00562559 -0.00236544)
(0.141669 -0.00303275 0.00314724)
(0.137388 -0.00345355 0.00361628)
(0.134086 -0.00471966 0.00318835)
(0.138312 -0.00376146 0.00492151)
(0.142145 -0.00121013 0.00696508)
(0.139451 4.75384e-05 0.00730926)
(0.135526 -0.000687709 0.00660001)
(0.137178 -0.00175024 0.00605119)
(0.143861 -0.00181875 0.00536003)
(0.146565 -0.00108923 0.00415509)
(0.13719 -0.000219838 0.00369714)
(0.120205 0.000897058 0.00500536)
(0.106676 0.00186653 0.0074083)
(0.101748 0.00144277 0.00944719)
(0.103729 -0.00133972 0.00971534)
(0.109361 -0.00525691 0.00786296)
(0.117071 -0.00822483 0.00430447)
(0.124735 -0.00914857 0.000820024)
(0.128139 -0.00873319 0.00216976)
(0.124442 -0.00883574 0.0103911)
(0.115546 -0.0106819 0.0192752)
(0.111732 -0.0120895 0.0202334)
(0.119603 -0.00965251 0.0121473)
(0.129109 -0.00378232 0.00132583)
(0.128537 0.00112099 -0.00611192)
(0.119887 0.00257855 -0.00790699)
(0.112259 0.00157744 -0.00551663)
(0.109338 0.000657494 -0.00185459)
(0.111183 0.00113217 0.00092076)
(0.109521 0.000178436 0.00620777)
(0.112577 -0.00121054 0.0111562)
(0.123767 -0.00167059 0.0111628)
(0.136028 -0.00115227 0.00323042)
(0.136766 -0.00189594 -0.00802723)
(0.12623 -0.00488346 -0.0173917)
(0.114605 -0.00780811 -0.0237386)
(0.110178 -0.00942005 -0.0261085)
(0.112627 -0.0105475 -0.0239423)
(0.119011 -0.0112096 -0.0177823)
(0.130081 -0.00992175 -0.00898338)
(0.141914 -0.00651291 -0.00114149)
(0.145008 -0.00420172 0.00218309)
(0.139211 -0.00474821 0.00218861)
(0.135754 -0.0052023 0.00267102)
(0.139488 -0.00289371 0.00456659)
(0.1434 0.000322417 0.00605885)
(0.142204 0.00116394 0.00603667)
(0.13866 -0.00128359 0.00522245)
(0.140173 -0.00460131 0.00480702)
(0.148148 -0.00470889 0.00432766)
(0.150436 -0.00106828 0.00337964)
(0.139682 0.00252685 0.0039204)
(0.125086 0.00370457 0.00727896)
(0.116469 0.00213602 0.010912)
(0.114538 -0.00167742 0.0107633)
(0.116106 -0.00649063 0.00663748)
(0.121278 -0.00995745 0.00149553)
(0.130347 -0.0101278 -0.00316133)
(0.137031 -0.00773236 -0.00424672)
(0.135539 -0.00596191 0.00271276)
(0.126659 -0.00701388 0.0141451)
(0.117768 -0.0102475 0.0197668)
(0.117991 -0.010496 0.0149803)
(0.123821 -0.00520224 0.00502975)
(0.125575 0.00122964 -0.00343112)
(0.122086 0.00390783 -0.00749854)
(0.117493 0.00303459 -0.0070776)
(0.113953 0.00169899 -0.00363887)
(0.118784 0.00264502 -0.00406196)
(0.11444 0.00116213 0.000462224)
(0.11328 -0.00147224 0.00632454)
(0.119799 -0.00267757 0.0102389)
(0.13308 -0.00105863 0.00688757)
(0.141495 0.000537066 -0.00253177)
(0.137576 -0.00123994 -0.0118558)
(0.126096 -0.00468057 -0.0190135)
(0.117158 -0.00729097 -0.0238864)
(0.116528 -0.0091245 -0.0252704)
(0.121444 -0.0111156 -0.0224018)
(0.128716 -0.012372 -0.0153099)
(0.138228 -0.0107393 -0.0062523)
(0.145216 -0.00696613 5.93546e-05)
(0.143887 -0.00472602 0.00172908)
(0.138168 -0.00461782 0.00160996)
(0.136752 -0.00391564 0.00282868)
(0.14094 -0.00154396 0.0052655)
(0.145455 0.000848835 0.0067068)
(0.145655 0.000403239 0.00599812)
(0.142664 -0.00404348 0.00451474)
(0.143519 -0.00769807 0.00376443)
(0.149167 -0.00497643 0.00308616)
(0.149794 0.0012514 0.00295282)
(0.142328 0.00458493 0.00626452)
(0.133182 0.00361769 0.0114065)
(0.126898 0.00028142 0.0116732)
(0.123027 -0.00448837 0.00554681)
(0.122598 -0.00955011 -0.00121962)
(0.129795 -0.0117322 -0.00518199)
(0.140425 -0.00891536 -0.00707814)
(0.143379 -0.0047459 -0.00340794)
(0.136461 -0.00368582 0.00747755)
(0.125827 -0.00664096 0.017117)
(0.120047 -0.00889466 0.0167672)
(0.120867 -0.00562437 0.00870929)
(0.122861 0.000636515 -5.6645e-05)
(0.123954 0.00410967 -0.00605443)
(0.124268 0.00409834 -0.0083816)
(0.12264 0.00317716 -0.00725109)
(0.129275 0.00440995 -0.00877645)
(0.125408 0.00298975 -0.00644954)
(0.121822 -0.000688785 -0.00182385)
(0.122569 -0.0033545 0.00333595)
(0.131566 -0.00206679 0.00443086)
(0.143337 0.00112301 -0.000334166)
(0.14637 0.00157631 -0.00739155)
(0.138021 -0.00111029 -0.0142612)
(0.126695 -0.00416111 -0.0202283)
(0.122033 -0.0068013 -0.0239883)
(0.125413 -0.00973667 -0.0243379)
(0.131842 -0.0127818 -0.0202035)
(0.13832 -0.013255 -0.0117344)
(0.143873 -0.00968772 -0.00322146)
(0.144849 -0.00541743 0.000681193)
(0.141105 -0.00367007 0.000863638)
(0.137924 -0.00348041 0.00151389)
(0.138993 -0.0026451 0.00464068)
(0.143607 -0.00080773 0.00815094)
(0.148492 0.000290781 0.00867349)
(0.149522 -0.00199263 0.00572836)
(0.146169 -0.00632794 0.00269239)
(0.14438 -0.00700726 0.00213649)
(0.145578 -0.00252679 0.00368839)
(0.14395 0.00197758 0.00745684)
(0.138066 0.00338053 0.0115702)
(0.132603 0.00218191 0.0106184)
(0.129269 -0.00105894 0.00351827)
(0.127061 -0.00639838 -0.0037249)
(0.130048 -0.0111565 -0.00619757)
(0.140256 -0.01067 -0.00628563)
(0.147446 -0.00574319 -0.00491087)
(0.143771 -0.00244048 0.00222841)
(0.1337 -0.00337162 0.0127613)
(0.124993 -0.00552341 0.0168833)
(0.121803 -0.00396959 0.0119416)
(0.122444 0.000657488 0.00382374)
(0.125212 0.0034252 -0.0030112)
(0.129023 0.00366663 -0.00744214)
(0.13093 0.00392151 -0.00922408)
(0.135005 0.00407228 -0.0101659)
(0.135367 0.00371379 -0.00968917)
(0.132568 0.00073526 -0.00610732)
(0.128921 -0.00248566 -0.00132103)
(0.131234 -0.00268117 0.00148072)
(0.141355 0.000152325 0.000360296)
(0.149961 0.00250466 -0.00394604)
(0.147579 0.00179062 -0.0100714)
(0.137351 -0.000525711 -0.0165896)
(0.129892 -0.00349419 -0.0215504)
(0.1306 -0.00732643 -0.0237976)
(0.136462 -0.0117461 -0.0226328)
(0.142012 -0.014203 -0.0167434)
(0.145523 -0.0117628 -0.00789731)
(0.14618 -0.00637688 -0.00171242)
(0.143605 -0.00269431 -0.000144598)
(0.140518 -0.00197316 0.00063372)
(0.139816 -0.00226786 0.0041196)
(0.142533 -0.00197979 0.00900618)
(0.147984 -0.00116884 0.0107245)
(0.152201 -0.00149518 0.00729807)
(0.1501 -0.00373529 0.00282065)
(0.143013 -0.00567373 0.0020972)
(0.136968 -0.00469852 0.00461303)
(0.133625 -0.00143567 0.00743859)
(0.132288 0.0016454 0.00863383)
(0.133333 0.00304316 0.00626351)
(0.134612 0.00182453 4.50019e-05)
(0.133644 -0.00280024 -0.00592396)
(0.133895 -0.0089458 -0.00723044)
(0.140882 -0.0113387 -0.0051893)
(0.149349 -0.00770589 -0.00316075)
(0.148522 -0.00310473 0.00105186)
(0.139297 -0.00179186 0.00915779)
(0.129948 -0.00234897 0.0146206)
(0.125577 -0.00110652 0.0125893)
(0.125615 0.00200828 0.00644535)
(0.127406 0.00365952 0.000698904)
(0.129841 0.00310626 -0.0038829)
(0.132683 0.00303644 -0.00778339)
(0.130525 0.00247956 -0.00624943)
(0.134935 0.00256935 -0.0058359)
(0.135911 0.00135641 -0.00293868)
(0.132268 -0.000565271 0.000127357)
(0.129883 -0.00131029 0.00192095)
(0.135281 -9.39012e-06 0.00181165)
(0.145724 0.00219763 -0.000985347)
(0.150299 0.0033285 -0.00658567)
(0.145014 0.00282091 -0.0132821)
(0.138216 0.000695793 -0.0186212)
(0.137535 -0.00350783 -0.02164)
(0.142265 -0.00917782 -0.02245)
(0.147106 -0.0133005 -0.0198039)
(0.149334 -0.0125451 -0.0129492)
(0.148966 -0.00748289 -0.00557777)
(0.146472 -0.00248275 -0.00147313)
(0.143693 -0.000313052 0.000486343)
(0.142599 -0.000551314 0.00330991)
(0.143766 -0.0014744 0.00757216)
(0.146872 -0.00198096 0.0103267)
(0.150136 -0.00222898 0.00870416)
(0.149697 -0.00266014 0.00434316)
(0.143637 -0.00309707 0.00159956)
(0.135515 -0.00296969 0.00199381)
(0.130695 -0.00216817 0.00346574)
(0.131587 -0.000879913 0.00401974)
(0.136132 0.000874874 0.00214739)
(0.138971 0.00197189 -0.00224511)
(0.137709 -0.000116954 -0.00591124)
(0.136434 -0.00601702 -0.00606937)
(0.140497 -0.0109293 -0.00381138)
(0.148194 -0.00945253 -0.00144777)
(0.150263 -0.00450482 0.00187685)
(0.143959 -0.00169035 0.0077027)
(0.135556 -0.000781767 0.0120542)
(0.13034 0.00108426 0.0110008)
(0.128395 0.00398115 0.00702642)
(0.127147 0.00534971 0.00358016)
(0.126053 0.00415873 0.000385459)
(0.126897 0.00263214 -0.00345039)
(0.125875 -0.000800838 -0.000785814)
(0.131111 -0.00106972 -0.00118159)
(0.134486 -0.000735723 0.000253003)
(0.133152 -0.000293898 0.00223538)
(0.129851 0.000412771 0.00378227)
(0.130632 0.00131745 0.00397602)
(0.137897 0.0026441 0.00162071)
(0.146462 0.00435651 -0.00327417)
(0.149228 0.00541293 -0.00902798)
(0.147316 0.00459284 -0.0137747)
(0.147399 0.000890751 -0.0172557)
(0.15127 -0.00541762 -0.0198655)
(0.15473 -0.0110758 -0.020291)
(0.155197 -0.0117599 -0.0164337)
(0.153237 -0.0074005 -0.00954794)
(0.149713 -0.00228196 -0.00357969)
(0.146471 0.000449765 7.55419e-05)
(0.14526 0.000755669 0.00272873)
(0.145745 6.63999e-06 0.00576239)
(0.146453 -0.00118612 0.00847181)
(0.146513 -0.00241928 0.00847586)
(0.14507 -0.00261306 0.00527619)
(0.141399 -0.00149561 0.00148532)
(0.13712 -0.000523712 -0.000101456)
(0.135361 -0.00132679 0.000691669)
(0.137272 -0.00273867 0.00207838)
(0.140532 -0.00205361 0.00147903)
(0.140994 0.00060703 -0.00140853)
(0.138204 0.00137468 -0.00325233)
(0.136338 -0.00263134 -0.00196676)
(0.138727 -0.00863377 0.00018036)
(0.14502 -0.0102269 0.00163561)
(0.14978 -0.00673243 0.00371517)
(0.148257 -0.00267894 0.00749999)
(0.142017 0.000390721 0.0102066)
(0.135216 0.00373061 0.00913101)
(0.129659 0.00683457 0.00618697)
(0.125135 0.00748389 0.00424581)
(0.122358 0.00486375 0.00310666)
(0.122511 0.00121156 0.00127481)
(0.125862 -0.000366791 0.00561626)
(0.129889 -0.00174438 0.00430565)
(0.132448 -0.00157841 0.00394731)
(0.131901 0.000124318 0.00422037)
(0.129597 0.00283797 0.00499154)
(0.129105 0.00486604 0.00583334)
(0.13272 0.00525225 0.00499302)
(0.139181 0.00507292 0.0014318)
(0.145367 0.00586045 -0.00357078)
(0.150342 0.00703918 -0.00784707)
(0.155535 0.00564113 -0.0111692)
(0.160842 3.118e-05 -0.0145506)
(0.163477 -0.00676666 -0.0174596)
(0.162148 -0.0093534 -0.0171241)
(0.158351 -0.00618093 -0.0125025)
(0.1537 -0.0013753 -0.00644086)
(0.149633 0.0011195 -0.00156476)
(0.147005 0.00149186 0.00181151)
(0.145652 0.0011611 0.00438765)
(0.14474 0.00046476 0.00646332)
(0.143151 -0.000506777 0.00707846)
(0.140532 -0.000686287 0.00511206)
(0.138369 0.000431531 0.00169744)
(0.139032 0.00100286 -0.000382311)
(0.142884 -0.00108762 0.000122937)
(0.146406 -0.00455365 0.00163703)
(0.145805 -0.00515702 0.00164749)
(0.141463 -0.00167631 0.000611654)
(0.137315 0.0015818 0.0017217)
(0.136656 0.000127307 0.00458122)
(0.139553 -0.0053252 0.00570483)
(0.144827 -0.00947962 0.00491594)
(0.149886 -0.00844174 0.00500653)
(0.15077 -0.00405457 0.00721987)
(0.146344 0.000483175 0.00871084)
(0.138708 0.00466489 0.00698337)
(0.13038 0.00810497 0.00443684)
(0.124025 0.00910385 0.004514)
(0.121496 0.00677189 0.0064046)
(0.122561 0.00274827 0.00695942)
(0.125684 0.00223447 0.00860255)
(0.12983 0.000880379 0.00684383)
(0.133737 0.000793657 0.00536061)
(0.135236 0.0019528 0.00474412)
(0.133999 0.00437167 0.00525924)
(0.132618 0.00715607 0.00657624)
(0.133558 0.00855824 0.00681995)
(0.136633 0.00764935 0.00433625)
(0.140724 0.005451 0.000305666)
(0.146152 0.00391431 -0.002881)
(0.153849 0.00331728 -0.00527157)
(0.162114 0.00170813 -0.0086443)
(0.166396 -0.00155679 -0.0128483)
(0.165045 -0.00403772 -0.0152296)
(0.161568 -0.0034626 -0.0138664)
(0.15876 -0.00110763 -0.0097844)
(0.156329 0.000765226 -0.00512961)
(0.153187 0.00182644 -0.00136464)
(0.149275 0.00213482 0.000943817)
(0.145348 0.00148362 0.00234982)
(0.141892 0.00052486 0.00368826)
(0.13952 0.00053244 0.00463812)
(0.13952 0.00154938 0.00421895)
(0.143479 0.00171674 0.00235007)
(0.150718 -0.000757245 0.000681389)
(0.155916 -0.00485833 0.00108931)
(0.153859 -0.00635988 0.00311278)
(0.146483 -0.0032833 0.00543756)
(0.140551 0.000945744 0.00790512)
(0.139536 0.00204468 0.00901633)
(0.141757 -0.000977455 0.00729913)
(0.145386 -0.00560687 0.00456706)
(0.149332 -0.00691222 0.0030516)
(0.150366 -0.00341627 0.00351843)
(0.145953 0.00200666 0.00479161)
(0.137403 0.00649378 0.00458106)
(0.128397 0.00917788 0.00381409)
(0.122575 0.00963757 0.00503004)
(0.121035 0.00788014 0.00770824)
(0.122531 0.00488354 0.00925715)
(0.129025 0.0065889 0.00356103)
(0.132135 0.00470178 0.0038636)
(0.135107 0.00361288 0.00418073)
(0.13632 0.00344473 0.00415637)
(0.135394 0.00465071 0.00413436)
(0.13392 0.0070841 0.00469142)
(0.134003 0.00922922 0.00559727)
(0.136394 0.00919812 0.00552647)
(0.140038 0.00648165 0.0035)
(0.143995 0.00259976 0.000196754)
(0.148759 -0.000233008 -0.00321786)
(0.155314 -0.0015374 -0.00640078)
(0.162407 -0.00234425 -0.00935062)
(0.166199 -0.0025994 -0.0116125)
(0.165258 -0.00154983 -0.0123396)
(0.162255 8.88509e-05 -0.0110163)
(0.159626 0.00130379 -0.0080107)
(0.157666 0.00226252 -0.00457895)
(0.155494 0.00327562 -0.00241983)
(0.152186 0.00357433 -0.00168912)
(0.147822 0.00249298 -0.000801304)
(0.144285 0.000361306 0.0013662)
(0.143811 -0.00206156 0.00379834)
(0.146899 -0.00453705 0.00455392)
(0.151848 -0.00713771 0.00347177)
(0.155184 -0.00943988 0.00293215)
(0.153977 -0.00957903 0.00482997)
(0.148949 -0.00549616 0.00763064)
(0.14387 0.00151622 0.00835686)
(0.140993 0.0066277 0.00566895)
(0.139982 0.00573653 0.00127049)
(0.141036 -0.00021985 -0.00124452)
(0.144226 -0.00521146 -0.000704007)
(0.146604 -0.00422871 0.000923075)
(0.144227 0.00160141 0.00230804)
(0.137279 0.00757427 0.00307702)
(0.129961 0.0114017 0.00354415)
(0.125873 0.0128118 0.00404767)
(0.125302 0.0118843 0.00413288)
(0.12667 0.00930865 0.00373585)
(0.140463 0.00846875 -0.00755555)
(0.141072 0.0060261 -0.00673879)
(0.141715 0.00513043 -0.00363116)
(0.140683 0.0051294 0.000120407)
(0.137411 0.00538589 0.00337285)
(0.13385 0.00553096 0.0059931)
(0.132558 0.00503638 0.00837891)
(0.134711 0.00345232 0.0102558)
(0.139695 0.00111645 0.0105767)
(0.145942 -0.00129224 0.00852272)
(0.151823 -0.00311678 0.00411651)
(0.156268 -0.00376928 -0.00178159)
(0.158521 -0.00315823 -0.00735691)
(0.158096 -0.00136015 -0.0104991)
(0.155407 0.0010315 -0.0107382)
(0.151657 0.0029545 -0.0095125)
(0.14824 0.00370344 -0.00801381)
(0.1466 0.00330584 -0.0063821)
(0.147373 0.00210844 -0.00486903)
(0.149614 0.00107051 -0.00410333)
(0.15166 0.00129611 -0.00396042)
(0.152861 0.00196551 -0.00326511)
(0.15359 0.000560678 -0.00126685)
(0.154158 -0.00374852 0.00154601)
(0.154646 -0.00830066 0.00431835)
(0.154965 -0.00976999 0.00679248)
(0.153992 -0.00749492 0.00886869)
(0.150623 -0.00284816 0.00955135)
(0.146031 0.00244998 0.00751022)
(0.1425 0.0057994 0.00282326)
(0.141147 0.00489181 -0.00211264)
(0.141947 6.98207e-05 -0.00385229)
(0.144079 -0.00539538 -0.00135841)
(0.145736 -0.00676909 0.00262318)
(0.144582 -0.00240444 0.00521928)
(0.140682 0.00463776 0.00597212)
(0.137199 0.0108827 0.00521311)
(0.136706 0.0144907 0.00276758)
(0.138382 0.0147054 -0.00126387)
(0.139871 0.0120092 -0.00538257)
(0.153833 0.00594807 -0.00954816)
(0.15345 0.00388923 -0.0106473)
(0.15161 0.00411743 -0.00961261)
(0.148962 0.00569591 -0.00739443)
(0.146766 0.00681274 -0.00456768)
(0.146172 0.00630882 -0.00139379)
(0.147319 0.00411177 0.00217973)
(0.14921 0.000952526 0.00615057)
(0.150541 -0.00211627 0.0102691)