/*--------------------------------*- C++ -*----------------------------------*\
| =========                 |                                                 |
| \\      /  F ield         | OpenFOAM: The Open Source CFD Toolbox           |
|  \\    /   O peration     | Version:  2306                                  |
|   \\  /    A nd           | Website:  www.openfoam.com                      |
|    \\/     M anipulation  |                                                 |
\*---------------------------------------------------------------------------*/
FoamFile
{
    version     2.0;
    format      ascii;
    arch        "LSB;label=32;scalar=64";
    class       volVectorField;
    location    "9";
    object      U_0;
}
// * * * * * * * * * * * * * * * * * * * * * * * * * * * * * * * * * * * * * //

dimensions      [0 1 -1 0 0 0 0];

internalField   nonuniform List<vector> 
60000
(
(0.00647125 2.12014e-05 -0.000453971)
(0.00675722 2.73311e-05 -0.000199362)
(0.00715965 3.03732e-05 -4.02559e-05)
(0.00769014 2.35954e-05 0.000219886)
(0.00828893 2.11739e-05 0.000709046)
(0.00879733 2.30404e-05 0.00135169)
(0.00898041 2.88159e-05 0.00200901)
(0.00876233 3.22959e-05 0.00249162)
(0.00833209 3.00168e-05 0.00265733)
(0.0079413 2.5285e-05 0.00249949)
(0.00767761 2.06603e-05 0.00213411)
(0.00748582 1.53089e-05 0.00173018)
(0.00728724 7.90316e-06 0.00143225)
(0.00702651 -1.94288e-07 0.00128502)
(0.00665939 -6.3577e-06 0.00123943)
(0.0061775 -6.16621e-06 0.00124463)
(0.00568408 -3.16796e-06 0.00124655)
(0.00535404 -1.02395e-06 0.00118972)
(0.00526706 -3.27637e-07 0.00102612)
(0.00533843 -1.71683e-06 0.000728767)
(0.00546349 -8.36831e-06 0.000394799)
(0.0056437 -1.38014e-05 0.000141473)
(0.00592721 -1.29432e-05 -5.09373e-05)
(0.00626864 -6.79613e-06 -0.000221081)
(0.00660419 9.20851e-06 -0.000284512)
(0.00691853 2.27844e-05 -0.000234713)
(0.00720544 2.65071e-05 -0.000220394)
(0.007451 1.76985e-05 -0.000441743)
(0.00770523 -7.33399e-06 -0.0010072)
(0.00802555 -3.15539e-05 -0.00173156)
(0.00829036 -3.83336e-05 -0.00226633)
(0.00830771 -2.81822e-05 -0.00241408)
(0.00802275 -1.3624e-05 -0.00236475)
(0.00752773 2.70108e-06 -0.00237729)
(0.00692259 1.45147e-05 -0.0023602)
(0.0063184 1.43687e-05 -0.00222241)
(0.00588286 7.42154e-06 -0.00202765)
(0.00576169 3.58091e-06 -0.00176605)
(0.00593152 2.69377e-06 -0.00136626)
(0.00620754 1.24026e-05 -0.000874159)
(0.0191752 0.000115025 -0.00122293)
(0.0202224 0.000121212 -0.000574343)
(0.0216352 0.000103142 -7.9444e-05)
(0.0233391 6.92256e-05 0.00073931)
(0.0251433 7.81582e-05 0.00210973)
(0.0266539 0.000133911 0.00381555)
(0.0272778 0.000216805 0.00547781)
(0.0267481 0.000268172 0.00664012)
(0.0255032 0.000253674 0.00697632)
(0.0242817 0.000198561 0.00648783)
(0.0234495 0.000140742 0.00550606)
(0.0229046 9.42344e-05 0.00447347)
(0.0223811 5.41831e-05 0.00371356)
(0.0216428 1.65708e-05 0.00330275)
(0.0205458 -1.33028e-05 0.00316178)
(0.0191438 -3.41429e-05 0.0031848)
(0.0177555 -6.49452e-05 0.00319685)
(0.0167714 -0.000103106 0.00301296)
(0.0163561 -0.000126399 0.00253147)
(0.0163586 -0.000130656 0.00179353)
(0.0165844 -0.000138147 0.00103829)
(0.0170152 -0.000135496 0.000449635)
(0.0176996 -9.42617e-05 -2.79071e-05)
(0.0185404 -2.7646e-05 -0.00041228)
(0.0194536 5.19897e-05 -0.000536634)
(0.0204455 8.57054e-05 -0.000450457)
(0.021524 4.58181e-05 -0.00052001)
(0.0226653 -7.73713e-05 -0.00118694)
(0.023899 -0.00025307 -0.00263815)
(0.025113 -0.00035434 -0.00441202)
(0.0258146 -0.000297643 -0.00572676)
(0.0255995 -0.000136758 -0.00619939)
(0.0245507 1.97843e-05 -0.0062126)
(0.0230761 0.000121159 -0.00618184)
(0.0214775 0.000139631 -0.00600104)
(0.0199157 7.68247e-05 -0.00566724)
(0.0185982 -5.09135e-06 -0.00526704)
(0.0178614 -3.67412e-05 -0.00461372)
(0.0178774 -9.0546e-06 -0.00354223)
(0.0183971 6.18538e-05 -0.00226984)
(0.0317098 0.000249026 -0.00236546)
(0.0335215 0.000234904 -0.0014128)
(0.0359925 0.000155187 -0.000675295)
(0.0389362 6.80622e-05 0.000563644)
(0.0420609 9.67123e-05 0.00265057)
(0.0448366 0.000232138 0.00526933)
(0.0463566 0.000429678 0.00782417)
(0.045975 0.000564716 0.00967255)
(0.0440815 0.000557193 0.0103531)
(0.0418697 0.000445032 0.0097998)
(0.040246 0.000309769 0.00845275)
(0.0392576 0.000196927 0.00696706)
(0.0384649 0.000104698 0.00579547)
(0.0373928 2.20978e-05 0.00504094)
(0.0357551 -4.41388e-05 0.00467275)
(0.0336094 -0.000102816 0.0046435)
(0.031358 -0.000192359 0.00471125)
(0.0294989 -0.000298278 0.00451545)
(0.0283584 -0.00036256 0.0038582)
(0.0279109 -0.000371023 0.00284345)
(0.0279749 -0.00036843 0.00182005)
(0.02848 -0.000335354 0.00100607)
(0.0294152 -0.000208072 0.00031828)
(0.0306393 -2.68155e-05 -0.000226393)
(0.0320903 0.000132565 -0.000388312)
(0.0338226 0.000143172 -0.00022025)
(0.0358556 -4.17978e-05 -0.000213555)
(0.0381102 -0.000411095 -0.00100019)
(0.0405598 -0.000853479 -0.00292815)
(0.0429265 -0.00106404 -0.0055175)
(0.0443129 -0.000860372 -0.00770935)
(0.0440535 -0.000409489 -0.00881715)
(0.0423882 1.2541e-05 -0.0091374)
(0.0401035 0.000256926 -0.00910942)
(0.0377317 0.000274521 -0.00875311)
(0.035377 0.000114489 -0.00829544)
(0.0330446 -6.19505e-05 -0.00789225)
(0.0311257 -0.000106825 -0.00715468)
(0.0302728 -1.49754e-05 -0.00572266)
(0.030574 0.000142937 -0.00389961)
(0.0436433 0.000360505 -0.00426111)
(0.0459432 0.000304015 -0.00318838)
(0.049304 9.94123e-05 -0.00244961)
(0.0534274 -0.00010688 -0.00109822)
(0.0579537 -8.46102e-05 0.00143193)
(0.0623469 0.000161139 0.0048508)
(0.0654627 0.000518307 0.00836363)
(0.0660787 0.000794051 0.0111271)
(0.0640753 0.000858769 0.0125434)
(0.0608444 0.000727922 0.0123849)
(0.0581076 0.000512504 0.0110523)
(0.0564587 0.00031118 0.00936412)
(0.0554135 0.000147602 0.00790195)
(0.0542171 1.33891e-05 0.00675947)
(0.0523678 -8.86925e-05 0.00596686)
(0.0498215 -0.00018449 0.00569308)
(0.0468812 -0.000337397 0.00580317)
(0.0439535 -0.00052736 0.00575941)
(0.0415305 -0.000660552 0.00512825)
(0.0399804 -0.00070126 0.00398935)
(0.0393752 -0.000706352 0.00282282)
(0.0396229 -0.000640479 0.00191014)
(0.0405895 -0.000391488 0.00111654)
(0.0420506 -3.65497e-05 0.000469709)
(0.0439541 0.000216059 0.000321675)
(0.0464052 0.000154221 0.000711786)
(0.049403 -0.000283449 0.00112179)
(0.0527045 -0.00105352 0.000764646)
(0.0562468 -0.0019266 -0.00101651)
(0.0599225 -0.00230729 -0.00411901)
(0.0625783 -0.00187639 -0.00742947)
(0.0629877 -0.000983402 -0.00972426)
(0.0612754 -0.000143545 -0.0108742)
(0.0585788 0.000351046 -0.0111784)
(0.0557526 0.000402221 -0.0107529)
(0.0528969 0.00012485 -0.0101597)
(0.049663 -0.000163529 -0.00984277)
(0.046152 -0.000222458 -0.0093447)
(0.0434927 -6.02563e-05 -0.00802118)
(0.0426787 0.000196286 -0.00604242)
(0.0549994 0.000385891 -0.00690367)
(0.0569239 0.000253542 -0.00612162)
(0.0605024 -0.000157113 -0.00582172)
(0.0653097 -0.000619789 -0.00487635)
(0.0710238 -0.000742395 -0.00243324)
(0.0772437 -0.000362853 0.00149807)
(0.082789 0.000277962 0.00612371)
(0.0856936 0.000791919 0.0102574)
(0.0847851 0.00103063 0.0130048)
(0.0810339 0.000974989 0.013868)
(0.0769689 0.000719892 0.0130508)
(0.0743009 0.00042135 0.0115056)
(0.0728864 0.000167282 0.0100418)
(0.0717267 -2.68915e-05 0.00869302)
(0.0700255 -0.000155603 0.0073833)
(0.0675432 -0.000262812 0.00656067)
(0.0643634 -0.000442049 0.00650411)
(0.0605466 -0.000684396 0.0066754)
(0.0564743 -0.000892594 0.00627223)
(0.0529878 -0.00102419 0.00515133)
(0.0508161 -0.00112072 0.0039341)
(0.0501433 -0.00107831 0.00306543)
(0.0507554 -0.000696509 0.00233557)
(0.0522233 -0.000100011 0.00170958)
(0.054389 0.000283391 0.00167795)
(0.0573619 0.000119558 0.0024545)
(0.0610766 -0.000687529 0.00357127)
(0.0649053 -0.00206678 0.0041987)
(0.0685974 -0.00362613 0.00344859)
(0.0730495 -0.00440684 0.000691617)
(0.0778148 -0.0037107 -0.00364145)
(0.0804694 -0.00210697 -0.00784923)
(0.0800619 -0.000625182 -0.0107974)
(0.0778223 0.000296016 -0.012225)
(0.0750511 0.000491867 -0.0121187)
(0.0720945 0.000123687 -0.011395)
(0.068407 -0.000280675 -0.0110894)
(0.0635184 -0.00035586 -0.0109353)
(0.0584902 -0.000142065 -0.0100798)
(0.0553573 0.000183613 -0.00845815)
(0.0671651 0.000339877 -0.00945075)
(0.0673515 7.09548e-05 -0.00948762)
(0.0696908 -0.000669636 -0.0102322)
(0.0736753 -0.00158939 -0.0103815)
(0.0791682 -0.00214468 -0.00894215)
(0.0862512 -0.00190655 -0.00561514)
(0.0946151 -0.000927984 -0.000419343)
(0.101677 0.000215795 0.00558593)
(0.104076 0.000899599 0.0106377)
(0.101382 0.00108375 0.013478)
(0.0963777 0.000886003 0.0138914)
(0.0923764 0.000510161 0.0128956)
(0.0903376 0.000147264 0.0118038)
(0.0892346 -0.000128067 0.0107465)
(0.0879124 -0.000277005 0.00921919)
(0.0859099 -0.000357642 0.00765207)
(0.0831424 -0.000495379 0.00700487)
(0.0792113 -0.000701936 0.00719401)
(0.0738884 -0.000913532 0.00711994)
(0.0680306 -0.00115012 0.00614915)
(0.0631515 -0.00147027 0.00490639)
(0.0603207 -0.00161346 0.00414953)
(0.0597504 -0.00116037 0.00366882)
(0.0607815 -0.000266049 0.00325646)
(0.0628566 0.000345278 0.00347967)
(0.0659699 8.91856e-05 0.00473)
(0.0700435 -0.00121677 0.00655786)
(0.073988 -0.00338167 0.00814031)
(0.0765681 -0.00588175 0.00884717)
(0.0793189 -0.00748707 0.00789429)
(0.0851675 -0.00694113 0.00428206)
(0.0921519 -0.00453133 -0.0015575)
(0.095925 -0.00185836 -0.007488)
(0.0960831 -0.000112087 -0.0114652)
(0.094408 0.000463147 -0.0126536)
(0.0918852 0.000106674 -0.0121269)
(0.0883254 -0.000372032 -0.0117625)
(0.0828911 -0.000451238 -0.0118423)
(0.0759966 -0.000184297 -0.0114432)
(0.0700531 0.00015905 -0.0103693)
(0.0820565 0.000340306 -0.0107134)
(0.0802585 -0.000124069 -0.011446)
(0.0804204 -0.00135131 -0.0134477)
(0.0815167 -0.00294131 -0.0152747)
(0.0840443 -0.00414903 -0.0155948)
(0.0886019 -0.00440532 -0.0141797)
(0.0963514 -0.00357561 -0.0106246)
(0.107437 -0.00196503 -0.00428631)
(0.116815 -0.000255509 0.00358174)
(0.118854 0.000757477 0.00987142)
(0.114796 0.000904697 0.0127561)
(0.109714 0.000547154 0.0128982)
(0.106855 6.13849e-05 0.0123947)
(0.105795 -0.000339553 0.012153)
(0.104908 -0.000517551 0.011234)
(0.103503 -0.000528607 0.00929992)
(0.101646 -0.000559714 0.00771713)
(0.0987268 -0.000629577 0.00743655)
(0.0935675 -0.00070699 0.0075473)
(0.0861807 -0.00092244 0.00682007)
(0.0782028 -0.00148919 0.00556031)
(0.0717137 -0.00203105 0.00484208)
(0.068374 -0.0017024 0.00465268)
(0.0680486 -0.00051909 0.00456659)
(0.0695561 0.000421237 0.00508733)
(0.0724564 0.000110838 0.00674413)
(0.076726 -0.00172496 0.00901911)
(0.0814142 -0.00459432 0.0108458)
(0.0841574 -0.00785424 0.0119396)
(0.0839575 -0.010456 0.012894)
(0.0856559 -0.0108147 0.0125722)
(0.0936209 -0.00844787 0.00846644)
(0.103559 -0.00468783 0.000669633)
(0.109749 -0.00145389 -0.00718326)
(0.111511 7.38122e-05 -0.0113908)
(0.11038 4.51948e-05 -0.0121276)
(0.107396 -0.000390612 -0.0119745)
(0.102353 -0.000446329 -0.0121952)
(0.0949864 -0.000162411 -0.0120648)
(0.087246 0.000209874 -0.0112637)
(0.0987444 0.0005219 -0.0104047)
(0.0964769 -0.000112639 -0.0109122)
(0.0959791 -0.00168695 -0.0133972)
(0.0941695 -0.00396777 -0.0168901)
(0.0915865 -0.00602451 -0.0194719)
(0.0909156 -0.00701695 -0.0202202)
(0.0938531 -0.00678847 -0.018945)
(0.102435 -0.00547857 -0.0148832)
(0.116298 -0.00323912 -0.00724064)
(0.127192 -0.000960061 0.00208831)
(0.128411 0.000221123 0.00875105)
(0.123993 0.000321864 0.0110502)
(0.120601 -9.6218e-05 0.0111812)
(0.119943 -0.000644258 0.0116944)
(0.119811 -0.000960063 0.0121784)
(0.11878 -0.000901448 0.0110597)
(0.117631 -0.000716991 0.00893331)
(0.116498 -0.000580988 0.0077457)
(0.113445 -0.000449747 0.00761652)
(0.10685 -0.0004487 0.00706657)
(0.0972963 -0.00105583 0.00583021)
(0.0868495 -0.00201557 0.00508358)
(0.0788502 -0.00207038 0.0051051)
(0.075503 -0.000771756 0.00529293)
(0.0757484 0.000551386 0.00599899)
(0.0782163 0.000358317 0.00792248)
(0.0824988 -0.00173565 0.010508)
(0.0881826 -0.00502972 0.0121898)
(0.0933624 -0.00850321 0.0123831)
(0.0941487 -0.0115169 0.0131415)
(0.090792 -0.0131543 0.0158495)
(0.0920315 -0.0120795 0.0166785)
(0.101941 -0.00854365 0.0114075)
(0.114393 -0.00418398 0.00158634)
(0.122709 -0.00114145 -0.00675621)
(0.124929 -0.000346024 -0.0105126)
(0.122932 -0.000529797 -0.0115008)
(0.118768 -0.000367236 -0.0119682)
(0.112384 0.000104464 -0.0119867)
(0.104688 0.000502512 -0.0111907)
(0.112264 0.00077933 -0.00832039)
(0.111624 0.000245685 -0.00789294)
(0.113133 -0.00124434 -0.00977122)
(0.111725 -0.0037051 -0.0141623)
(0.105282 -0.00647691 -0.0190941)
(0.0983245 -0.00844017 -0.0225157)
(0.0954585 -0.00915792 -0.023367)
(0.0982449 -0.00879549 -0.0212206)
(0.108684 -0.00716189 -0.015726)
(0.124144 -0.0042964 -0.00675207)
(0.133501 -0.0017148 0.00261702)
(0.132316 -0.000730555 0.00774601)
(0.128492 -0.000823924 0.00854815)
(0.128635 -0.00119006 0.00888947)
(0.130804 -0.00147581 0.0104707)
(0.13065 -0.00149316 0.011251)
(0.12899 -0.00123391 0.00997064)
(0.128952 -0.00079852 0.0082539)
(0.129437 -0.000290611 0.00754648)
(0.126722 -1.58311e-05 0.00693477)
(0.119075 -0.000417423 0.00568903)
(0.106936 -0.00148353 0.00487415)
(0.0938235 -0.00195041 0.00509606)
(0.0853283 -0.000826487 0.00562111)
(0.0827984 0.000754996 0.00649748)
(0.084345 0.000818999 0.00840389)
(0.0885683 -0.00129491 0.0107438)
(0.0946351 -0.00484581 0.0119358)
(0.101441 -0.00832201 0.0112295)
(0.105627 -0.010876 0.0108684)
(0.103317 -0.0127537 0.0141654)
(0.0979161 -0.0135154 0.0192207)
(0.100212 -0.0117317 0.0190823)
(0.112405 -0.00772154 0.0113208)
(0.126608 -0.00341499 0.000786655)
(0.133329 -0.00104845 -0.0067279)
(0.130514 -0.000457594 -0.00991847)
(0.124647 -0.000286862 -0.0105734)
(0.12016 0.000149123 -0.010315)
(0.115952 0.000632138 -0.00947025)
(0.113399 0.00054955 -0.00320957)
(0.116665 0.000223789 -0.00170945)
(0.123039 -0.00073614 -0.00250679)
(0.12691 -0.00242275 -0.00738858)
(0.12194 -0.0050416 -0.0144898)
(0.110862 -0.00777697 -0.0209481)
(0.102405 -0.00952611 -0.0248199)
(0.100216 -0.0102603 -0.0247482)
(0.104362 -0.0100768 -0.0208649)
(0.116343 -0.00822437 -0.013562)
(0.131289 -0.00488506 -0.00384806)
(0.137489 -0.00228957 0.00383838)
(0.13384 -0.00200259 0.00601464)
(0.131079 -0.00269488 0.00536473)
(0.134963 -0.00268233 0.00643349)
(0.138733 -0.00189112 0.00872204)
(0.136579 -0.00131307 0.00932872)
(0.133416 -0.00118533 0.00821963)
(0.134919 -0.000898336 0.00723552)
(0.13853 -0.000279206 0.00658168)
(0.137972 -5.3858e-05 0.00536876)
(0.129367 -0.000717076 0.00433005)
(0.113992 -0.00118778 0.00459295)
(0.0995733 -0.000338173 0.00571543)
(0.0922183 0.00109903 0.00705232)
(0.0917231 0.00117639 0.00865869)
(0.0957628 -0.00107648 0.00987911)
(0.102275 -0.00472222 0.00971685)
(0.109759 -0.00804216 0.0078581)
(0.115684 -0.00991475 0.0065368)
(0.116353 -0.010841 0.00977062)
(0.110447 -0.0120879 0.0170872)
(0.105 -0.0128299 0.0215169)
(0.110584 -0.0109068 0.017301)
(0.124688 -0.00650079 0.00699991)
(0.133909 -0.00194203 -0.00292506)
(0.130189 0.000463196 -0.0082287)
(0.120412 0.000766763 -0.00867227)
(0.114275 0.000408622 -0.00683232)
(0.112806 0.000416426 -0.00492747)
(0.109309 0.000348149 0.00202713)
(0.111876 -0.000135542 0.00546847)
(0.119853 -0.000899192 0.00688464)
(0.13091 -0.00155646 0.00250434)
(0.13401 -0.00281326 -0.00664633)
(0.125019 -0.00539104 -0.016017)
(0.11246 -0.00815356 -0.0230597)
(0.105833 -0.00975217 -0.0262458)
(0.106159 -0.0105882 -0.0246284)
(0.111907 -0.0106964 -0.0190681)
(0.123941 -0.00888645 -0.0104807)
(0.137373 -0.00528235 -0.00144401)
(0.141708 -0.00293459 0.00348528)
(0.136788 -0.00358652 0.00354949)
(0.134123 -0.00472498 0.00322449)
(0.138865 -0.00349317 0.00514167)
(0.142209 -0.000930603 0.00708516)
(0.139018 8.86924e-05 0.00722628)
(0.135368 -0.000834887 0.00644297)
(0.137737 -0.00187856 0.00591258)
(0.144555 -0.00180846 0.00521666)
(0.14621 -0.000998492 0.00407491)
(0.135655 -0.000109248 0.00380676)
(0.118576 0.00102463 0.00528927)
(0.105833 0.00188854 0.0077237)
(0.101735 0.00125782 0.00961172)
(0.104235 -0.00171391 0.0095902)
(0.110157 -0.00561993 0.00749562)
(0.118002 -0.00840372 0.00387247)
(0.125366 -0.00916731 0.000761603)
(0.127994 -0.0087549 0.00290192)
(0.123465 -0.00901993 0.0115744)
(0.114533 -0.0109582 0.0199004)
(0.112003 -0.0120542 0.019699)
(0.120804 -0.00916416 0.0109157)
(0.129665 -0.00314807 0.000216272)
(0.127845 0.00146123 -0.00663355)
(0.118791 0.00255326 -0.00781883)
(0.111559 0.0014103 -0.005097)
(0.109102 0.000558794 -0.00138244)
(0.110909 0.00103387 0.00152223)
(0.109611 4.62607e-05 0.00683418)
(0.11351 -0.00126982 0.011467)
(0.125415 -0.00159026 0.0106081)
(0.136902 -0.00111848 0.00194713)
(0.136067 -0.00215905 -0.00929753)
(0.124871 -0.00523772 -0.018364)
(0.113886 -0.00800428 -0.0242915)
(0.110503 -0.00952376 -0.0260792)
(0.113516 -0.0106912 -0.023354)
(0.120325 -0.0112546 -0.0167799)
(0.13176 -0.00966584 -0.00788629)
(0.142988 -0.00615182 -0.00043731)
(0.144762 -0.00410375 0.00233001)
(0.138502 -0.00482635 0.00213937)
(0.135776 -0.00505752 0.00278342)
(0.14001 -0.00249466 0.00475555)
(0.143578 0.000604792 0.0061103)
(0.141888 0.00103527 0.00591688)
(0.138499 -0.00172885 0.00507668)
(0.140829 -0.00488278 0.00472702)
(0.148904 -0.00447889 0.00424954)
(0.149901 -0.00062505 0.00338182)
(0.138193 0.00279204 0.00421301)
(0.123894 0.00365998 0.00778257)
(0.116031 0.001828 0.0111819)
(0.114585 -0.00216532 0.0104723)
(0.116499 -0.00696085 0.00601645)
(0.122211 -0.0101311 0.000885019)
(0.131407 -0.00995108 -0.00348804)
(0.137299 -0.00751312 -0.00377935)
(0.134775 -0.00599027 0.00401137)
(0.125394 -0.0073648 0.0152698)
(0.117204 -0.0105268 0.0197401)
(0.118534 -0.0101899 0.0139729)
(0.124355 -0.00444578 0.00389742)
(0.125403 0.00175516 -0.00415682)
(0.121531 0.00396878 -0.00768522)
(0.116952 0.00284475 -0.00681965)
(0.113537 0.0015536 -0.00313795)
(0.118283 0.0025103 -0.00360508)
(0.114128 0.000920178 0.00109678)
(0.113627 -0.0016757 0.00696361)
(0.121158 -0.00259185 0.0102645)
(0.134603 -0.000797263 0.00598323)
(0.14175 0.000513563 -0.00372764)
(0.136563 -0.00158795 -0.0128642)
(0.124959 -0.00502639 -0.019774)
(0.116981 -0.0075126 -0.0242534)
(0.117305 -0.00934862 -0.0250868)
(0.122545 -0.0113698 -0.021668)
(0.130001 -0.012399 -0.0141875)
(0.139483 -0.0103873 -0.00522419)
(0.145623 -0.00655646 0.000523296)
(0.143343 -0.00458128 0.00173401)
(0.137642 -0.00457227 0.00161944)
(0.136949 -0.00369663 0.00303884)
(0.141531 -0.00121458 0.00548904)
(0.14577 0.000966795 0.0067044)
(0.145444 2.34289e-05 0.00577956)
(0.142463 -0.00467142 0.00431109)
(0.143992 -0.00778602 0.00367984)
(0.149634 -0.00438625 0.00304772)
(0.149332 0.00177414 0.00317707)
(0.141319 0.00467256 0.0068797)
(0.132333 0.00337168 0.0118243)
(0.126355 -0.000155491 0.0112565)
(0.122728 -0.00506931 0.00463554)
(0.123 -0.0100132 -0.00190978)
(0.131067 -0.0116501 -0.00552933)
(0.141336 -0.00845475 -0.00695014)
(0.143031 -0.00449332 -0.00239036)
(0.135263 -0.00388592 0.00887654)
(0.124756 -0.00704984 0.0176598)
(0.119877 -0.00884003 0.0161262)
(0.12116 -0.00498283 0.00764455)
(0.123046 0.00124489 -0.000927401)
(0.12401 0.00429038 -0.00653074)
(0.124142 0.00399062 -0.00844479)
(0.122266 0.00304562 -0.00699109)
(0.128922 0.00432391 -0.00863028)
(0.124979 0.00268651 -0.0060258)
(0.121657 -0.0010752 -0.00117572)
(0.123231 -0.00342565 0.00375822)
(0.133045 -0.00173923 0.00414232)
(0.144353 0.0013804 -0.00111119)
(0.145987 0.00139362 -0.00826484)
(0.136838 -0.00147828 -0.015094)
(0.126015 -0.00450491 -0.0208429)
(0.122475 -0.00712902 -0.0241632)
(0.126516 -0.0101145 -0.0239828)
(0.132948 -0.0130409 -0.0192759)
(0.139281 -0.0130542 -0.0105368)
(0.144393 -0.00913923 -0.00242156)
(0.144639 -0.00500963 0.000854998)
(0.140588 -0.00355198 0.000845165)
(0.137764 -0.00341943 0.0017372)
(0.139381 -0.0024704 0.005057)
(0.144258 -0.000616857 0.00836973)
(0.148901 0.000178333 0.0084286)
(0.149308 -0.00251829 0.00523662)
(0.145744 -0.00672814 0.00243621)
(0.144349 -0.0067621 0.00223173)
(0.145506 -0.00199624 0.0040646)
(0.143325 0.00230992 0.008028)
(0.137257 0.00341809 0.0118165)
(0.132108 0.00197724 0.0100509)
(0.128921 -0.00155966 0.00251033)
(0.126989 -0.00706606 -0.00437382)
(0.130917 -0.0114384 -0.00631577)
(0.141508 -0.0102847 -0.00619782)
(0.147626 -0.00525648 -0.00434557)
(0.1428 -0.00237469 0.00345576)
(0.13246 -0.00365859 0.0137146)
(0.124314 -0.00559029 0.0167265)
(0.121769 -0.00352692 0.0110648)
(0.122705 0.00116894 0.00291606)
(0.125623 0.00360681 -0.00367321)
(0.12935 0.00366279 -0.0078171)
(0.130901 0.0039216 -0.00931776)
(0.135127 0.0040805 -0.010286)
(0.135213 0.0035025 -0.00942439)
(0.132174 0.000348181 -0.00553921)
(0.128865 -0.00271827 -0.000808356)
(0.132144 -0.00250993 0.00158687)
(0.142686 0.000517841 3.16121e-06)
(0.150356 0.00258047 -0.00462705)
(0.146761 0.00155602 -0.0109247)
(0.136439 -0.000884363 -0.0173539)
(0.129917 -0.00392325 -0.0219407)
(0.131552 -0.00783355 -0.0237452)
(0.13761 -0.0121912 -0.0220604)
(0.142836 -0.0141981 -0.0156489)
(0.145918 -0.0112014 -0.0068541)
(0.146071 -0.00574209 -0.0012672)
(0.143194 -0.0023996 -6.39264e-05)
(0.140233 -0.00195658 0.000896235)
(0.139933 -0.00228283 0.00466758)
(0.143094 -0.00191406 0.00939688)
(0.148685 -0.00115544 0.0105155)
(0.152335 -0.00171595 0.0066691)
(0.149371 -0.00407065 0.00244584)
(0.142041 -0.00576519 0.00225588)
(0.136279 -0.00441532 0.00499262)
(0.133199 -0.00103315 0.00770455)
(0.132189 0.00195846 0.00853696)
(0.133495 0.00311417 0.00565589)
(0.134622 0.00150263 -0.000823152)
(0.133499 -0.00348964 -0.00643721)
(0.134327 -0.00952434 -0.00715084)
(0.142031 -0.0112393 -0.00489296)
(0.149898 -0.00716513 -0.00276461)
(0.147778 -0.00280502 0.00190603)
(0.138038 -0.00183484 0.0100897)
(0.129085 -0.00234395 0.0147879)
(0.12538 -0.000790748 0.0119918)
(0.125804 0.00236836 0.0056654)
(0.127692 0.00374469 7.1656e-05)
(0.130141 0.00303803 -0.00439862)
(0.132948 0.00305096 -0.00817616)
(0.130981 0.0024525 -0.00636692)
(0.135248 0.0025024 -0.00559065)
(0.135721 0.0011713 -0.00252177)
(0.131885 -0.000758316 0.000485498)
(0.130131 -0.00129902 0.00206714)
(0.1364 0.000210313 0.00163479)
(0.146742 0.00240343 -0.00154565)
(0.150199 0.0033034 -0.00742997)
(0.144327 0.00259942 -0.0140939)
(0.138094 0.000267354 -0.0191069)
(0.138295 -0.00414114 -0.0217681)
(0.143356 -0.0098047 -0.0222196)
(0.147891 -0.0134935 -0.0190561)
(0.149632 -0.0121017 -0.0119073)
(0.148835 -0.00675886 -0.00483249)
(0.146115 -0.00198622 -0.00113003)
(0.143414 -0.000191735 0.000794663)
(0.142579 -0.000646142 0.00378574)
(0.144037 -0.00158039 0.00800545)
(0.147326 -0.00203982 0.0103362)
(0.150344 -0.00229502 0.00823681)
(0.149203 -0.00274643 0.00383955)
(0.142602 -0.00314191 0.00145994)
(0.134602 -0.00291709 0.00213323)
(0.130399 -0.00203703 0.00358)
(0.131917 -0.000656594 0.00389763)
(0.1366 0.00112328 0.00168301)
(0.139022 0.00198182 -0.00283677)
(0.137487 -0.000622372 -0.00621078)
(0.136625 -0.0067629 -0.00596493)
(0.141412 -0.0111604 -0.00352626)
(0.148966 -0.00898803 -0.00110446)
(0.149936 -0.00403877 0.00248802)
(0.142917 -0.00152026 0.00842886)
(0.134648 -0.000637881 0.0122637)
(0.12992 0.00141082 0.0106177)
(0.128241 0.00429705 0.00652136)
(0.127 0.00537377 0.003169)
(0.125997 0.00396292 -3.12895e-05)
(0.127122 0.00249019 -0.0038417)
(0.12642 -0.000958392 -0.000909751)
(0.131668 -0.00106435 -0.00109449)
(0.134601 -0.000677519 0.000494941)
(0.132844 -0.00021277 0.00251323)
(0.129727 0.000488717 0.00394693)
(0.131224 0.00143199 0.0038437)
(0.13898 0.00282645 0.00112132)
(0.147173 0.00448469 -0.00401339)
(0.149248 0.00534881 -0.00972996)
(0.147358 0.00424557 -0.014269)
(0.14803 0.000221584 -0.0175522)
(0.152169 -0.00621051 -0.0199578)
(0.155313 -0.0114513 -0.0199569)
(0.155307 -0.0114283 -0.0155996)
(0.152967 -0.00669439 -0.00865109)
(0.149271 -0.00172705 -0.00297412)
(0.146159 0.000654299 0.000475302)
(0.145197 0.000725437 0.00311291)
(0.145808 -0.000128072 0.00613576)
(0.146492 -0.00136222 0.00862123)
(0.146413 -0.00252962 0.00823166)
(0.144702 -0.00255985 0.00479383)
(0.140828 -0.00136654 0.00113156)
(0.136691 -0.000527945 -0.00014143)
(0.13534 -0.00149051 0.000833569)
(0.137573 -0.00276256 0.00210396)
(0.140744 -0.00175544 0.00119263)
(0.140783 0.000883002 -0.00176884)
(0.137873 0.00117042 -0.00330259)
(0.136408 -0.00333266 -0.001787)
(0.139392 -0.00916743 0.000346206)
(0.145873 -0.0100616 0.00181869)
(0.149995 -0.00621782 0.00409546)
(0.147657 -0.00222872 0.00796808)
(0.141109 0.00080288 0.0103294)
(0.134435 0.00415484 0.00886241)
(0.12904 0.00708516 0.00587658)
(0.124672 0.00735381 0.00407893)
(0.122191 0.00445086 0.00296297)
(0.122729 0.000832827 0.00106465)
(0.12633 -0.000647244 0.00544535)
(0.130323 -0.00180517 0.00420342)
(0.132587 -0.00143834 0.00395871)
(0.131722 0.000435246 0.00433218)
(0.129453 0.00313284 0.00515875)
(0.129389 0.00498875 0.00586399)
(0.133456 0.00522748 0.00468063)
(0.14003 0.0050788 0.000825315)
(0.14607 0.00593308 -0.00421502)
(0.151021 0.00695523 -0.00834628)
(0.156351 0.00509429 -0.0115663)
(0.161566 -0.000845988 -0.0148978)
(0.163747 -0.0073806 -0.0175519)
(0.161945 -0.00921018 -0.0166936)
(0.15787 -0.00552931 -0.0117176)
(0.153138 -0.000839672 -0.00571304)
(0.149174 0.00131659 -0.00104101)
(0.146712 0.00149823 0.0021954)
(0.145478 0.00109379 0.00468574)
(0.144554 0.000342309 0.00663058)
(0.142837 -0.000604506 0.00698744)
(0.140184 -0.000639535 0.00475324)
(0.138267 0.00053984 0.00134063)
(0.139355 0.000885566 -0.000470536)
(0.143363 -0.00148176 0.000260278)
(0.146504 -0.00481241 0.00171742)
(0.145359 -0.00488795 0.00152657)
(0.140839 -0.00116991 0.000591027)
(0.137012 0.00170966 0.00199832)
(0.136843 -0.000362564 0.00478735)
(0.140131 -0.00601203 0.00563928)
(0.14557 -0.00969012 0.00484389)
(0.150282 -0.00803705 0.00518383)
(0.15044 -0.0034247 0.00751092)
(0.145464 0.00107882 0.00870606)
(0.137636 0.00516395 0.00670553)
(0.129418 0.00836448 0.00431529)
(0.123461 0.00897134 0.00470866)
(0.121414 0.006334 0.00660861)
(0.122835 0.00228326 0.00691597)
(0.126129 0.00198742 0.00836127)
(0.130337 0.000799866 0.00658189)
(0.134087 0.000877544 0.0052036)
(0.135249 0.00218857 0.00475061)
(0.133849 0.00470915 0.00542195)
(0.132668 0.00741332 0.00671963)
(0.133923 0.00855569 0.00666133)
(0.137172 0.00739293 0.00386081)
(0.141379 0.00513099 -0.000205316)
(0.147052 0.00370871 -0.00326848)
(0.154985 0.00311911 -0.00568071)
(0.163001 0.00133848 -0.0091596)
(0.166567 -0.00197339 -0.0132516)
(0.164715 -0.00412461 -0.0152264)
(0.161208 -0.00316964 -0.013431)
(0.158474 -0.000749699 -0.00917195)
(0.155968 0.0010056 -0.00457818)
(0.152679 0.00194132 -0.000987883)
(0.148707 0.00211004 0.00116585)
(0.144819 0.00135158 0.00253044)
(0.141467 0.000434385 0.00385641)
(0.139335 0.000572106 0.0046857)
(0.139794 0.00158631 0.00407021)
(0.144294 0.0015238 0.00210225)
(0.151611 -0.00122241 0.000580178)
(0.156061 -0.00520753 0.00124999)
(0.153086 -0.00616499 0.00341003)
(0.145527 -0.00270467 0.00578068)
(0.140125 0.00133257 0.00815525)
(0.139659 0.00192842 0.00883839)
(0.142148 -0.00151953 0.00685185)
(0.14592 -0.00604988 0.0042583)
(0.149698 -0.00674306 0.00301926)
(0.150082 -0.00275539 0.00367942)
(0.144996 0.00271095 0.00489928)
(0.136191 0.00697095 0.00453401)
(0.127427 0.00935121 0.00389641)
(0.122133 0.00951383 0.00533795)
(0.121052 0.00755495 0.00796925)
(0.122819 0.00452535 0.00923911)
(0.129466 0.00628391 0.00347077)
(0.132577 0.00450125 0.00383731)
(0.135399 0.00353013 0.00415619)
(0.136342 0.00351802 0.00413545)
(0.135243 0.00489241 0.00418705)
(0.133862 0.00737101 0.00483173)
(0.134233 0.00931928 0.0056994)
(0.136866 0.00893239 0.00540531)
(0.140593 0.00593535 0.00312167)
(0.144608 0.00205966 -0.000297104)
(0.149564 -0.000560469 -0.00370505)
(0.156319 -0.00171885 -0.00682628)
(0.163201 -0.00244519 -0.00967884)
(0.166348 -0.00253933 -0.0117759)
(0.164909 -0.00132 -0.0122497)
(0.161831 0.000342038 -0.0106681)
(0.159297 0.00149493 -0.00753679)
(0.157363 0.00243747 -0.00420309)
(0.155094 0.0033942 -0.0022578)
(0.151636 0.00351438 -0.00159417)
(0.147255 0.00223016 -0.000571217)
(0.143979 -8.45287e-06 0.0017166)
(0.143968 -0.002472 0.00403285)
(0.147454 -0.00494351 0.00452625)
(0.152433 -0.00748939 0.00332874)
(0.155322 -0.00956861 0.00299604)
(0.15351 -0.00924198 0.00513969)
(0.148259 -0.00467392 0.00786542)
(0.143389 0.00237673 0.00818275)
(0.140768 0.00690843 0.00507675)
(0.13998 0.00522236 0.000698917)
(0.141337 -0.00102064 -0.00137314)
(0.14465 -0.0054787 -0.000523629)
(0.146602 -0.0036854 0.00113199)
(0.143538 0.0024457 0.00246564)
(0.136307 0.00821957 0.0032001)
(0.129293 0.0117234 0.0036606)
(0.125732 0.0128305 0.0040851)
(0.125532 0.0116334 0.00402453)
(0.127051 0.00895705 0.00357927)
(0.140629 0.00801669 -0.00768155)
(0.14123 0.00577528 -0.00647837)
(0.141736 0.00506519 -0.00317039)
(0.14041 0.00515154 0.000587489)
(0.136975 0.00541501 0.00376674)
(0.133583 0.00549213 0.00635806)
(0.132704 0.00484248 0.00872181)
(0.135279 0.00311295 0.0104565)
(0.14053 0.000719866 0.0104601)
(0.146833 -0.0016461 0.00801389)
(0.152581 -0.00332742 0.0033034)
(0.156739 -0.00377302 -0.00266101)
(0.158583 -0.00295871 -0.0079752)
(0.157752 -0.00100883 -0.010679)
(0.154828 0.00139144 -0.0105986)
(0.151066 0.0031787 -0.00927917)
(0.147841 0.0037389 -0.00778563)
(0.14653 0.00319171 -0.00617559)
(0.1476 0.00195186 -0.00473122)
(0.14995 0.001025 -0.00406242)
(0.151928 0.00137454 -0.00391581)
(0.153016 0.00189513 -0.00306166)
(0.153665 9.42749e-05 -0.000894653)
(0.154188 -0.00444882 0.00198685)
(0.154655 -0.0087583 0.0047283)
(0.154893 -0.00969232 0.00711224)
(0.153666 -0.00698028 0.00901583)
(0.150059 -0.00213972 0.00939381)
(0.14549 0.00303992 0.00699419)
(0.142188 0.00592145 0.00212647)
(0.141114 0.00443973 -0.0025825)
(0.142141 -0.000685066 -0.00377551)
(0.144341 -0.00586081 -0.000882792)
(0.145764 -0.00648803 0.00306269)
(0.144211 -0.00155798 0.00543958)
(0.140208 0.00553536 0.00600845)
(0.137074 0.0114935 0.00503784)
(0.136997 0.0146772 0.00231328)
(0.13879 0.0144603 -0.00188526)
(0.140144 0.0115228 -0.0058664)
(0.153939 0.00555678 -0.00988034)
(0.153315 0.00376951 -0.0106491)
(0.151297 0.00425782 -0.00938143)
(0.148627 0.00588375 -0.00703857)
(0.146605 0.00683683 -0.00414617)
(0.146275 0.00608844 -0.000907316)
(0.14761 0.00369842 0.00272764)
(0.149488 0.000478295 0.0067523)
(0.150694 -0.00247883 0.0108141)