/*--------------------------------*- C++ -*----------------------------------*\
| =========                 |                                                 |
| \\      /  F ield         | OpenFOAM: The Open Source CFD Toolbox           |
|  \\    /   O peration     | Version:  2306                                  |
|   \\  /    A nd           | Website:  www.openfoam.com                      |
|    \\/     M anipulation  |                                                 |
\*---------------------------------------------------------------------------*/
FoamFile
{
    version     2.0;
    format      ascii;
    arch        "LSB;label=32;scalar=64";
    class       volScalarField;
    location    "1";
    object      nut;
}
// * * * * * * * * * * * * * * * * * * * * * * * * * * * * * * * * * * * * * //

dimensions      [0 2 -1 0 0 0 0];

internalField   nonuniform List<scalar> 
60000
(
0.000100626
9.9408e-05
9.77256e-05
9.62846e-05
9.4721e-05
9.156e-05
8.57206e-05
7.71126e-05
6.74351e-05
5.98736e-05
5.62116e-05
5.53415e-05
5.53094e-05
5.53436e-05
5.57821e-05
5.70038e-05
5.91566e-05
6.21993e-05
6.59165e-05
7.03664e-05
7.59087e-05
8.23181e-05
8.8205e-05
9.16934e-05
9.11008e-05
8.59892e-05
7.82385e-05
7.08592e-05
6.52131e-05
6.14021e-05
5.97719e-05
6.04831e-05
6.34463e-05
6.83721e-05
7.44008e-05
8.08571e-05
8.727e-05
9.30675e-05
9.76451e-05
0.000100282
0.000103913
0.000102487
0.000100289
9.86271e-05
9.72882e-05
9.46614e-05
8.98069e-05
8.28652e-05
7.46636e-05
6.6708e-05
6.07892e-05
5.74582e-05
5.57174e-05
5.48398e-05
5.48767e-05
5.58864e-05
5.79308e-05
6.10298e-05
6.50799e-05
7.0107e-05
7.62641e-05
8.30404e-05
8.92013e-05
9.33542e-05
9.40361e-05
9.06053e-05
8.44639e-05
7.75844e-05
7.07724e-05
6.46178e-05
6.05893e-05
5.97104e-05
6.19697e-05
6.66201e-05
7.27177e-05
7.94797e-05
8.62287e-05
9.27559e-05
9.86969e-05
0.000102825
0.000104134
0.000102411
9.95196e-05
9.76063e-05
9.67633e-05
9.55953e-05
9.32404e-05
8.96638e-05
8.42203e-05
7.59209e-05
6.64533e-05
5.94395e-05
5.55668e-05
5.34924e-05
5.25888e-05
5.27867e-05
5.41781e-05
5.6729e-05
6.03116e-05
6.50036e-05
7.10442e-05
7.80669e-05
8.5093e-05
9.11275e-05
9.48342e-05
9.49267e-05
9.15613e-05
8.58601e-05
7.86361e-05
7.03958e-05
6.27535e-05
5.80313e-05
5.74607e-05
6.06461e-05
6.64133e-05
7.35632e-05
8.09541e-05
8.85608e-05
9.61402e-05
0.000102068
9.96203e-05
9.78737e-05
9.3925e-05
9.16922e-05
9.16473e-05
9.23434e-05
9.29089e-05
9.3287e-05
9.2274e-05
8.65328e-05
7.5036e-05
6.32604e-05
5.58009e-05
5.18037e-05
4.95146e-05
4.83609e-05
4.83378e-05
4.94148e-05
5.13701e-05
5.44328e-05
5.92783e-05
6.60206e-05
7.3882e-05
8.2258e-05
9.00522e-05
9.49988e-05
9.56735e-05
9.25939e-05
8.69808e-05
7.90543e-05
6.90321e-05
5.92977e-05
5.34379e-05
5.26866e-05
5.62987e-05
6.29895e-05
7.08506e-05
7.90592e-05
8.78994e-05
9.58191e-05
8.72783e-05
8.68758e-05
8.13612e-05
7.80805e-05
7.93142e-05
8.23444e-05
8.54635e-05
8.90448e-05
9.31105e-05
9.38838e-05
8.57578e-05
7.09159e-05
5.81902e-05
5.07967e-05
4.6668e-05
4.38611e-05
4.1838e-05
4.04879e-05
3.95726e-05
3.94289e-05
4.13591e-05
4.59198e-05
5.26643e-05
6.24399e-05
7.48672e-05
8.59077e-05
9.20099e-05
9.27184e-05
9.03157e-05
8.59095e-05
7.83802e-05
6.69047e-05
5.50329e-05
4.79381e-05
4.65732e-05
4.97886e-05
5.56321e-05
6.24244e-05
7.06012e-05
8.02814e-05
6.41254e-05
6.80998e-05
6.14749e-05
5.44627e-05
5.68097e-05
6.37386e-05
6.91217e-05
7.3671e-05
8.09574e-05
9.00849e-05
9.26789e-05
8.22319e-05
6.55055e-05
5.25173e-05
4.53407e-05
4.10639e-05
3.75303e-05
3.40662e-05
3.03546e-05
2.72328e-05
2.81389e-05
3.2776e-05
3.60203e-05
3.75588e-05
4.6198e-05
6.29252e-05
7.60823e-05
8.14661e-05
8.25512e-05
8.2868e-05
8.21628e-05
7.70666e-05
6.51074e-05
5.1497e-05
4.38295e-05
4.27333e-05
4.40798e-05
4.59666e-05
4.80686e-05
5.41328e-05
3.87638e-05
4.4064e-05
4.10233e-05
2.85399e-05
2.50881e-05
3.65481e-05
4.67343e-05
4.89683e-05
5.18288e-05
6.58236e-05
8.40527e-05
8.96682e-05
7.81585e-05
6.02964e-05
4.73716e-05
4.07482e-05
3.69705e-05
3.39131e-05
3.05122e-05
2.60354e-05
2.27765e-05
2.76778e-05
3.57358e-05
3.87232e-05
3.32115e-05
3.30801e-05
4.77668e-05
5.57163e-05
5.55246e-05
5.75109e-05
6.62246e-05
7.5005e-05
7.47777e-05
6.34993e-05
4.901e-05
4.20463e-05
4.10057e-05
4.01067e-05
3.97001e-05
3.92657e-05
3.2901e-05
2.69367e-05
2.99851e-05
2.05086e-05
4.87009e-06
1.09103e-05
2.40392e-05
2.98972e-05
2.23631e-05
2.25009e-05
4.72311e-05
7.72969e-05
8.68126e-05
7.44736e-05
5.57815e-05
4.34952e-05
3.8184e-05
3.67723e-05
3.72112e-05
3.73476e-05
3.37324e-05
2.60029e-05
2.49483e-05
3.27307e-05
3.72266e-05
2.92657e-05
2.22983e-05
2.56395e-05
2.12259e-05
1.90593e-05
2.49997e-05
4.34748e-05
6.35502e-05
6.90843e-05
5.9467e-05
4.53195e-05
3.81302e-05
3.51061e-05
3.33125e-05
3.40996e-05
2.6994e-05
2.43254e-05
2.50033e-05
2.8811e-05
1.18548e-05
1.13487e-05
1.3632e-05
1.89736e-05
2.00968e-05
9.8054e-06
1.55263e-05
3.69113e-05
7.28994e-05
8.34605e-05
6.98839e-05
5.16465e-05
4.07939e-05
3.77771e-05
4.01567e-05
4.51337e-05
4.7915e-05
4.27672e-05
2.9962e-05
2.21798e-05
2.73603e-05
2.91173e-05
1.71767e-05
1.8255e-05
2.87441e-05
3.51481e-05
4.02994e-05
3.67773e-05
3.65522e-05
5.23724e-05
5.90214e-05
5.1917e-05
3.91106e-05
3.02443e-05
2.73254e-05
2.58979e-05
2.20842e-05
2.40459e-05
2.31642e-05
2.94831e-05
2.7914e-05
5.92626e-06
1.86059e-05
1.44569e-05
1.95554e-05
2.15385e-05
1.49491e-05
2.47492e-05
3.49054e-05
6.8302e-05
7.64861e-05
6.31793e-05
4.6889e-05
3.79327e-05
3.80156e-05
4.48983e-05
5.3368e-05
5.48641e-05
4.50721e-05
2.90551e-05
2.02888e-05
2.28448e-05
2.00256e-05
2.34006e-05
3.37966e-05
3.04599e-05
2.86875e-05
3.87747e-05
3.87977e-05
3.33854e-05
4.23478e-05
4.93508e-05
4.61498e-05
3.43174e-05
2.50577e-05
2.34272e-05
2.29466e-05
2.26303e-05
2.49171e-05
2.39039e-05
2.68179e-05
2.08933e-05
4.7243e-06
2.22967e-05
1.37246e-05
2.13795e-05
2.13008e-05
1.96455e-05
2.62592e-05
3.23696e-05
6.00098e-05
6.47992e-05
5.27177e-05
3.79623e-05
3.18191e-05
3.82178e-05
5.17332e-05
6.20874e-05
5.84211e-05
4.28637e-05
2.51816e-05
1.88773e-05
2.01421e-05
2.2742e-05
3.20532e-05
3.28915e-05
2.35139e-05
1.73762e-05
2.65712e-05
2.91868e-05
2.72479e-05
3.58175e-05
4.55554e-05
4.34808e-05
3.04316e-05
2.36084e-05
2.59109e-05
2.47349e-05
2.47455e-05
2.39006e-05
1.7389e-05
1.8994e-05
1.37974e-05
1.01817e-05
2.26459e-05
1.43798e-05
1.90276e-05
1.32989e-05
2.36394e-05
2.31327e-05
2.57862e-05
4.20976e-05
4.21889e-05
3.2859e-05
2.33438e-05
2.74337e-05
4.0331e-05
5.92332e-05
6.68771e-05
5.58693e-05
3.65315e-05
2.32861e-05
2.10512e-05
2.04573e-05
2.64311e-05
3.27073e-05
3.40148e-05
3.05164e-05
2.31579e-05
2.06113e-05
2.21772e-05
2.2014e-05
3.30265e-05
4.29964e-05
3.72794e-05
2.69057e-05
2.80824e-05
2.8345e-05
2.3728e-05
2.28402e-05
1.7425e-05
9.15525e-06
1.57973e-05
1.06263e-05
1.47403e-05
2.06969e-05
1.56157e-05
1.60567e-05
1.3331e-05
2.68746e-05
2.32892e-05
1.74641e-05
1.77026e-05
2.1174e-05
2.69374e-05
2.83963e-05
3.10132e-05
3.9707e-05
6.01934e-05
6.14929e-05
4.53619e-05
3.06234e-05
2.63196e-05
2.2151e-05
2.19339e-05
2.8021e-05
3.50329e-05
4.13144e-05
4.05182e-05
2.97944e-05
2.06596e-05
2.10599e-05
1.84104e-05
3.10247e-05
3.66457e-05
3.07878e-05
3.00918e-05
3.16384e-05
2.70992e-05
2.19038e-05
1.76492e-05
7.38881e-06
1.07875e-05
1.40996e-05
1.09918e-05
1.69504e-05
1.87267e-05
1.90669e-05
1.64263e-05
2.21704e-05
3.42356e-05
3.31516e-05
1.87783e-05
1.60505e-05
2.88457e-05
2.90271e-05
2.55677e-05
2.2801e-05
3.42138e-05
5.24192e-05
4.74939e-05
3.37738e-05
2.89445e-05
2.47425e-05
1.81545e-05
1.78625e-05
2.19716e-05
3.20744e-05
4.05081e-05
3.72935e-05
2.53134e-05
2.13675e-05
1.84293e-05
1.51214e-05
2.71069e-05
3.00198e-05
2.85708e-05
3.23066e-05
3.06261e-05
2.7497e-05
2.1143e-05
8.72574e-06
7.58802e-06
1.55313e-05
1.45804e-05
1.34681e-05
1.70626e-05
2.0223e-05
2.3029e-05
2.10363e-05
2.07243e-05
1.88876e-05
1.6365e-05
2.00789e-05
2.42377e-05
2.73462e-05
2.04139e-05
1.96894e-05
1.68582e-05
3.45439e-05
4.32555e-05
3.40359e-05
2.62181e-05
2.22802e-05
1.60177e-05
1.51667e-05
1.50341e-05
1.37353e-05
2.09243e-05
2.52542e-05
2.00409e-05
1.60009e-05
2.16101e-05
1.87732e-05
1.58126e-05
2.31292e-05
2.41169e-05
2.75176e-05
2.74222e-05
3.01991e-05
2.79043e-05
1.51182e-05
4.48295e-06
1.40316e-05
1.78742e-05
1.51462e-05
1.33865e-05
1.45229e-05
1.87458e-05
2.16561e-05
2.01976e-05
1.92629e-05
2.0602e-05
2.2133e-05
2.27453e-05
2.75044e-05
2.91638e-05
1.64438e-05
1.09927e-05
2.6612e-05
3.96165e-05
3.69314e-05
2.60911e-05
1.68245e-05
1.86409e-05
2.38876e-05
2.17734e-05
1.6707e-05
1.49594e-05
1.75446e-05
1.91684e-05
1.91182e-05
2.2943e-05
2.76381e-05
2.54821e-05
2.13999e-05
2.66987e-05
2.20623e-05
1.81851e-05
2.56781e-05
3.14509e-05
2.30891e-05
9.59528e-06
8.79695e-06
1.45095e-05
1.53889e-05
1.34735e-05
1.29544e-05
1.32316e-05
1.46785e-05
1.99114e-05
2.35201e-05
2.21386e-05
1.93567e-05
1.72429e-05
2.29194e-05
3.18325e-05
2.50778e-05
6.69138e-06
1.60591e-05
3.14023e-05
3.58148e-05
2.92979e-05
2.02164e-05
1.78562e-05
1.65715e-05
1.51963e-05
1.49898e-05
1.14891e-05
1.16034e-05
2.01491e-05
2.61778e-05
2.66357e-05
2.81796e-05
3.1747e-05
3.08702e-05
3.12289e-05
2.64427e-05
1.50386e-05
1.66618e-05
2.89105e-05
3.09611e-05
2.30081e-05
1.12453e-05
8.09564e-06
1.21691e-05
1.19979e-05
1.26413e-05
1.59702e-05
2.23701e-05
2.82109e-05
2.67131e-05
2.09797e-05
1.58174e-05
1.12397e-05
1.9795e-05
3.04453e-05
2.8732e-05
1.2479e-05
7.76891e-06
2.35975e-05
3.16911e-05
3.04475e-05
2.51663e-05
2.01128e-05
1.55783e-05
1.60902e-05
2.20156e-05
2.06463e-05
1.47728e-05
2.20535e-05
2.87081e-05
2.86165e-05
2.62725e-05
2.68692e-05
2.98576e-05
2.33485e-05
2.09323e-05
1.60316e-05
1.41835e-05
1.62894e-05
2.03669e-05
2.37197e-05
2.34702e-05
1.94206e-05
1.14718e-05
2.32761e-06
1.24898e-05
2.41362e-05
3.11636e-05
2.98903e-05
2.35888e-05
2.23692e-05
1.98431e-05
1.19611e-05
1.71103e-05
2.99766e-05
3.59714e-05
2.42317e-05
1.01608e-05
2.85923e-05
3.84042e-05
4.14447e-05
4.29608e-05
4.1446e-05
3.5146e-05
2.55329e-05
1.96592e-05
2.13915e-05
1.90539e-05
1.84231e-05
2.36895e-05
2.35623e-05
2.04122e-05
2.06803e-05
2.31913e-05
1.73753e-05
1.46182e-05
1.76193e-05
2.36973e-05
2.38663e-05
1.68069e-05
1.28678e-05
1.64649e-05
1.97956e-05
2.21114e-05
2.07376e-05
1.63994e-05
2.08929e-05
3.05629e-05
3.15425e-05
2.43028e-05
2.37193e-05
2.72286e-05
2.27771e-05
1.45783e-05
1.54901e-05
2.36131e-05
2.22094e-05
6.98844e-06
2.44726e-05
4.10342e-05
4.78657e-05
5.11621e-05
4.96871e-05
4.21065e-05
3.09285e-05
2.05585e-05
1.53084e-05
1.51204e-05
1.68963e-05
2.17743e-05
2.49629e-05
2.33921e-05
2.01081e-05
1.89174e-05
1.92384e-05
1.90126e-05
1.90495e-05
1.66971e-05
1.28625e-05
9.27368e-06
1.0963e-05
1.68307e-05
1.86112e-05
1.56579e-05
1.62906e-05
2.06928e-05
1.99861e-05
1.34298e-05
1.00318e-05
1.28885e-05
1.6293e-05
2.49502e-05
2.94452e-05
2.33391e-05
1.35862e-05
1.08974e-05
1.35353e-05
9.82467e-06
1.81084e-05
3.51312e-05
4.30569e-05
4.1837e-05
3.56285e-05
2.87568e-05
2.43457e-05
2.35018e-05
2.33601e-05
2.2082e-05
2.06294e-05
2.06947e-05
2.19167e-05
2.20359e-05
2.07437e-05
1.99823e-05
2.37576e-05
2.34878e-05
2.1982e-05
2.23392e-05
2.09343e-05
1.64723e-05
1.06451e-05
6.64821e-06
8.0945e-06
1.21681e-05
1.43417e-05
1.30864e-05
1.42381e-05
1.90025e-05
2.00372e-05
1.47576e-05
1.22552e-05
2.22485e-05
3.23318e-05
3.36896e-05
2.53232e-05
1.63057e-05
1.43506e-05
1.22494e-05
1.58442e-05
2.58733e-05
3.01796e-05
2.67778e-05
2.07113e-05
1.68635e-05
1.64661e-05
2.03472e-05
2.63252e-05
2.91815e-05
2.77366e-05
2.45996e-05
2.11873e-05
1.78205e-05
1.51758e-05
1.85602e-05
1.19776e-05
8.85785e-06
9.8493e-06
1.51742e-05
1.64077e-05
1.60288e-05
1.91325e-05
2.04181e-05
1.71737e-05
1.15802e-05
9.28041e-06
1.38005e-05
1.50302e-05
1.20088e-05
1.45765e-05
1.92898e-05
1.81255e-05
1.78802e-05
2.74789e-05
3.59319e-05
3.45312e-05
2.37797e-05
1.3794e-05
1.32645e-05
1.39193e-05
1.57445e-05
1.87782e-05
2.21775e-05
2.35252e-05
2.05591e-05
1.47101e-05
1.20525e-05
1.86188e-05
2.38074e-05
2.25227e-05
1.75985e-05
1.33215e-05
1.10815e-05
1.09368e-05
1.22038e-05
1.01669e-05
1.11747e-05
1.4792e-05
1.6531e-05
1.59305e-05
1.75655e-05
2.17711e-05
2.28904e-05
1.8558e-05
1.31234e-05
1.24451e-05
1.1883e-05
9.37424e-06
8.42221e-06
1.04605e-05
1.3674e-05
1.63103e-05
1.78494e-05
1.74541e-05
1.4488e-05
1.15098e-05
1.12148e-05
1.12922e-05
1.18992e-05
1.40555e-05
1.65289e-05
1.8853e-05
2.08586e-05
2.06975e-05
1.67821e-05
1.06676e-05
6.33287e-06
6.30959e-06
9.17363e-06
1.14055e-05
1.21999e-05
1.23393e-05
1.2292e-05
1.22489e-05
1.14819e-05
1.09177e-05
1.09505e-05
1.22192e-05
1.24147e-05
1.04335e-05
7.209e-06
7.65511e-06
1.03201e-05
1.03224e-05
1.07248e-05
1.45003e-05
1.90075e-05
2.22399e-05
2.337e-05
2.13655e-05
1.80253e-05
1.84296e-05
2.16527e-05
2.45989e-05
2.58464e-05
2.25004e-05
1.41098e-05
5.64646e-06
7.50782e-06
1.13793e-05
1.56105e-05
2.12751e-05
2.52092e-05
2.50634e-05
2.09529e-05
1.46525e-05
1.0805e-05
1.09226e-05
9.15539e-06
6.77447e-06
1.09907e-05
1.42948e-05
1.51745e-05
1.53322e-05
1.33992e-05
8.7276e-05
9.24663e-05
9.54556e-05
9.53811e-05
9.28873e-05
8.9141e-05
8.46155e-05
7.91965e-05
7.3625e-05
6.93544e-05
6.6986e-05
6.56462e-05
6.42246e-05
6.29621e-05
6.30753e-05
6.50076e-05
6.81351e-05
7.16214e-05
7.51485e-05
7.91977e-05
8.42244e-05
8.96563e-05
9.36868e-05
9.4286e-05
9.0703e-05
8.39916e-05
7.63715e-05
6.98546e-05
6.49692e-05
6.07728e-05
5.69722e-05
5.46706e-05
5.4461e-05
5.57501e-05
5.82973e-05
6.24222e-05
6.75302e-05
7.23312e-05
7.66791e-05
8.15528e-05
8.8442e-05
9.45023e-05
9.84103e-05
9.91226e-05
9.70005e-05
9.32403e-05
8.885e-05
8.42414e-05
7.96447e-05
7.53212e-05
7.17543e-05
6.89551e-05
6.64142e-05
6.43595e-05
6.37789e-05
6.5015e-05
6.7524e-05
7.07057e-05
7.43621e-05
7.89765e-05
8.4883e-05
9.12763e-05
9.62111e-05
9.78452e-05
9.54808e-05
8.97073e-05
8.23975e-05
7.5882e-05
7.09881e-05
6.63848e-05
6.103e-05
5.62869e-05
5.4013e-05
5.42995e-05
5.66497e-05
6.0639e-05
6.54341e-05
7.03122e-05
7.56311e-05
8.17306e-05
8.54131e-05
9.19863e-05
9.71708e-05
9.95308e-05
9.87498e-05
9.5948e-05
9.27234e-05
8.99323e-05
8.7042e-05
8.28224e-05
7.77449e-05
7.33969e-05
6.97953e-05
6.63699e-05
6.3788e-05
6.30105e-05
6.40084e-05
6.62402e-05
6.93561e-05
7.36254e-05
7.95413e-05
8.66478e-05
9.32257e-05
9.7494e-05
9.84429e-05
9.56569e-05
8.9844e-05
8.35171e-05
7.89002e-05
7.4919e-05
6.86738e-05
6.03172e-05
5.37466e-05
5.13708e-05
5.25144e-05
5.60143e-05
6.08466e-05
6.62195e-05
7.21704e-05
7.8588e-05
7.78993e-05
8.37104e-05
8.95455e-05
9.39626e-05
9.553e-05
9.46598e-05
9.31771e-05
9.26663e-05
9.26537e-05
9.03519e-05
8.47573e-05
7.88845e-05
7.43379e-05
6.96614e-05
6.45106e-05
6.04882e-05
5.8649e-05
5.86398e-05
5.99046e-05
6.23794e-05
6.6887e-05
7.37513e-05
8.1746e-05
8.91634e-05
9.48755e-05
9.74571e-05
9.54381e-05
9.03092e-05
8.61845e-05
8.40003e-05
7.94726e-05
6.92372e-05
5.70403e-05
4.93781e-05
4.75624e-05
4.97913e-05
5.43894e-05
6.00832e-05
6.61558e-05
7.21135e-05
6.60334e-05
6.90758e-05
7.32861e-05
7.89313e-05
8.35133e-05
8.56024e-05
8.61914e-05
8.75811e-05
9.08457e-05
9.30523e-05
9.00177e-05
8.36694e-05
7.844e-05
7.35226e-05
6.6773e-05
5.93365e-05
5.35703e-05
4.98908e-05
4.7542e-05
4.62204e-05
4.71308e-05
5.15506e-05
5.89511e-05
6.82509e-05
7.8835e-05
8.88038e-05
9.40146e-05
9.26005e-05
8.91522e-05
8.88188e-05
8.87631e-05
8.19523e-05
6.71753e-05
5.24463e-05
4.4699e-05
4.37129e-05
4.6673e-05
5.16827e-05
5.71023e-05
6.20966e-05
5.21295e-05
5.25134e-05
5.1267e-05
5.37558e-05
5.9824e-05
6.5183e-05
6.80091e-05
7.00594e-05
7.5192e-05
8.33103e-05
8.75087e-05
8.4407e-05
7.92684e-05
7.4977e-05
6.88635e-05
6.01066e-05
5.11661e-05
4.36913e-05
3.74181e-05
3.26454e-05
3.12824e-05
3.31188e-05
3.54912e-05
3.90249e-05
4.79066e-05
6.3622e-05
7.9023e-05
8.5681e-05
8.43858e-05
8.46291e-05
8.92661e-05
9.07707e-05
8.15114e-05
6.39779e-05
4.84128e-05
4.11859e-05
4.03118e-05
4.22543e-05
4.52671e-05
4.89407e-05
3.87171e-05
4.0861e-05
3.66148e-05
2.98821e-05
3.03322e-05
3.6112e-05
4.03805e-05
4.07528e-05
4.21059e-05
5.21962e-05
6.73197e-05
7.49169e-05
7.38999e-05
7.06659e-05
6.6313e-05
5.93574e-05
5.0706e-05
4.19981e-05
3.36753e-05
2.66264e-05
2.39598e-05
2.68151e-05
2.85528e-05
2.61946e-05
2.41953e-05
3.06227e-05
4.83098e-05
6.44375e-05
6.83569e-05
6.8004e-05
7.48585e-05
8.54012e-05
8.86615e-05
7.89534e-05
6.1572e-05
4.64321e-05
3.91107e-05
3.62704e-05
3.46932e-05
3.52547e-05
2.86826e-05
3.24124e-05
3.32429e-05
2.51126e-05
1.45787e-05
1.46467e-05
1.81145e-05
1.9445e-05
1.63056e-05
1.78703e-05
2.83057e-05
4.70395e-05
5.89728e-05
6.10928e-05
5.82592e-05
5.32318e-05
4.74608e-05
4.16362e-05
3.61284e-05
3.14822e-05
2.68943e-05
2.3252e-05
2.47701e-05
2.39203e-05
1.9395e-05
1.82567e-05
2.31795e-05
3.5594e-05
4.05554e-05
3.49197e-05
3.7251e-05
5.5581e-05
7.57572e-05
8.29143e-05
7.57398e-05
5.99941e-05
4.49921e-05
3.64625e-05
3.11811e-05
2.76996e-05
2.55238e-05
2.58438e-05
2.83826e-05
2.92798e-05
1.90247e-05
1.20526e-05
1.5939e-05
1.5925e-05
1.40715e-05
6.01447e-06
1.44748e-05
1.60289e-05
3.19682e-05
4.72326e-05
5.07812e-05
4.66382e-05
4.10356e-05
3.74838e-05
3.69158e-05
3.97948e-05
4.29057e-05
3.87726e-05
2.98925e-05
2.60728e-05
2.10804e-05
1.55355e-05
1.65267e-05
1.79088e-05
1.89716e-05
1.39531e-05
2.23385e-05
1.92118e-05
3.53501e-05
6.42708e-05
7.6389e-05
7.16194e-05
5.56102e-05
4.05009e-05
3.22511e-05
2.70632e-05
2.50898e-05
2.6496e-05
2.38029e-05
2.51675e-05
2.5427e-05
1.39356e-05
1.77634e-05
2.35961e-05
1.93355e-05
1.35597e-05
6.54417e-06
1.82564e-05
1.47896e-05
2.4376e-05
4.09096e-05
4.36395e-05
3.71473e-05
3.10678e-05
3.08502e-05
3.71797e-05
4.67004e-05
5.07047e-05
4.21292e-05
3.06895e-05
2.42026e-05
1.61319e-05
1.26432e-05
1.34112e-05
1.66337e-05
1.87903e-05
2.41915e-05
3.75545e-05
2.56584e-05
2.67555e-05
5.78957e-05
7.22703e-05
6.50644e-05
4.67846e-05
3.29117e-05
2.61833e-05
2.14181e-05
2.64089e-05
2.74027e-05
2.13089e-05
2.18862e-05
2.03078e-05
1.40178e-05
2.49828e-05
2.81061e-05
1.84762e-05
1.1596e-05
1.41269e-05
2.4464e-05
1.73699e-05
1.93863e-05
3.33008e-05
3.29702e-05
2.50327e-05
2.05034e-05
2.46726e-05
3.60368e-05
4.79585e-05
4.84465e-05
3.59662e-05
2.6321e-05
1.84526e-05
9.32543e-06
1.03293e-05
1.84219e-05
2.62854e-05
2.46673e-05
2.06326e-05
3.33404e-05
2.58958e-05
2.58227e-05
5.83887e-05
6.98848e-05
5.51281e-05
3.51393e-05
2.33713e-05
1.83729e-05
2.15557e-05
2.63584e-05
2.40346e-05
1.76898e-05
2.02055e-05
1.8157e-05
1.5184e-05
2.30665e-05
2.41801e-05
1.8642e-05
1.47509e-05
2.07774e-05
2.71361e-05
1.69406e-05
1.26106e-05
2.03424e-05
2.0064e-05
1.70251e-05
1.76587e-05
2.3473e-05
3.32869e-05
4.27893e-05
3.66622e-05
2.45574e-05
1.90053e-05
1.31415e-05
8.93625e-06
1.50033e-05
2.4886e-05
3.22831e-05
3.32332e-05
2.24095e-05
2.9645e-05
2.42636e-05
2.90304e-05
6.32685e-05
6.36825e-05
4.23408e-05
2.47544e-05
2.26858e-05
2.12358e-05
2.26028e-05
2.22447e-05
1.73045e-05
1.59717e-05
2.00607e-05
1.642e-05
1.45626e-05
2.12322e-05
2.35089e-05
1.89328e-05
1.45716e-05
2.1867e-05
2.75082e-05
2.39145e-05
1.49134e-05
1.56918e-05
2.34905e-05
2.0573e-05
1.99923e-05
2.14289e-05
2.42961e-05
2.91853e-05
2.12669e-05
1.76815e-05
1.74268e-05
1.49181e-05
1.32454e-05
1.85847e-05
2.4359e-05
2.99171e-05
3.17658e-05
2.0343e-05
2.89634e-05
1.60893e-05
4.0184e-05
6.50887e-05
5.35999e-05
3.32872e-05
3.37975e-05
2.84821e-05
2.49541e-05
1.92337e-05
1.44814e-05
1.31768e-05
1.92107e-05
2.04629e-05
1.69106e-05
1.97019e-05
2.49334e-05
2.25697e-05
1.32618e-05
1.27774e-05
2.52216e-05
2.9548e-05
2.27447e-05
2.24605e-05
2.75461e-05
2.34426e-05
1.22182e-05
1.59367e-05
1.31501e-05
1.57056e-05
1.78997e-05
1.56397e-05
1.96263e-05
1.92075e-05
1.4077e-05
1.26566e-05
1.71157e-05
2.11228e-05
2.15691e-05
2.28697e-05
1.90039e-05
2.26804e-05
1.31394e-05
5.13144e-05
6.06174e-05
4.71162e-05
5.07416e-05
4.14351e-05
3.44174e-05
2.57802e-05
1.76441e-05
1.36009e-05
1.84786e-05
2.29223e-05
2.27519e-05
2.23553e-05
2.43423e-05
2.24681e-05
1.61848e-05
1.27305e-05
1.71164e-05
2.12223e-05
2.39669e-05
2.71935e-05
2.50518e-05
1.8362e-05
1.39891e-05
6.80129e-06
8.57752e-06
1.19458e-05
1.79467e-05
1.53859e-05
1.93571e-05
2.12868e-05
1.52251e-05
8.69636e-06
6.83014e-06
1.3731e-05
1.91826e-05
2.09919e-05
1.80983e-05
1.70481e-05
1.11645e-05
2.66009e-05
5.43432e-05
5.96217e-05
6.33579e-05
5.72268e-05
4.55037e-05
3.25994e-05
2.13982e-05
1.4179e-05
1.52791e-05
2.21374e-05
2.67474e-05
2.61888e-05
2.29471e-05
1.97521e-05
1.52248e-05
1.2213e-05
1.55316e-05
2.35412e-05
2.89927e-05
2.68596e-05
1.7918e-05
8.8105e-06
1.16122e-05
1.17049e-05
1.01132e-05
1.48776e-05
2.08078e-05
2.02481e-05
1.79486e-05
1.82246e-05
1.62103e-05
1.27101e-05
1.2858e-05
1.48694e-05
1.61462e-05
2.06838e-05
2.43576e-05
2.03485e-05
1.69092e-05
1.21472e-05
3.03396e-05
5.43398e-05
4.67487e-05
5.7032e-05
5.0848e-05
3.46253e-05
1.71223e-05
7.99669e-06
6.57328e-06
1.36673e-05
2.33544e-05
2.88242e-05
2.64571e-05
2.17154e-05
1.81461e-05
1.14448e-05
8.73343e-06
1.65565e-05
2.0521e-05
1.87273e-05
1.27237e-05
1.05488e-05
1.61759e-05
1.73766e-05
1.34648e-05
1.38092e-05
1.83625e-05
2.03992e-05
1.88472e-05
1.67924e-05
1.49922e-05
1.48964e-05
1.62629e-05
1.79475e-05
1.88209e-05
2.12168e-05
2.65576e-05
2.62271e-05
1.93963e-05
1.89086e-05
2.10199e-05
2.79719e-05
2.07746e-05
3.22444e-05
4.38592e-05
4.13226e-05
2.629e-05
8.5923e-06
9.76763e-06
1.60667e-05
1.41355e-05
1.63592e-05
2.4566e-05
2.79475e-05
2.59445e-05
2.08835e-05
1.86304e-05
1.80038e-05
1.29374e-05
1.00704e-05
1.25783e-05
1.63954e-05
2.43051e-05
2.97308e-05
2.54028e-05
1.49294e-05
1.42349e-05
2.06616e-05
2.35479e-05
2.3215e-05
1.98686e-05
1.53256e-05
1.56911e-05
1.99027e-05
2.29985e-05
2.65255e-05
2.95945e-05
2.76245e-05
2.10645e-05
1.56323e-05
2.0174e-05
2.39437e-05
2.1315e-05
1.77739e-05
2.38466e-05
3.63407e-05
3.79086e-05
2.78583e-05
1.4327e-05
6.90426e-06
1.13689e-05
1.37935e-05
1.6192e-05
2.1055e-05
2.95236e-05
3.72122e-05
3.80753e-05
2.99187e-05
1.76287e-05
1.41178e-05
1.62292e-05
1.57497e-05
1.76285e-05
2.6409e-05
3.18056e-05
2.59907e-05
1.85776e-05
2.40533e-05
2.9603e-05
3.0191e-05
2.6954e-05
2.08032e-05
1.35885e-05
1.55568e-05
2.48924e-05
2.92269e-05
2.79306e-05
2.38314e-05
1.78008e-05
1.20448e-05
1.18575e-05
1.84387e-05
1.66619e-05
1.98313e-05
1.58647e-05
1.34435e-05
1.92971e-05
1.94846e-05
1.71145e-05
1.79942e-05
1.61059e-05
9.98329e-06
1.21501e-05
2.20389e-05
3.09461e-05
3.89145e-05
3.97435e-05
2.74974e-05
1.18516e-05
1.56114e-05
1.93827e-05
1.75377e-05
1.55046e-05
1.21737e-05
1.46209e-05
2.20158e-05
2.43041e-05
2.5132e-05
2.55278e-05
2.46043e-05
2.4169e-05
2.35991e-05
1.98989e-05
1.32864e-05
1.36456e-05
1.79875e-05
1.93141e-05
2.15269e-05
2.22472e-05
1.83139e-05
1.29859e-05
1.21034e-05
1.26722e-05
9.51575e-06
1.20281e-05
1.57435e-05
1.36287e-05
6.70029e-06
6.16378e-06
1.34206e-05
1.62135e-05
1.72132e-05
2.05287e-05
2.43402e-05
2.54743e-05
2.53481e-05
2.70706e-05
2.58634e-05
1.79845e-05
1.56446e-05
2.31379e-05
2.63176e-05
2.54265e-05
2.24124e-05
1.78767e-05
1.808e-05
2.18828e-05
2.32384e-05
1.92283e-05
1.60553e-05
2.22536e-05
2.83384e-05
2.97414e-05
2.60777e-05
1.9134e-05
1.23425e-05
1.08625e-05
1.65822e-05
2.03534e-05
1.85862e-05
1.39145e-05
1.29705e-05
1.32999e-05
1.77824e-05
2.43469e-05
2.79424e-05
2.72019e-05
2.22959e-05
1.40927e-05
5.5747e-06
9.99277e-06
1.57749e-05
1.71135e-05
1.78766e-05
1.99085e-05
1.90246e-05
1.3656e-05
8.30532e-06
6.55273e-06
4.76008e-06
1.37272e-05
2.41494e-05
2.80535e-05
2.4997e-05
2.02637e-05
1.83027e-05
1.88868e-05
1.89919e-05
1.70471e-05
1.60667e-05
1.88472e-05
2.32959e-05
2.6889e-05
2.8221e-05
2.76778e-05
2.47236e-05
1.9323e-05
1.45169e-05
1.23979e-05
1.28189e-05
1.45348e-05
1.431e-05
1.27297e-05
1.19985e-05
1.30703e-05
1.84186e-05
2.36267e-05
2.3537e-05
1.93869e-05
1.86366e-05
2.16041e-05
2.3501e-05
2.37043e-05
2.27008e-05
2.0277e-05
1.70408e-05
1.39832e-05
1.07132e-05
7.2327e-06
5.20363e-06
6.40738e-06
1.23769e-05
1.97258e-05
2.24593e-05
1.90423e-05
1.69464e-05
1.84149e-05
1.65485e-05
1.3397e-05
1.36431e-05
1.25276e-05
8.45618e-06
7.28575e-06
9.76193e-06
1.38573e-05
1.73073e-05
1.61979e-05
1.23931e-05
1.03829e-05
9.44502e-06
1.00744e-05
1.19452e-05
1.45891e-05
1.14981e-05
1.12157e-05
1.525e-05
1.66789e-05
1.483e-05
1.33468e-05
1.26729e-05
1.06088e-05
8.53785e-06
9.10708e-06
1.12878e-05
1.44156e-05
1.58157e-05
1.40029e-05
1.20201e-05
1.18545e-05
1.41207e-05
1.93356e-05
2.28231e-05
2.16658e-05
1.81223e-05
1.4643e-05
1.11995e-05
1.04773e-05
1.48298e-05
2.00638e-05
2.18704e-05
1.80713e-05
1.05613e-05
7.17769e-06
8.65358e-06
8.47439e-06
8.63112e-06
9.31753e-06
9.90835e-06
9.82421e-06
8.86693e-06
1.06549e-05
1.41759e-05
2.51801e-05
2.53036e-05
2.38178e-05
2.27027e-05
1.97824e-05
1.3441e-05
8.84798e-06
1.25328e-05
1.4562e-05
1.1743e-05
9.75213e-06
1.3871e-05
1.81864e-05
1.9271e-05
1.74368e-05
1.51785e-05
1.36429e-05
1.37327e-05
1.94254e-05
2.48185e-05
2.35595e-05
1.81918e-05
1.55285e-05
1.50587e-05
1.63419e-05
2.26236e-05
2.84793e-05
2.6974e-05
2.08338e-05
1.82258e-05
1.52341e-05
1.00021e-05
7.96531e-06
6.43939e-06
8.19167e-06
1.49967e-05
1.91567e-05
1.93943e-05
1.91061e-05
2.20045e-05
6.2889e-05
6.68469e-05
6.94395e-05
6.99306e-05
6.87218e-05
6.65428e-05
6.39457e-05
6.13112e-05
5.93911e-05
5.90527e-05
6.00667e-05
6.15256e-05
6.31379e-05
6.53134e-05
6.84257e-05
7.21234e-05
7.57757e-05
7.87517e-05
8.07517e-05
8.18293e-05
8.27689e-05
8.44964e-05
8.66897e-05
8.79814e-05
8.70497e-05
8.38527e-05
7.90182e-05
7.28904e-05
6.52571e-05
5.67827e-05
5.01318e-05
4.6754e-05
4.53308e-05
4.45559e-05
4.46355e-05
4.60168e-05
4.86925e-05
5.21627e-05
5.56303e-05
5.8984e-05
6.41189e-05
6.96599e-05
7.34571e-05
7.48938e-05
7.42242e-05
7.18913e-05
6.86075e-05
6.54327e-05
6.33503e-05
6.26427e-05
6.27653e-05
6.31297e-05
6.38571e-05
6.55022e-05
6.82776e-05
7.17237e-05
7.5272e-05
7.84628e-05
8.10128e-05
8.28937e-05
8.47499e-05
8.72364e-05
8.98217e-05
9.14038e-05
9.09667e-05
8.8492e-05
8.48795e-05
8.06161e-05
7.46193e-05
6.60288e-05
5.67562e-05
4.9706e-05
4.55382e-05
4.36014e-05
4.33283e-05
4.43138e-05
4.64253e-05
4.9532e-05
5.34007e-05
5.82978e-05
6.29156e-05
6.98828e-05
7.55195e-05
7.88763e-05
7.9726e-05
7.8195e-05
7.5002e-05
7.1537e-05
6.8979e-05
6.73724e-05
6.62057e-05
6.51566e-05
6.43339e-05
6.42274e-05
6.53205e-05
6.76068e-05
7.06467e-05
7.39088e-05
7.69191e-05
7.95245e-05
8.21664e-05
8.54427e-05
8.89647e-05
9.18214e-05
9.30731e-05
9.23083e-05
9.05961e-05
8.89977e-05
8.61215e-05
7.90017e-05
6.70437e-05
5.44794e-05
4.58704e-05
4.18793e-05
4.05782e-05
4.09618e-05
4.27437e-05
4.59148e-05
5.03197e-05
5.61017e-05
5.86582e-05
6.63288e-05
7.36636e-05
7.93807e-05
8.27321e-05
8.33365e-05
8.14892e-05
7.85315e-05
7.60051e-05
7.39643e-05
7.17661e-05
6.92831e-05
6.65189e-05
6.36406e-05
6.14811e-05
6.09668e-05
6.2135e-05
6.43914e-05
6.70169e-05
6.97558e-05
7.29138e-05
7.71167e-05
8.21032e-05
8.69879e-05
9.08568e-05
9.24262e-05
9.24182e-05
9.31933e-05
9.43928e-05
9.17271e-05
8.07251e-05
6.35254e-05
4.86529e-05
4.08732e-05
3.77785e-05
3.73957e-05
3.88531e-05
4.18797e-05
4.62155e-05
5.18637e-05
5.12807e-05
5.77981e-05
6.53073e-05
7.27595e-05
7.91066e-05
8.32147e-05
8.43649e-05
8.32861e-05
8.19502e-05
8.08529e-05
7.88969e-05
7.58398e-05
7.17871e-05
6.62938e-05
5.99684e-05
5.47555e-05
5.18696e-05
5.09382e-05
5.11066e-05
5.21166e-05
5.45233e-05
5.92809e-05
6.59824e-05
7.33821e-05
8.06779e-05
8.56717e-05
8.70518e-05
8.87298e-05
9.37447e-05
9.82295e-05
9.41738e-05
7.7583e-05
5.65898e-05
4.27042e-05
3.63205e-05
3.43517e-05
3.50993e-05
3.76827e-05
4.1416e-05
4.59157e-05
4.3156e-05
4.65815e-05
5.09862e-05
5.68685e-05
6.45673e-05
7.25964e-05
7.82937e-05
8.06925e-05
8.1897e-05
8.35511e-05
8.41339e-05
8.24823e-05
7.89134e-05
7.27097e-05
6.33576e-05
5.29737e-05
4.45854e-05
3.87347e-05
3.4653e-05
3.24823e-05
3.30904e-05
3.69807e-05
4.29844e-05
4.98306e-05
5.91728e-05
6.90468e-05
7.29597e-05
7.29324e-05
7.92144e-05
9.15447e-05
9.99443e-05
9.25988e-05
7.03635e-05
4.92109e-05
3.77043e-05
3.27545e-05
3.18205e-05
3.36683e-05
3.67845e-05
3.99482e-05
3.74139e-05
3.84427e-05
3.82812e-05
3.86778e-05
4.21184e-05
4.91893e-05
5.77756e-05
6.43594e-05
6.90206e-05
7.45664e-05
8.0207e-05
8.30339e-05
8.25635e-05
7.85223e-05
6.92994e-05
5.60634e-05
4.32398e-05
3.3153e-05
2.52868e-05
2.11739e-05
2.3035e-05
2.79044e-05
3.2592e-05
3.40802e-05
3.31869e-05
4.15193e-05
5.12366e-05
4.7998e-05
4.73766e-05
6.46597e-05
8.86978e-05
9.95652e-05
8.6354e-05
6.12482e-05
4.32273e-05
3.4134e-05
3.00956e-05
3.0273e-05
3.29556e-05
3.54702e-05
3.44311e-05
3.55209e-05
3.39727e-05
3.02961e-05
2.9139e-05
3.12063e-05
3.37374e-05
3.75883e-05
4.19454e-05
4.835e-05
5.80724e-05
6.76864e-05
7.38205e-05
7.52067e-05
6.99767e-05
5.79292e-05
4.38739e-05
3.31535e-05
2.61783e-05
2.0859e-05
1.80987e-05
2.15634e-05
2.72481e-05
3.04424e-05
2.87921e-05
2.16581e-05
2.83028e-05
3.0364e-05
1.55971e-05
1.99507e-05
5.04867e-05
8.69797e-05
9.57842e-05
7.71129e-05
5.38222e-05
3.95468e-05
3.19244e-05
2.85581e-05
3.00572e-05
3.25767e-05
3.29816e-05
3.53717e-05
3.57575e-05
3.23019e-05
2.68166e-05
2.54171e-05
2.60664e-05
2.42097e-05
2.21015e-05
2.22136e-05
2.73854e-05
3.48513e-05
4.36144e-05
5.29749e-05
5.73936e-05
5.24783e-05
4.06701e-05
3.09932e-05
2.93926e-05
3.1568e-05
2.94844e-05
2.3333e-05
2.37964e-05
2.76184e-05
2.59917e-05
2.40003e-05
1.71434e-05
2.54645e-05
1.57767e-05
2.10609e-05
2.30506e-05
4.57359e-05
8.65062e-05
9.00087e-05
6.98169e-05
4.96738e-05
3.80584e-05
3.07693e-05
2.85527e-05
3.05337e-05
3.12462e-05
3.53933e-05
3.89105e-05
3.8019e-05
3.197e-05
2.46337e-05
2.22147e-05
2.19814e-05
2.04298e-05
2.0195e-05
2.4635e-05
3.02873e-05
2.69304e-05
1.94063e-05
2.90015e-05
3.81156e-05
3.54017e-05
2.7642e-05
2.74752e-05
3.65555e-05
4.458e-05
4.08405e-05
2.91609e-05
2.62507e-05
2.82686e-05
2.05369e-05
2.14693e-05
1.43457e-05
2.87697e-05
1.17532e-05
3.38528e-05
2.85887e-05
4.85885e-05
8.65271e-05
8.63754e-05
6.57066e-05
4.72877e-05
3.6675e-05
3.02169e-05
2.90492e-05
2.70994e-05
3.1952e-05
3.91502e-05
4.2467e-05
3.88022e-05
2.88608e-05
1.84139e-05
1.71911e-05
1.90354e-05
1.9102e-05
2.05663e-05
2.72056e-05
3.31126e-05
2.74809e-05
1.29404e-05
1.87538e-05
2.79351e-05
2.7821e-05
2.66967e-05
3.20133e-05
4.11052e-05
4.7118e-05
3.93543e-05
2.59211e-05
2.29378e-05
2.32667e-05
1.24963e-05
2.1062e-05
1.23757e-05
3.00627e-05
1.29177e-05
3.84955e-05
2.74636e-05
5.12514e-05
8.64605e-05
8.33394e-05
6.04441e-05
4.33542e-05
3.35873e-05
2.79382e-05
2.16885e-05
2.49998e-05
3.34387e-05
3.95996e-05
4.02999e-05
3.53856e-05
2.56137e-05
1.77682e-05