/*--------------------------------*- C++ -*----------------------------------*\
| =========                 |                                                 |
| \\      /  F ield         | OpenFOAM: The Open Source CFD Toolbox           |
|  \\    /   O peration     | Version:  2306                                  |
|   \\  /    A nd           | Website:  www.openfoam.com                      |
|    \\/     M anipulation  |                                                 |
\*---------------------------------------------------------------------------*/
FoamFile
{
    version     2.0;
    format      ascii;
    arch        "LSB;label=32;scalar=64";
    class       surfaceScalarField;
    location    "1";
    object      phi;
}
// * * * * * * * * * * * * * * * * * * * * * * * * * * * * * * * * * * * * * //

dimensions      [0 3 -1 0 0 0 0];

oriented        oriented;

internalField   nonuniform List<scalar> 
175300
(
6.7166e-06
-3.17467e-07
2.20969e-06
6.67612e-06
-6.24703e-07
2.25373e-06
6.6007e-06
-6.11384e-07
2.17746e-06
6.49484e-06
-4.40918e-07
2.04469e-06
6.33517e-06
-2.8689e-07
1.83543e-06
6.04975e-06
-1.61707e-07
1.5663e-06
5.55912e-06
-4.67755e-08
1.35049e-06
4.88296e-06
-1.94339e-08
1.30335e-06
4.21289e-06
-2.16739e-07
1.40884e-06
3.80176e-06
-6.24957e-07
1.55688e-06
3.69746e-06
-9.33995e-07
1.64083e-06
3.76607e-06
-9.52092e-07
1.59542e-06
3.85598e-06
-7.78649e-07
1.35876e-06
3.91059e-06
-5.12694e-07
9.59271e-07
3.9732e-06
-2.16652e-07
5.14648e-07
4.09634e-06
3.64689e-08
1.21702e-07
4.28164e-06
2.08557e-07
-1.90459e-07
4.49592e-06
2.61706e-07
-4.46036e-07
4.73479e-06
2.14316e-07
-6.71722e-07
5.0003e-06
6.35087e-08
-9.13336e-07
5.33279e-06
-1.20328e-07
-1.21049e-06
5.71405e-06
-2.04764e-07
-1.56532e-06
6.02097e-06
-1.42899e-07
-1.87437e-06
6.11596e-06
-6.1911e-08
-2.0038e-06
5.9198e-06
-4.61815e-09
-1.9765e-06
5.44483e-06
6.77109e-08
-1.91622e-06
4.85986e-06
1.50872e-09
-1.84244e-06
4.40161e-06
-2.98111e-07
-1.76314e-06
4.13817e-06
-5.45671e-07
-1.7946e-06
4.02337e-06
-5.00715e-07
-1.95983e-06
4.06526e-06
-2.86074e-07
-2.04033e-06
4.27609e-06
1.02769e-08
-1.83139e-06
4.62274e-06
4.07352e-07
-1.35531e-06
5.02837e-06
8.41702e-07
-8.14263e-07
5.4482e-06
1.14668e-06
-4.06619e-07
5.86924e-06
1.21293e-06
-7.03225e-08
6.27167e-06
1.20562e-06
2.2552e-07
6.54463e-06
1.16098e-06
6.73169e-07
6.67629e-06
8.53001e-07
1.30147e-06
2.69055e-07
1.8959e-06
2.29125e-05
-1.66022e-06
6.28684e-06
2.2677e-05
-2.44971e-06
6.25493e-06
2.23439e-05
-2.2885e-06
6.113e-06
2.19811e-05
-1.71913e-06
5.9616e-06
2.14451e-05
-1.19666e-06
5.57142e-06
2.04669e-05
-6.89822e-07
4.86334e-06
1.88722e-05
-2.24911e-07
4.18022e-06
1.67945e-05
-1.46968e-07
3.96959e-06
1.47568e-05
-8.73021e-07
4.28024e-06
1.33712e-05
-2.23854e-06
4.75029e-06
1.27803e-05
-3.22218e-06
4.94714e-06
1.26777e-05
-3.23372e-06
4.64705e-06
1.2718e-05
-2.60108e-06
3.82181e-06
1.27974e-05
-1.68502e-06
2.67433e-06
1.30043e-05
-7.08034e-07
1.50483e-06
1.34193e-05
8.81445e-08
4.76721e-07
1.4045e-05
5.57326e-07
-3.82551e-07
1.48294e-05
6.06489e-07
-1.14159e-06
1.57526e-05
3.05992e-07
-1.8519e-06
1.68165e-05
-3.01249e-07
-2.62075e-06
1.80558e-05
-9.35121e-07
-3.5491e-06
1.9344e-05
-1.1662e-06
-4.61063e-06
2.03491e-05
-9.17246e-07
-5.49034e-06
2.06948e-05
-5.91482e-07
-5.81616e-06
2.01335e-05
-3.33456e-07
-5.60679e-06
1.87421e-05
-1.49505e-07
-5.19633e-06
1.7e-05
-4.56706e-07
-4.86004e-06
1.54365e-05
-1.30661e-06
-4.80713e-06
1.42473e-05
-1.87232e-06
-5.19652e-06
1.35406e-05
-1.69708e-06
-5.80898e-06
1.34976e-05
-1.11195e-06
-5.99286e-06
1.41239e-05
-1.95801e-07
-5.25183e-06
1.52171e-05
1.17718e-06
-3.77786e-06
1.65293e-05
2.68963e-06
-2.18069e-06
1.79286e-05
3.72724e-06
-9.04934e-07
1.93543e-05
3.99435e-06
1.55598e-07
2.07173e-05
3.8917e-06
1.18844e-06
2.18022e-05
3.39622e-06
2.63028e-06
2.25345e-05
2.05238e-06
4.35846e-06
8.361e-08
5.72932e-06
4.33382e-05
-4.00966e-06
1.02657e-05
4.2767e-05
-5.27057e-06
9.96295e-06
4.20475e-05
-4.86373e-06
9.61662e-06
4.13836e-05
-3.74131e-06
9.56378e-06
4.04953e-05
-2.68165e-06
9.31914e-06
3.89022e-05
-1.58667e-06
8.42924e-06
3.6347e-05
-5.75385e-07
7.24374e-06
3.29569e-05
-3.31971e-07
6.61641e-06
2.93135e-05
-1.58138e-06
6.96087e-06
2.63297e-05
-4.12233e-06
7.85521e-06
2.45755e-05
-6.18711e-06
8.39044e-06
2.38436e-05
-6.45437e-06
7.96748e-06
2.35752e-05
-5.31598e-06
6.63053e-06
2.35307e-05
-3.53822e-06
4.8451e-06
2.38073e-05
-1.6576e-06
3.06985e-06
2.45118e-05
-1.50943e-07
1.47449e-06
2.56476e-05
6.04116e-07
1.46277e-07
2.71412e-05
5.67348e-07
-1.14682e-06
2.89522e-05
-2.33261e-07
-2.31047e-06
3.10806e-05
-1.70394e-06
-3.53702e-06
3.35325e-05
-3.18759e-06
-5.05243e-06
3.60463e-05
-3.70964e-06
-6.91123e-06
3.80862e-05
-3.10504e-06
-8.63056e-06
3.90537e-05
-2.21461e-06
-9.47071e-06
3.84904e-05
-1.42615e-06
-9.21546e-06
3.64227e-05
-9.31861e-07
-8.30714e-06
3.35128e-05
-1.47808e-06
-7.42284e-06
3.0529e-05
-2.90084e-06
-7.20225e-06
2.78435e-05
-3.71476e-06
-7.9445e-06
2.58296e-05
-3.36557e-06
-9.24671e-06
2.50589e-05
-2.5024e-06
-9.99748e-06
2.57507e-05
-1.09478e-06
-9.17341e-06
2.75632e-05
1.34464e-06
-6.89393e-06
2.99684e-05
4.27157e-06
-4.18668e-06
3.26475e-05
6.4183e-06
-1.85675e-06
3.54447e-05
7.05132e-06
1.7446e-07
3.81968e-05
6.90718e-06
2.07604e-06
4.05812e-05
5.69396e-06
4.55834e-06
4.23629e-05
2.81428e-06
7.3939e-06
-9.42963e-07
9.54189e-06
6.80999e-05
-7.16258e-06
1.41608e-05
6.70013e-05
-8.61364e-06
1.34407e-05
6.57219e-05
-7.9434e-06
1.2447e-05
6.47383e-05
-6.25491e-06
1.22885e-05
6.365e-05
-4.53543e-06
1.25174e-05
6.17522e-05
-2.73104e-06
1.20084e-05
5.87009e-05
-1.08411e-06
1.05324e-05
5.44715e-05
-5.33482e-07
9.15437e-06
4.92778e-05
-1.94649e-06
9.05962e-06
4.39918e-05
-5.35373e-06
1.03536e-05
3.99519e-05
-8.78683e-06
1.17521e-05
3.77084e-05
-9.99689e-06
1.1733e-05
3.66429e-05
-8.78577e-06
1.01175e-05
3.618e-05
-6.20578e-06
7.80656e-06
3.63131e-05
-3.35376e-06
5.57606e-06
3.71639e-05
-1.06648e-06
3.58952e-06
3.87355e-05
4.30118e-08
1.83075e-06
4.09202e-05
-3.06853e-07
3.67309e-07
4.36726e-05
-1.92559e-06
-1.11983e-06
4.70325e-05
-4.85145e-06
-2.52097e-06
5.10176e-05
-7.92822e-06
-4.36523e-06
5.52154e-05
-9.16089e-06
-7.05468e-06
5.88546e-05
-8.0242e-06
-1.01247e-05
6.1131e-05
-5.97633e-06
-1.23148e-05
6.13269e-05
-3.91538e-06
-1.27486e-05
5.92072e-05
-2.48519e-06
-1.15894e-05
5.54117e-05
-2.99942e-06
-9.82985e-06
5.0933e-05
-4.92527e-06
-8.83785e-06
4.63403e-05
-5.82085e-06
-9.48533e-06
4.21691e-05
-5.09434e-06
-1.1501e-05
3.94594e-05
-4.06035e-06
-1.34726e-05
3.91331e-05
-2.76382e-06
-1.36243e-05
4.11429e-05
-3.00029e-08
-1.13804e-05
4.46579e-05
3.90279e-06
-7.86e-06
4.89557e-05
7.14814e-06
-4.43062e-06
5.3626e-05
8.30354e-06
-1.17025e-06
5.83536e-05
8.47187e-06
1.84098e-06
6.2677e-05
6.82685e-06
5.44938e-06
6.61098e-05
2.38315e-06
9.63103e-06
-3.1027e-06
1.29753e-05
9.65473e-05
-1.1227e-05
1.76761e-05
9.46393e-05
-1.18563e-05
1.69829e-05
9.25023e-05
-1.07836e-05
1.48863e-05
9.12128e-05
-8.86405e-06
1.38817e-05
9.02445e-05
-6.54117e-06
1.44667e-05
8.8546e-05
-3.92668e-06
1.50389e-05
8.56814e-05
-1.65422e-06
1.403e-05
8.15084e-05
-7.88983e-07
1.18468e-05
7.55596e-05
-1.89224e-06
1.0515e-05
6.792e-05
-5.246e-06
1.1606e-05
6.03963e-05
-9.69271e-06
1.43114e-05
5.51375e-05
-1.26435e-05
1.57399e-05
5.22949e-05
-1.24615e-05
1.44034e-05
5.08807e-05
-9.60021e-06
1.16083e-05
5.04755e-05
-5.86499e-06
8.9819e-06
5.10962e-05
-2.8121e-06
6.89272e-06
5.27072e-05
-1.34092e-06
5.12267e-06
5.51473e-05
-1.98858e-06
3.65391e-06
5.83804e-05
-4.88993e-06
2.54674e-06
6.26471e-05
-1.02082e-05
1.67428e-06
6.82397e-05
-1.6229e-05
2.34327e-07
7.47079e-05
-1.93657e-05
-2.83491e-06
8.08858e-05
-1.78184e-05
-7.72964e-06
8.56159e-05
-1.37742e-05
-1.26253e-05
8.78343e-05
-9.06797e-06
-1.53847e-05
8.67965e-05
-5.28494e-06
-1.51285e-05
8.28535e-05
-4.96883e-06
-1.26912e-05
7.7248e-05
-7.30308e-06
-1.02732e-05
7.08939e-05
-8.1836e-06
-9.91139e-06
6.43252e-05
-6.62819e-06
-1.2029e-05
5.86096e-05
-5.03921e-06
-1.53137e-05
5.54268e-05
-4.17862e-06
-1.75079e-05
5.58788e-05
-2.40975e-06
-1.69335e-05
5.95357e-05
8.80786e-07
-1.39067e-05
6.53081e-05
3.90381e-06
-1.00158e-05
7.22872e-05
5.01172e-06
-5.88582e-06
7.96711e-05
5.39987e-06
-9.5214e-07
8.67009e-05
4.65957e-06
3.7764e-06
9.26274e-05
-6.03223e-07
9.68743e-06
-7.22804e-06
1.50613e-05
0.000126853
-1.75924e-05
1.92299e-05
0.000123899
-1.48283e-05
2.04071e-05
0.000120241
-1.22853e-05
1.78314e-05
0.000118608
-1.09771e-05
1.50692e-05
0.000118369
-8.77339e-06
1.49199e-05
0.000117605
-5.20072e-06
1.66574e-05
0.000115597
-2.09776e-06
1.73484e-05
0.000112518
-1.13527e-06
1.52109e-05
0.000107449
-1.84907e-06
1.19753e-05
9.89497e-05
-4.02253e-06
1.14246e-05
8.78917e-05
-8.01225e-06
1.49263e-05
7.78839e-05
-1.25891e-05
1.89732e-05
7.14044e-05
-1.48582e-05
1.92442e-05
6.7989e-05
-1.30596e-05
1.62081e-05
6.64794e-05
-8.85225e-06
1.29219e-05
6.6353e-05
-5.04939e-06
1.07496e-05
6.73333e-05
-3.16338e-06
9.3569e-06
6.90803e-05
-4.00685e-06
8.47335e-06
7.14646e-05
-8.3428e-06
8.35045e-06
7.50264e-05
-1.69878e-05
9.08543e-06
8.08749e-05
-2.7904e-05
9.53905e-06
8.92979e-05
-3.50529e-05
7.41916e-06
9.91447e-05
-3.48614e-05
1.52385e-06
0.000108524
-2.8669e-05
-7.16887e-06
0.000115157
-1.95241e-05
-1.46497e-05
0.000117177
-1.07193e-05
-1.77445e-05
0.000114407
-7.67679e-06
-1.61104e-05
0.000108479
-1.00331e-05
-1.2414e-05
0.000101111
-1.10911e-05
-1.01357e-05
9.30218e-05
-8.31462e-06
-1.1137e-05
8.47672e-05
-5.30009e-06
-1.48095e-05
7.77767e-05
-4.13009e-06
-1.89903e-05
7.42153e-05
-3.45874e-06
-2.14117e-05
7.52383e-05
-2.39616e-06
-2.11476e-05
8.04706e-05
-2.41413e-06
-1.88063e-05
8.87887e-05
-3.84426e-06
-1.49604e-05
9.86733e-05
-4.18991e-06
-9.50319e-06
0.000108777
-4.72686e-06
-2.37728e-06
0.000118332
-8.77257e-06
5.06755e-06
-1.55611e-05
1.341e-05
0.000154942
-3.00453e-05
1.5607e-05
0.000152103
-1.92972e-05
2.16079e-05
0.000145516
-1.11798e-05
2.1457e-05
0.000142669
-1.11553e-05
1.75971e-05
0.000144225
-1.17742e-05
1.50714e-05
0.000145843
-7.60318e-06
1.64566e-05
0.000145217
-2.4884e-06
1.94179e-05
0.000143626
-1.36278e-06
1.94009e-05
0.000141271
-2.75986e-06
1.49184e-05
0.000135158
-3.54895e-06
1.09634e-05
0.000123343
-4.90626e-06
1.31553e-05
0.000108595
-8.86757e-06
1.97573e-05
9.61118e-05
-1.36314e-05
2.35221e-05
8.84768e-05
-1.4805e-05
2.15299e-05
8.48443e-05
-1.1552e-05
1.74188e-05
8.35975e-05
-7.29561e-06
1.45875e-05
8.36485e-05
-4.83937e-06
1.32941e-05
8.42052e-05
-5.511e-06
1.29278e-05
8.47739e-05
-1.08895e-05
1.37761e-05
8.58188e-05
-2.29201e-05
1.64449e-05
8.92974e-05
-3.97819e-05
1.97695e-05
9.68673e-05
-5.29367e-05
2.0337e-05
0.000108322
-5.56383e-05
1.52927e-05
0.000122588
-4.96363e-05
5.12923e-06
0.000136738
-3.73126e-05
-7.41642e-06
0.000145531
-2.15684e-05
-1.63425e-05
0.000146248
-1.241e-05
-1.83013e-05
0.000141124
-1.32035e-05
-1.51978e-05
0.000133815
-1.46512e-05
-1.1287e-05
0.00012592
-1.06671e-05
-1.00204e-05
0.000117411
-5.47592e-06
-1.24245e-05
0.00010846
-2.75117e-06
-1.71917e-05
0.000100641
-1.53384e-06
-2.21747e-05
9.63458e-05
-1.83303e-06
-2.60616e-05
9.74069e-05
-6.63364e-06
-2.81065e-05
0.000103975
-1.44272e-05
-2.71694e-05
0.000113929
-1.84239e-05
-2.24923e-05
0.000124783
-1.86709e-05
-1.50832e-05
0.000136647
-2.29973e-05
-5.66038e-06
-3.09373e-05
5.15342e-06
0.000175941
-5.00326e-05
6.65434e-06
0.000177526
-2.98508e-05
1.8523e-05
0.000168588
-9.10517e-06
2.35722e-05
0.000161213
-6.25825e-06
2.14403e-05
0.000163319
-1.35188e-05
1.65503e-05
0.000169719
-1.30595e-05
1.51416e-05
0.000171774
-4.34342e-06
1.88152e-05
0.000169509
-5.05537e-08
2.27156e-05
0.000168789
-4.32315e-06
2.04886e-05
0.00016902
-8.07525e-06
1.32889e-05
0.000163129
-6.20702e-06
1.09896e-05
0.000148468
-4.78894e-06
1.76014e-05
0.000130073
-8.09769e-06
2.53627e-05
0.000115111
-1.19503e-05
2.65787e-05
0.000106773
-1.19045e-05
2.2735e-05
0.000103661
-8.94818e-06
1.89076e-05
0.00010323
-6.50542e-06
1.68854e-05
0.000103674
-6.89622e-06
1.61273e-05
0.000103834
-1.25842e-05
1.6754e-05
0.000103148
-2.63793e-05
1.99303e-05
0.000102988
-4.74613e-05
2.56257e-05
0.000106513
-6.67082e-05
3.03628e-05
0.000115596
-7.3896e-05
2.87231e-05
0.000130386
-6.93987e-05
1.89479e-05
0.000149594
-5.67239e-05
4.50416e-06
0.000166578
-3.73433e-05
-9.44936e-06
0.000172726
-2.0348e-05
-1.63224e-05
0.000167497
-1.51257e-05
-1.62069e-05
0.000158601
-1.5659e-05
-1.27769e-05
0.000152489
-1.33348e-05
-9.48898e-06
0.000148802
-8.26305e-06
-9.00866e-06
0.000143787
-2.79055e-06
-1.23893e-05
0.000135973
2.37277e-06
-1.8298e-05
0.000127462
4.19556e-06
-2.5495e-05
0.000122008
-3.45287e-06
-3.32047e-05
0.000123115
-1.94442e-05
-3.84534e-05
0.000130522
-3.13057e-05
-3.74098e-05
0.000140067
-3.35214e-05
-3.04472e-05
0.000150324
-3.76156e-05
-2.01034e-05
-4.88776e-05
-7.49721e-06
0.000192958
-6.97751e-05
-4.11085e-06
0.000200736
-4.7896e-05
1.2813e-05
0.000194848
-1.29877e-05
2.31018e-05
0.000182643
1.32349e-06
2.41234e-05
0.000178844
-8.96191e-06
1.83167e-05
0.000187302
-1.85623e-05
1.29783e-05
0.000195981
-1.08847e-05
1.43745e-05
0.00019431
1.35418e-06
2.0799e-05
0.000187897
-7.47468e-07
2.40569e-05
0.000188867
-1.4406e-05
1.88545e-05
0.000194873
-1.98939e-05
1.22727e-05
0.000191662
-1.20788e-05
1.52621e-05
0.000174593
-4.80881e-06
2.46276e-05
0.00015251
-4.49368e-06
2.96276e-05
0.000135782
-6.54504e-06
2.78359e-05
0.000127903
-7.33072e-06
2.40579e-05
0.000126495
-7.61121e-06
2.13308e-05
0.000128133
-9.37466e-06
1.95311e-05
0.000130161
-1.53394e-05
1.8563e-05
0.000130396
-2.85998e-05
2.00914e-05
0.000128366
-4.99172e-05
2.59188e-05
0.000126974
-7.24371e-05
3.44727e-05
0.000130517
-8.46431e-05
3.87207e-05
0.000141732
-8.37388e-05
3.2502e-05
0.000160935
-7.35051e-05
1.72089e-05
0.00018217
-5.413e-05
1.40028e-07
0.00019231
-2.99631e-05
-1.1605e-05
0.000184503
-1.31421e-05
-1.48465e-05
0.000168301
-7.47133e-06
-1.24899e-05
0.000158305
-8.65654e-06
-7.65101e-06
0.000160103
-1.13973e-05
-3.84892e-06
0.000167646
-9.21826e-06
-4.23947e-06
0.000170675
1.54458e-06
-9.57319e-06
0.000165642
1.17732e-05
-1.87478e-05
0.000156855
7.05349e-06
-3.10421e-05
0.000151111
-1.41326e-05
-4.36378e-05
0.000152897
-3.5969e-05
-4.98839e-05
0.000160207
-4.42545e-05
-4.62785e-05
0.000168838
-4.90198e-05
-3.53776e-05
-6.28868e-05
-2.04502e-05
0.000211917
-8.44113e-05
-1.4574e-05
0.000223053
-6.95715e-05
4.95504e-06
0.00022408
-2.73376e-05
1.94221e-05
0.00021306
2.65325e-06
2.44095e-05
0.000201217
-3.01589e-08
1.9895e-05
0.000201985
-1.72882e-05
1.14811e-05
0.000214214
-1.96907e-05
8.00915e-06
0.000221821
-4.10856e-06
1.28694e-05
0.00021573
4.57898e-06
1.97219e-05
0.000207155
-1.08881e-05
2.01206e-05
0.000212106
-3.38844e-05
1.47005e-05
0.000223959
-3.57365e-05
1.45281e-05
0.000221501
-1.73667e-05
2.31248e-05
0.00020099
-1.12785e-06
3.04735e-05
0.000176551
3.58897e-06
3.09028e-05
0.000160244
1.2362e-06
2.83751e-05
0.000154418
-4.22154e-06
2.64911e-05
0.00015608
-1.15549e-05
2.47081e-05
0.000161093
-2.10497e-05
2.18653e-05
0.000164578
-3.333e-05
1.96912e-05
0.000163099
-5.04471e-05
2.25576e-05
0.000158243
-7.11532e-05
3.24653e-05
0.000155568
-8.63549e-05
4.26256e-05
0.00016053
-8.98559e-05
4.22659e-05
0.000175536
-8.38706e-05
2.87975e-05
0.000195696
-6.75674e-05
9.75574e-06
0.000207234
-3.85789e-05
-6.53226e-06
0.000199561
-9.25627e-06
-1.35489e-05
0.000179449
6.82918e-06
-1.23254e-05
0.000163438
5.20188e-06
-5.3527e-06
0.000162136
-7.17396e-06
2.92864e-06
0.000175176
-1.49841e-05
6.98613e-06
0.000191715
-5.50928e-06
3.87894e-06
0.000199396
1.32082e-05
-5.84706e-06
0.000195904
1.90397e-05
-2.1498e-05
0.000188171
-4.16121e-07
-4.02078e-05
0.000183968
-2.93219e-05
-5.5126e-05
0.000185888
-4.58122e-05
-5.90325e-05
0.00019204
-5.38549e-05
-5.08398e-05
-7.00234e-05
-3.43964e-05
0.000234635
-9.05455e-05
-2.7342e-05
0.000246061
-8.70581e-05
-5.66345e-06
0.000252448
-4.96053e-05
1.20187e-05
0.000247646
-8.37137e-06
2.07695e-05
0.000234349
4.28402e-06
1.9965e-05
0.000224383
-8.80096e-06
1.14781e-05
0.000228421
-2.10261e-05
3.43638e-06
0.000242046
-1.41756e-05
3.82211e-06
0.000248866
-2.13512e-07
1.12252e-05
0.000241468
-5.69505e-06
1.65214e-05
0.000234408
-3.4066e-05
1.46323e-05
0.000243581
-5.53334e-05
1.30691e-05
0.000256093
-4.36507e-05
2.01812e-05
0.000249874
-1.2755e-05
2.91344e-05
0.000227093
9.14627e-06
3.12923e-05
0.000204085
1.42916e-05
2.97698e-05
0.000190449
7.51221e-06
2.96938e-05
0.00018784
-7.63576e-06
2.99516e-05
0.000194276
-2.73758e-05
2.66654e-05
0.00020312
-4.3766e-05
1.98724e-05
0.000205467
-5.44182e-05
1.63312e-05
0.000199089
-6.63743e-05
2.41052e-05
0.000190294
-7.99922e-05
3.94399e-05
0.000187185
-8.69085e-05
4.69661e-05
0.000194581
-8.46875e-05
3.75677e-05
0.000209844
-7.22704e-05
1.77768e-05
0.000221159
-4.34859e-05
-7.26124e-07
0.000217203
-6.13663e-06
-1.15504e-05
0.000200624
1.96185e-05
-1.32608e-05
0.00018382
2.07299e-05
-6.63362e-06
0.000177138
3.05379e-06
4.84252e-06
0.000185225
-1.40677e-05
1.44884e-05
0.000204224
-1.17191e-05
1.65788e-05
0.000222759
8.61972e-06
9.76402e-06
0.000230978
2.41375e-05
-6.11345e-06
0.000229242
1.42954e-05
-2.84648e-05
0.000224199
-1.49119e-05
-5.08464e-05
0.000220307
-3.71983e-05
-6.4494e-05
0.000220008
-4.95391e-05
-6.39921e-05
-6.87449e-05
-4.97405e-05
0.000262532
-8.83024e-05
-4.29002e-05
0.000272899
-9.6321e-05
-1.78234e-05
0.000279959
-7.0945e-05
1.7986e-06
0.000279244
-2.90651e-05
1.34429e-05
0.000269966
-1.82721e-06
1.70023e-05
0.000256708
-6.15943e-07
1.16474e-05
0.000250104
-1.29359e-05
1.82661e-06
0.000257979
-1.88453e-05
-1.91791e-06
0.000273027
-1.32554e-05
4.73288e-06
0.000278019
-1.23861e-05
1.37879e-05
0.000269623
-3.15936e-05
1.48169e-05
0.000266324
-5.95964e-05
1.10288e-05
0.000277808
-6.40217e-05
1.46885e-05
0.000286048
-3.47092e-05
2.44507e-05
0.000275782
1.9041e-06
2.89118e-05
0.000254254
2.26356e-05
2.79721e-05
0.000234851
2.36798e-05
2.9e-05
0.000224844
6.96814e-06
3.07177e-05
0.000228064
-2.47557e-05
2.66397e-05
0.000241952
-5.46379e-05
1.5761e-05
0.000253046
-6.41881e-05
5.39783e-06
0.000249762
-6.25606e-05
8.5977e-06
0.000236112
-6.73028e-05
2.72918e-05
0.000223633
-7.52608e-05
4.49904e-05
0.000220541
-7.51749e-05
4.37665e-05
0.000227771
-6.48767e-05
2.54873e-05
0.000237257
-4.0379e-05
5.81012e-06
0.000238219
-2.83425e-06
-8.148e-06
0.000228649
2.79449e-05
-1.44957e-05
0.000215899
3.27535e-05
-1.24131e-05
0.000207705
1.40302e-05
-1.28432e-06
0.000209183
-7.16157e-06
1.16531e-05
0.000221545
-1.13566e-05
2.01211e-05
0.000240657
3.82005e-06
1.98558e-05
0.000258454
2.00317e-05
9.87564e-06
0.000268296
1.85818e-05
-1.19257e-05
0.000269105
-1.98121e-06
-3.86947e-05
0.000263393
-2.22544e-05
-6.13219e-05
0.000256204
-3.71749e-05
-7.10482e-05
-6.02839e-05
-6.41236e-05
0.000298418
-8.13345e-05
-5.7208e-05
0.000306445
-9.63395e-05
-3.1622e-05
0.000309786
-8.24785e-05
-1.04601e-05
0.000307072
-4.86605e-05
3.23007e-06
0.000300875
-1.53994e-05
1.07328e-05
0.000291911
1.12279e-06
1.04838e-05
0.000283235
-1.94288e-06
2.1846e-06
0.000283639
-1.4599e-05
-4.42726e-06
0.000296113
-2.34557e-05
5.63692e-07
0.00030788
-2.56765e-05
1.17381e-05
0.000305759
-3.36951e-05
1.54065e-05
0.000296887
-5.48692e-05
9.11755e-06
0.00029827
-6.9274e-05
6.92789e-06
0.000307392
-5.23503e-05
1.56094e-05
0.000306864
-1.38037e-05
2.48939e-05
0.000292087
1.91932e-05
2.81032e-05
0.000273798
3.22482e-05
2.89327e-05
0.000261647
2.33228e-05
2.6418e-05
0.000260224
-9.17817e-06
1.56921e-05
0.000273911
-5.31216e-05
7.96956e-08
0.000295626
-7.57274e-05
-1.14553e-05
0.000303953
-6.62744e-05
-1.04581e-05
0.000290727
-5.41529e-05
1.0103e-05
0.00026928
-5.68991e-05
3.65358e-05
0.000254563
-5.79433e-05
4.6573e-05
0.000252349
-4.71711e-05
3.31779e-05
0.000258229
-2.53892e-05
1.17958e-05
0.000262581
5.79403e-06
-4.11755e-06
0.000260077
3.30133e-05
-1.43452e-05
0.000253382
3.85222e-05
-1.92667e-05
0.000247669
2.10876e-05
-1.40612e-05
0.000246647
2.32937e-07
-6.4168e-07
0.000251587
-5.57167e-06
1.22275e-05
0.000263235
3.93133e-06
1.86248e-05
0.000281723
1.14382e-05
1.63255e-05
0.000301608
7.17413e-06
2.82452e-06
0.000312663
-1.63892e-06
-2.40163e-05
0.000309687
-8.80285e-06
-5.30953e-05
0.00029949
-2.07649e-05
-7.23099e-05
-4.83463e-05
-7.39072e-05
0.000343788
-6.97182e-05
-6.8169e-05
0.000347991
-8.58864e-05
-4.54057e-05
0.000344746
-7.96933e-05
-2.45672e-05
0.000335742
-5.8064e-05
-9.60371e-06
0.000328374
-2.91275e-05
3.08959e-06
0.000323955
-3.24346e-06
9.54404e-06
0.00031998
6.47366e-06
4.49282e-06
0.000319495
-4.63617e-06
-4.10206e-06
0.000327815
-2.48936e-05
-2.25885e-06
0.000339855
-3.57947e-05
9.7014e-06
0.000342425
-3.69142e-05
1.64255e-05
0.000332355
-4.45814e-05
9.01622e-06
0.00032124
-5.78502e-05
1.04918e-07
0.00031662
-5.39497e-05
5.55739e-06
0.000312292
-2.52926e-05
1.99469e-05
0.000304139
7.1989e-06
2.97369e-05
0.000297649
2.64077e-05
2.8175e-05
0.000296009
2.86854e-05
1.48698e-05
0.000296109
7.62362e-06
-4.77881e-06
0.000302921
-3.76211e-05
-2.08121e-05
0.000325405
-8.07817e-05
-2.59135e-05
0.000348325
-8.28635e-05
-1.92478e-05
0.000345676
-5.67628e-05
7.01448e-07
0.000320349
-4.14066e-05
2.93639e-05
0.00029417
-3.74158e-05
4.73833e-05
0.000282826
-2.61354e-05
4.16133e-05
0.000286404
-5.84009e-06
2.00627e-05
0.000295114
1.74752e-05
-1.65702e-08
0.000299837
3.45266e-05
-1.38088e-05
0.000299148
3.56027e-05
-2.38674e-05
0.000297238
1.97585e-05
-2.65306e-05
0.000297125
2.06139e-06
-1.85429e-05
0.000298776
-1.46067e-06
-5.17278e-06
0.000303016
6.28232e-06
6.03062e-06
0.000314449
4.79237e-06
1.09853e-05
0.00033406
-8.36021e-06
5.86213e-06
0.000351911
-1.19449e-05
-1.45457e-05
0.000355415
-3.51367e-06
-4.40552e-05
0.000347497
-6.44182e-06
-6.9628e-05
-3.49435e-05
-7.91187e-05
0.000396309
-5.29305e-05
-7.43508e-05
0.00039828
-6.71459e-05
-5.72275e-05
0.000390615
-6.56325e-05
-3.88079e-05
0.000374799
-5.6367e-05
-2.29024e-05
0.000361727
-3.66027e-05
-6.67847e-06
0.000356364
-7.87912e-06
6.42103e-06
0.000355893
1.24885e-05
7.0848e-06
0.00035858
7.11748e-06
-1.30183e-07
0.000366034
-1.82802e-05
-1.13806e-06
0.000376315
-3.78888e-05
9.31133e-06
0.00037989
-3.81785e-05
1.89546e-05
0.00036901
-3.38636e-05
1.36176e-05
0.000347848
-3.73909e-05
-8.24416e-07
0.000327906
-3.68333e-05
-5.62473e-06
0.000316127
-2.07857e-05
3.36785e-06
0.000314373
1.23453e-06
1.19811e-05
0.000322115
1.61675e-05
8.32172e-06
0.0003333
2.24863e-05
-7.19134e-06
0.000339789
1.50483e-05
-2.70138e-05
0.000343298
-1.93888e-05
-3.83087e-05
0.000357577
-7.287e-05
-3.31203e-05
0.000382434
-9.89313e-05
-1.62032e-05
0.000390776
-7.54694e-05
6.01152e-06
0.00036953
-3.94949e-05
3.1083e-05
0.000337264
-2.02748e-05
4.94134e-05
0.000318281
-6.83644e-06
4.85715e-05
0.000318385
1.00246e-05
2.94455e-05
0.00032761
2.63401e-05
6.87292e-06
0.000334245
3.53786e-05
-1.01675e-05
0.000335376
3.14293e-05
-2.13013e-05
0.000336577
1.46293e-05
-2.82285e-05
0.000341786
-2.76795e-06
-2.84209e-05
0.000348332
-5.39403e-06
-2.00303e-05
0.000352685
3.33447e-06
-6.11769e-06
0.000356996
2.65984e-06
5.02344e-06
0.000366807
-1.18814e-05
3.94012e-06
0.000382617
-1.71892e-05
-1.23434e-05
0.000394951
-4.91567e-06
-3.83431e-05
0.000397367
-3.56381e-07
-6.40031e-05
-2.24286e-05
-7.82239e-05
0.000452099
-3.3571e-05
-7.49155e-05
0.000454707
-4.48276e-05
-6.68474e-05
0.000448176
-4.73623e-05
-5.24856e-05
0.000428223
-4.65563e-05
-3.67266e-05
0.000406351
-3.52389e-05
-1.89271e-05
0.000394852
-8.76399e-06
-1.1949e-06
0.000394324
1.64878e-05
8.62625e-06
0.000399506
1.73302e-05
8.17863e-06
0.000406704
-6.83079e-06
5.61828e-06
0.000414067
-3.12326e-05
9.97963e-06
0.000417018
-3.61413e-05
1.94227e-05
0.00040886
-2.8701e-05
2.07205e-05
0.00038919
-2.29024e-05
7.7152e-06
0.000366971
-1.7535e-05
-8.62132e-06
0.000353611
-7.02807e-06
-1.56227e-05
0.000353862
3.51411e-06
-1.35815e-05
0.000364698
7.8392e-06
-1.10877e-05
0.000379048
1.01209e-05
-1.62106e-05
0.0003905
1.12531e-05
-3.03484e-05
0.00039821
-5.5655e-06
-4.19608e-05
0.000407723
-5.08122e-05
-3.75082e-05
0.000423259
-9.34733e-05
-1.64389e-05
0.000431075
-8.80796e-05
9.28462e-06
0.000415038
-4.53303e-05
3.15403e-05
0.000383913
-7.48871e-06
4.7694e-05
0.000360136
1.46377e-05
5.28002e-05
0.000352687
2.70594e-05
4.21016e-05
0.000353896
3.37827e-05
2.1406e-05
0.000354508
3.4592e-05
3.39088e-06
0.000354301
2.63218e-05
-6.43475e-06
0.000358752
6.71549e-06
-1.1883e-05
0.000370374
-1.39648e-05
-1.86346e-05
0.000383924
-1.81907e-05
-2.06814e-05
0.000391586
-5.38013e-06
-9.08076e-06
0.000392646
4.45691e-06
7.65357e-06
0.000394021
-1.19311e-06
9.24245e-06
0.000404326
-7.90224e-06
-9.7897e-06
0.000423572
-3.83561e-06
-3.56135e-05
0.000441396
-1.17301e-06
-5.75648e-05
-1.36434e-05
-7.15101e-05
0.000508523
-1.954e-05
-6.72498e-05
0.000515787
-2.55896e-05
-6.78666e-05
0.000512522
-2.87066e-05
-6.17894e-05
0.000490924
-3.11137e-05
-5.05325e-05
0.000460915
-2.3841e-05
-3.48409e-05
0.000440514
-1.70405e-06
-1.51538e-05
0.000436124
2.07212e-05
2.68232e-06
0.000441725
2.21374e-05
1.2e-05
0.000449047
1.11948e-06
1.41438e-05
0.000453218
-2.12519e-05
1.602e-05
0.000452346
-2.77988e-05
2.11058e-05
0.000444261
-2.21925e-05
2.27571e-05
0.000429738
-1.49093e-05
1.32189e-05
0.000415841
-7.36421e-06
-4.76392e-06
0.000410456
2.53955e-07
-1.95328e-05
0.000413999
2.44628e-06
-2.16683e-05
0.00042162
-2.40468e-06
-1.32401e-05
0.000430167
-4.87482e-06
-7.59283e-06
0.000438675
1.92241e-06
-1.51674e-05
0.000446725
2.69409e-06
-2.79603e-05
0.000455085
-2.60193e-05
-3.01647e-05
0.000465833
-7.23099e-05
-1.68123e-05
0.000473539
-8.59693e-05
5.41259e-06
0.000465021
-4.85804e-05
2.83991e-05
0.000440163
2.76766e-06
4.52292e-05
0.00041427
3.63922e-05
5.11719e-05
0.000397022
4.68653e-05
4.54202e-05
0.000386996
4.18455e-05
3.38614e-05
0.0003819
3.16062e-05
2.2002e-05
0.0003835
2.05486e-05
1.11518e-05
0.000393149
4.75871e-06
1.61957e-06
0.000408248
-1.58096e-05
-6.31314e-06
0.000422403
-2.57417e-05
-9.8385e-06
0.000429714
-1.38913e-05
-4.39921e-06
0.000430674
7.94976e-06
7.93394e-06
0.000429936
1.72166e-05
1.39743e-05
0.000435835
1.3845e-05
-1.50072e-07
0.000453857
8.65467e-06
-2.74799e-05
0.000478571
2.63133e-06
-5.00517e-05
-8.05806e-06
-6.17708e-05
0.000560968
-1.56197e-05
-5.81436e-05
0.000574025
-1.45651e-05
-6.29807e-05
0.000575318
-1.18336e-05
-6.34261e-05
0.000556648
-1.1692e-05
-5.88201e-05
0.000525587
-6.97195e-06
-4.82605e-05
0.000499768
9.10614e-06
-3.05199e-05
0.000487714
2.60954e-05
-8.79041e-06
0.000485816
2.56691e-05
9.07331e-06
0.00048789
6.46571e-06
1.83331e-05
0.000489263
-1.29187e-05
2.24656e-05
0.00048764
-1.91932e-05
2.64082e-05
0.000482581
-1.51946e-05
2.52094e-05
0.000476747
-9.20854e-06
1.15537e-05
0.000475032
-2.6204e-06
-9.38584e-06
0.000479174
1.65424e-06
-2.17553e-05
0.000483372
-2.48422e-06
-1.6658e-05
0.000481579
-1.24409e-05
-5.82034e-07
0.000476171
-1.48472e-05
1.08876e-05
0.000475544
-1.7718e-06
7.93913e-06
0.000483664
1.08232e-05
-2.57481e-06
0.000497047
-4.07606e-06
-7.33332e-06
0.000509386
-4.67012e-05
-2.93761e-09
0.000515072
-7.32346e-05
1.47737e-05
0.000506947
-4.63035e-05
2.90698e-05
0.000484558
1.16078e-05
4.03116e-05
0.000458247
5.49885e-05
4.60612e-05
0.00043762
6.60489e-05
4.27324e-05
0.000424947
5.42504e-05
3.42104e-05
0.000419995
3.73083e-05
2.83508e-05
0.000423305
2.51232e-05
2.57496e-05
0.0004346
1.43383e-05
2.00799e-05
0.000450332
-2.28437e-07
9.04287e-06
0.000464331
-1.09702e-05
8.14136e-07
0.000471838
-4.91512e-06
4.03058e-06
0.000474272
1.43467e-05
1.70235e-05
0.000476562
2.88645e-05
2.43192e-05
0.00048338
3.0144e-05
1.42608e-05
0.000498386
2.17315e-05
-1.05906e-05
0.000520822
7.02557e-06
-3.48248e-05
-7.89203e-06
-5.00212e-05
0.000614433
-2.84435e-05
-4.92737e-05
0.000629681
-2.17914e-05
-5.16271e-05
0.000631728
-4.88643e-06
-5.63228e-05
0.000619797
6.85471e-06
-6.2042e-05
0.000600987
1.07087e-05
-6.16261e-05
0.000583467
1.7993e-05
-4.88837e-05
0.000568908
2.90338e-05
-2.49951e-05
0.000554625
3.02228e-05
-6.01187e-07
0.000540558
1.54126e-05
1.50671e-05
0.000530545
-4.55452e-06
2.34292e-05
0.000527598
-1.79659e-05
3.08774e-05
0.00053294
-2.46456e-05
3.55544e-05
0.000545839
-2.8502e-05
2.90608e-05
0.000562499
-2.75522e-05
1.27627e-05
0.000574001
-2.05769e-05
-2.53267e-07
0.000571398
-1.40151e-05
2.94419e-06
0.000554677
-1.2113e-05
2.12744e-05
0.00053532
-6.20546e-06
4.0997e-05
0.000527662
1.02906e-05
4.36503e-05
0.000535289
2.70228e-05
2.1656e-05
0.000549894
2.1184e-05
-6.46943e-06
0.000561666
-1.26391e-05
-1.3782e-05
0.000564945
-4.63695e-05
6.04342e-06
0.00055574
-4.04781e-05
3.16514e-05
0.000533886
6.97979e-06
4.45047e-05
0.000508601
5.73894e-05
4.46233e-05
0.000490442
8.08411e-05
3.75984e-05
0.000482269
7.65728e-05
2.88605e-05
0.000481117
5.83997e-05
2.27255e-05
0.000484274
3.95831e-05
1.90277e-05
0.000491196
2.46369e-05
1.52262e-05
0.000501945
1.28963e-05
1.03103e-05
0.000514641
6.56872e-06
6.09124e-06
0.000525893
1.00001e-05
7.99022e-06
0.000533082
2.109e-05
1.99885e-05
0.000536411
3.00498e-05
3.52212e-05
0.000539658
3.08552e-05
3.73376e-05
0.000548418
2.26479e-05
1.74906e-05
0.000566651
5.39634e-06
-1.58095e-05
-1.6272e-05
-4.04435e-05
0.000668736
-3.55095e-05
-4.88328e-05
0.000683232
-2.37976e-05
-5.39663e-05
0.000684427
2.36478e-06
-5.18961e-05
0.000672022
2.34457e-05
-5.24043e-05
0.000653751
2.95464e-05
-5.57934e-05
0.000640743
2.83561e-05
-5.34537e-05
0.000636639
2.80976e-05
-4.1077e-05
0.000634711
2.61365e-05
-2.33681e-05
0.000626329
1.70413e-05
-6.95199e-06
0.000610568
2.27913e-06
6.58289e-06
0.000594785
-1.34916e-05
2.00627e-05
0.000588903
-2.98052e-05
3.3895e-05
0.000599138
-4.77832e-05
4.12305e-05
0.00062315
-6.10118e-05
3.6216e-05
0.000646681
-5.95875e-05
2.44765e-05
0.000651774
-4.29701e-05
1.89847e-05
0.000633825
-2.09114e-05
2.79495e-05
0.0006065
2.17552e-06
4.45977e-05
0.000587597
2.42303e-05
4.87257e-05
0.000584059
3.66353e-05
2.59931e-05
0.000591138
2.77907e-05
-1.21803e-05
0.000602628
-1.00888e-06
-3.66692e-05
0.000611677
-3.1338e-05
-2.54541e-05
0.000611586
-3.62083e-05
8.95029e-06
0.000600723
-5.42011e-06
3.74559e-05
0.000587691
4.08644e-05
4.52152e-05
0.000581512
7.44574e-05
3.49322e-05
0.00058149
8.38e-05
1.52373e-05
0.000581303
7.31871e-05
-3.65304e-06
0.000578279
5.22085e-05
-1.22337e-05
0.000575096
3.00277e-05
-7.496e-06
0.000574939
1.49324e-05
4.53967e-06
0.000577535
1.17747e-05
1.65213e-05
0.00058018
1.81006e-05
2.5633e-05
0.000581626
2.48973e-05
3.55233e-05
0.000583297
2.4253e-05
4.68245e-05