/*--------------------------------*- C++ -*----------------------------------*\
| =========                 |                                                 |
| \\      /  F ield         | OpenFOAM: The Open Source CFD Toolbox           |
|  \\    /   O peration     | Version:  2306                                  |
|   \\  /    A nd           | Website:  www.openfoam.com                      |
|    \\/     M anipulation  |                                                 |
\*---------------------------------------------------------------------------*/
FoamFile
{
    version     2.0;
    format      ascii;
    arch        "LSB;label=32;scalar=64";
    class       surfaceScalarField;
    location    "1";
    object      phi_0;
}
// * * * * * * * * * * * * * * * * * * * * * * * * * * * * * * * * * * * * * //

dimensions      [0 3 -1 0 0 0 0];

oriented        oriented;

internalField   nonuniform List<scalar> 
175300
(
6.73525e-06
-3.91186e-07
2.2212e-06
6.69649e-06
-6.55781e-07
2.24822e-06
6.61909e-06
-6.13303e-07
2.17301e-06
6.51008e-06
-4.38245e-07
2.04443e-06
6.34155e-06
-2.88261e-07
1.83533e-06
6.03439e-06
-1.57834e-07
1.56538e-06
5.512e-06
-3.81527e-08
1.35511e-06
4.81605e-06
-2.39759e-08
1.31779e-06
4.15821e-06
-2.53465e-07
1.42823e-06
3.78185e-06
-6.78919e-07
1.57579e-06
3.70547e-06
-9.64622e-07
1.65425e-06
3.78104e-06
-9.46253e-07
1.59278e-06
3.8652e-06
-7.51799e-07
1.33482e-06
3.91679e-06
-4.81993e-07
9.21775e-07
3.98545e-06
-1.90044e-07
4.7731e-07
4.11541e-06
5.62551e-08
9.24981e-08
4.30362e-06
2.20945e-07
-2.1331e-07
4.51838e-06
2.65126e-07
-4.6916e-07
4.76078e-06
2.0283e-07
-6.96173e-07
5.03396e-06
4.69047e-08
-9.4633e-07
5.37647e-06
-1.25561e-07
-1.25727e-06
5.75896e-06
-1.88961e-07
-1.61753e-06
6.05271e-06
-1.1964e-07
-1.91264e-06
6.12035e-06
-4.25138e-08
-2.01913e-06
5.89016e-06
9.50383e-09
-1.97751e-06
5.38887e-06
6.90375e-08
-1.9093e-06
4.80508e-06
-3.28086e-08
-1.82893e-06
4.36957e-06
-3.52631e-07
-1.75717e-06
4.12465e-06
-5.69405e-07
-1.81114e-06
4.02416e-06
-4.93557e-07
-1.9821e-06
4.08452e-06
-2.68632e-07
-2.04085e-06
4.31443e-06
4.20401e-08
-1.80115e-06
4.67409e-06
4.57747e-07
-1.30908e-06
5.08389e-06
8.95133e-07
-7.72193e-07
5.50572e-06
1.18378e-06
-3.77312e-07
5.92507e-06
1.23742e-06
-4.08503e-08
6.31414e-06
1.23154e-06
2.60893e-07
6.5668e-06
1.16061e-06
7.31801e-07
6.6872e-06
7.98709e-07
1.3731e-06
1.81339e-07
1.94496e-06
2.29677e-05
-1.87778e-06
6.28823e-06
2.27356e-05
-2.54357e-06
6.23327e-06
2.24069e-05
-2.3002e-06
6.11574e-06
2.20387e-05
-1.71882e-06
5.98216e-06
2.14697e-05
-1.19945e-06
5.58057e-06
2.04214e-05
-6.69621e-07
4.8561e-06
1.87385e-05
-1.94666e-07
4.18527e-06
1.66077e-05
-1.68834e-07
4.01089e-06
1.45972e-05
-9.99146e-07
4.3452e-06
1.32963e-05
-2.41083e-06
4.80527e-06
1.27769e-05
-3.31108e-06
4.96529e-06
1.26974e-05
-3.2023e-06
4.61225e-06
1.27353e-05
-2.50589e-06
3.73997e-06
1.28206e-05
-1.58342e-06
2.57296e-06
1.30489e-05
-6.26007e-07
1.41075e-06
1.34847e-05
1.4568e-07
3.9949e-07
1.41244e-05
5.86766e-07
-4.50203e-07
1.49212e-05
6.14612e-07
-1.21078e-06
1.5862e-05
2.57358e-07
-1.93036e-06
1.69494e-05
-3.5721e-07
-2.72469e-06
1.8209e-05
-9.45067e-07
-3.68799e-06
1.94925e-05
-1.10546e-06
-4.76081e-06
2.0456e-05
-8.33157e-07
-5.59876e-06
2.07215e-05
-5.21007e-07
-5.85313e-06
2.00618e-05
-2.88371e-07
-5.58846e-06
1.85973e-05
-1.59875e-07
-5.15452e-06
1.68449e-05
-5.69578e-07
-4.82835e-06
1.53142e-05
-1.45459e-06
-4.82462e-06
1.41678e-05
-1.93559e-06
-5.26729e-06
1.35209e-05
-1.68891e-06
-5.87169e-06
1.35542e-05
-1.07351e-06
-5.9796e-06
1.42475e-05
-9.85233e-08
-5.15092e-06
1.53818e-05
1.34383e-06
-3.63634e-06
1.67113e-05
2.87239e-06
-2.05413e-06
1.81178e-05
3.85699e-06
-7.99828e-07
1.95396e-05
4.09402e-06
2.46638e-07
2.08727e-05
3.94932e-06
1.3245e-06
2.19134e-05
3.34972e-06
2.81147e-06
2.26105e-05
1.85648e-06
4.53389e-06
-1.87025e-07
5.822e-06
4.34291e-05
-4.39165e-06
1.02262e-05
4.28619e-05
-5.44225e-06
9.88083e-06
4.21657e-05
-4.896e-06
9.5976e-06
4.15051e-05
-3.74839e-06
9.60355e-06
4.05657e-05
-2.68319e-06
9.34817e-06
3.88654e-05
-1.53936e-06
8.41244e-06
3.61764e-05
-5.13928e-07
7.22538e-06
3.26816e-05
-3.63229e-07
6.66124e-06
2.90274e-05
-1.79998e-06
7.07462e-06
2.61403e-05
-4.44674e-06
7.97136e-06
2.45076e-05
-6.37542e-06
8.42941e-06
2.38384e-05
-6.40632e-06
7.90258e-06
2.35858e-05
-5.13155e-06
6.49318e-06
2.3562e-05
-3.33991e-06
4.68735e-06
2.38793e-05
-1.50348e-06
2.9273e-06
2.46249e-05
-5.07345e-08
1.35528e-06
2.57946e-05
6.59642e-07
2.19459e-08
2.73205e-05
5.39489e-07
-1.2559e-06
2.91715e-05
-3.57145e-07
-2.43069e-06
3.13452e-05
-1.83792e-06
-3.6985e-06
3.38299e-05
-3.21623e-06
-5.27856e-06
3.63342e-05
-3.58067e-06
-7.17311e-06
3.83096e-05
-2.91387e-06
-8.84002e-06
3.91533e-05
-2.04447e-06
-9.55588e-06
3.84329e-05
-1.31948e-06
-9.17552e-06
3.62345e-05
-9.52805e-07
-8.19977e-06
3.32711e-05
-1.68324e-06
-7.33867e-06
3.02911e-05
-3.14561e-06
-7.22357e-06
2.76396e-05
-3.81195e-06
-8.07403e-06
2.5718e-05
-3.36201e-06
-9.38453e-06
2.50975e-05
-2.46662e-06
-1.00186e-05
2.59356e-05
-9.5221e-07
-9.03437e-06
2.78447e-05
1.63384e-06
-6.66309e-06
3.0299e-05
4.61892e-06
-3.95887e-06
3.30034e-05
6.66407e-06
-1.65053e-06
3.58051e-05
7.25967e-06
3.53802e-07
3.85248e-05
6.99539e-06
2.32818e-06
4.0848e-05
5.56263e-06
4.86894e-06
4.2557e-05
2.42499e-06
7.67229e-06
-1.43388e-06
9.66881e-06
6.82073e-05
-7.65901e-06
1.40847e-05
6.71049e-05
-8.84745e-06
1.32371e-05
6.58881e-05
-8.01028e-06
1.23305e-05
6.494e-05
-6.27494e-06
1.23158e-05
6.38021e-05
-4.52935e-06
1.25844e-05
6.17832e-05
-2.64987e-06
1.20019e-05
5.85784e-05
-9.88983e-07
1.04671e-05
5.41858e-05
-5.518e-07
9.14732e-06
4.88716e-05
-2.20554e-06
9.19208e-06
4.36054e-05
-5.81233e-06
1.05703e-05
3.97195e-05
-9.13303e-06
1.18828e-05
3.76185e-05
-1.00022e-05
1.16798e-05
3.66186e-05
-8.53485e-06
9.93892e-06
3.62008e-05
-5.90384e-06
7.60241e-06
3.63963e-05
-3.11944e-06
5.39948e-06
3.73119e-05
-9.24958e-07
3.44605e-06
3.89399e-05
8.98415e-08
1.71043e-06
4.11814e-05
-4.10779e-07
2.62523e-07
4.40047e-05
-2.16801e-06
-1.24731e-06
4.74467e-05
-5.13771e-06
-2.69809e-06
5.14937e-05
-8.02847e-06
-4.65368e-06
5.56895e-05
-8.95841e-06
-7.44634e-06
5.92543e-05
-7.66645e-06
-1.05031e-05
6.13819e-05
-5.61917e-06
-1.2539e-05
6.13727e-05
-3.66703e-06
-1.27528e-05
5.90512e-05
-2.47204e-06
-1.14197e-05
5.51275e-05
-3.2877e-06
-9.63718e-06
5.05876e-05
-5.25544e-06
-8.79421e-06
4.59708e-05
-5.91911e-06
-9.63992e-06
4.18631e-05
-5.06992e-06
-1.1744e-05
3.93512e-05
-4.05296e-06
-1.36216e-05
3.92858e-05
-2.65508e-06
-1.35509e-05
4.15048e-05
2.95296e-07
-1.11192e-05
4.51447e-05
4.34106e-06
-7.54463e-06
4.95166e-05
7.49303e-06
-4.12418e-06
5.4219e-05
8.53817e-06
-7.82591e-07
5.89274e-05
8.63313e-06
2.20799e-06
6.31806e-05
6.62338e-06
5.90837e-06
6.64886e-05
1.79853e-06
1.00603e-05
-3.78341e-06
1.31867e-05
9.66258e-05
-1.16803e-05
1.76656e-05
9.46667e-05
-1.2049e-05
1.66521e-05
9.26602e-05
-1.08934e-05
1.45727e-05
9.14868e-05
-8.92494e-06
1.3809e-05
9.05024e-05
-6.5244e-06
1.4567e-05
8.86917e-05
-3.80249e-06
1.50952e-05
8.56909e-05
-1.5322e-06
1.3934e-05
8.13336e-05
-7.84968e-07
1.17163e-05
7.51258e-05
-2.10973e-06
1.0566e-05
6.73032e-05
-5.73713e-06
1.19076e-05
5.98594e-05
-1.02117e-05
1.46377e-05
5.48405e-05
-1.28292e-05
1.58016e-05
5.21771e-05
-1.22442e-05
1.42145e-05
5.08624e-05
-9.22003e-06
1.13574e-05
5.05439e-05
-5.54893e-06
8.78351e-06
5.12465e-05
-2.63117e-06
6.75485e-06
5.29252e-05
-1.31251e-06
5.02367e-06
5.54338e-05
-2.18829e-06
3.57656e-06
5.87651e-05
-5.33684e-06
2.48347e-06
6.31752e-05
-1.07714e-05
1.5645e-06
6.89092e-05
-1.65688e-05
-8.99627e-09
7.54298e-05
-1.91432e-05
-3.35224e-06
8.15494e-05
-1.72422e-05
-8.36634e-06
8.61228e-05
-1.30973e-05
-1.31469e-05
8.80964e-05
-8.51767e-06
-1.55943e-05
8.67684e-05
-5.11013e-06
-1.49878e-05
8.25932e-05
-5.29696e-06
-1.23738e-05
7.68464e-05
-7.71773e-06
-1.00767e-05
7.0393e-05
-8.2467e-06
-1.00026e-05
6.37914e-05
-6.5103e-06
-1.23363e-05
5.82118e-05
-5.01612e-06
-1.5641e-05
5.53538e-05
-4.15676e-06
-1.7647e-05
5.61761e-05
-2.19948e-06
-1.68024e-05
6.01144e-05
1.22543e-06
-1.36071e-05
6.60779e-05
4.18553e-06
-9.65363e-06
7.31602e-05
5.25128e-06
-5.43558e-06
8.05563e-05
5.64356e-06
-3.72142e-07
8.75242e-05
4.50616e-06
4.39197e-06
9.32766e-05
-1.32504e-06
1.03488e-05
-7.99955e-06
1.54797e-05
0.000126883
-1.77058e-05
1.95228e-05
0.000123682
-1.46756e-05
2.01176e-05
0.00012023
-1.23777e-05
1.73007e-05
0.000118894
-1.1172e-05
1.47634e-05
0.000118734
-8.78293e-06
1.497e-05
0.000117867
-5.00299e-06
1.68235e-05
0.000115754
-1.9399e-06
1.73143e-05
0.000112556
-1.13909e-06
1.49367e-05
0.000107177
-1.9824e-06
1.17889e-05
9.82318e-05
-4.38054e-06
1.16634e-05
8.69689e-05
-8.57317e-06
1.54785e-05
7.71746e-05
-1.30327e-05
1.93155e-05
7.10484e-05
-1.48643e-05
1.91402e-05
6.78738e-05
-1.27067e-05
1.59046e-05
6.65052e-05
-8.4678e-06
1.26804e-05
6.64697e-05
-4.8237e-06
1.06281e-05
6.75014e-05
-3.1489e-06
9.31588e-06
6.92861e-05
-4.31509e-06
8.49134e-06
7.1752e-05
-9.05811e-06
8.43373e-06
7.55114e-05
-1.79808e-05
9.15938e-06
8.16528e-05
-2.8665e-05
9.40017e-06
9.03162e-05
-3.50516e-05
6.87349e-06
0.000100243
-3.41051e-05
5.71775e-07
0.000109489
-2.75491e-05
-8.17016e-06
0.000115804
-1.84177e-05
-1.53114e-05
0.00011739
-1.01263e-05
-1.78412e-05
0.00011423
-7.9212e-06
-1.57679e-05
0.000108075
-1.05424e-05
-1.2033e-05
0.000100575
-1.11227e-05
-1.0057e-05
9.23776e-05
-8.02965e-06
-1.13919e-05
8.41046e-05
-5.14042e-06
-1.5241e-05
7.73196e-05
-4.10193e-06
-1.93892e-05
7.41839e-05
-3.40634e-06
-2.16066e-05
7.5677e-05
-2.36606e-06
-2.11004e-05
8.13073e-05
-2.51341e-06
-1.85549e-05
8.98888e-05
-3.83737e-06
-1.44904e-05
9.98678e-05
-3.893e-06
-8.8173e-06
0.000109973
-4.76361e-06
-1.46812e-06
0.000119383
-9.49661e-06
6.01578e-06
-1.62848e-05
1.42066e-05
0.00015518
-2.94851e-05
1.65072e-05
0.000151526
-1.81556e-05
2.17422e-05
0.000145032
-1.09138e-05
2.09451e-05
0.000142813
-1.16439e-05
1.70076e-05
0.00014471
-1.20045e-05
1.49012e-05
0.000146197
-7.28149e-06
1.66815e-05
0.000145394
-2.18743e-06
1.95967e-05
0.00014381
-1.43065e-06
1.91275e-05
0.000141323
-2.9221e-06
1.43927e-05
0.000134668
-3.68897e-06
1.08699e-05
0.000122226
-5.22798e-06
1.37609e-05
0.000107328
-9.39163e-06
2.04789e-05
9.52358e-05
-1.39873e-05
2.36984e-05
8.80963e-05
-1.47105e-05
2.12371e-05
8.47798e-05
-1.11991e-05
1.70917e-05
8.36761e-05
-7.02956e-06
1.44316e-05
8.37564e-05
-4.81484e-06
1.32842e-05
8.42783e-05
-5.89691e-06
1.3028e-05
8.48239e-05
-1.18624e-05
1.40207e-05
8.6006e-05
-2.44128e-05
1.67862e-05
8.98649e-05
-4.11499e-05
1.99411e-05
9.79125e-05
-5.33316e-05
1.99882e-05
0.000109783
-5.49524e-05
1.43048e-05
0.000124239
-4.83289e-05
3.72345e-06
0.000138123
-3.55927e-05
-8.70544e-06
0.0001462
-2.02114e-05
-1.69369e-05
0.000146183
-1.22723e-05
-1.8161e-05
0.000140684
-1.3748e-05
-1.47514e-05
0.000133295
-1.47082e-05
-1.10026e-05
0.000125354
-1.02227e-05
-1.00861e-05
0.000116747
-5.09999e-06
-1.27966e-05
0.000107764
-2.52907e-06
-1.77208e-05
0.000100149
-1.43691e-06
-2.27139e-05
9.63197e-05
-2.11445e-06
-2.65033e-05
9.79799e-05
-7.39498e-06
-2.8291e-05
0.000105053
-1.50513e-05
-2.69038e-05
0.000115228
-1.82959e-05
-2.17971e-05
0.000126182
-1.85829e-05
-1.41122e-05
0.000138157
-2.38332e-05
-4.45947e-06
-3.15712e-05
6.42534e-06
0.000176863
-4.86735e-05
8.2305e-06
0.000176982
-2.71399e-05
1.93891e-05
0.000167519
-7.68159e-06
2.34692e-05
0.000160947
-6.91423e-06
2.07446e-05
0.000163988
-1.44303e-05
1.60101e-05
0.000170363
-1.27561e-05
1.52181e-05
0.000171806
-3.55967e-06
1.92556e-05
0.000169385
-4.42527e-08
2.27958e-05
0.000168997
-4.92504e-06
1.985e-05
0.000169124
-8.34455e-06
1.26533e-05
0.000162399
-6.07593e-06
1.12754e-05
0.000146924
-4.88687e-06
1.85441e-05
0.000128464
-8.51141e-06
2.59625e-05
0.000114105
-1.22514e-05
2.64792e-05
0.000106429
-1.18401e-05
2.23654e-05
0.000103692
-8.77293e-06
1.8661e-05
0.00010337
-6.49894e-06
1.68166e-05
0.000103757
-7.32797e-06
1.61965e-05
0.000103752
-1.37014e-05
1.70263e-05
0.000102944
-2.8204e-05
2.04624e-05
0.000102985
-4.94141e-05
2.62239e-05
0.000107088
-6.77075e-05
3.04922e-05
0.000116899
-7.35177e-05
2.79523e-05
0.000132355
-6.81364e-05
1.73885e-05
0.000151772
-5.47681e-05
2.73606e-06
0.000167972
-3.52604e-05
-1.06248e-05
0.000172714
-1.93303e-05
-1.65739e-05
0.000166588
-1.52442e-05
-1.59058e-05
0.000157757
-1.58144e-05
-1.23844e-05
0.00015209
-1.3096e-05
-9.27696e-06
0.000148563
-7.82088e-06
-9.14574e-06
0.000143349
-2.19317e-06
-1.28692e-05
0.000135326
2.86414e-06
-1.90129e-05
0.000126892
3.94038e-06
-2.64109e-05
0.00012195
-4.81339e-06
-3.41008e-05
0.000123821
-2.10361e-05
-3.87889e-05
0.000131732
-3.17572e-05
-3.69272e-05
0.000141432
-3.34623e-05
-2.94028e-05
0.000151922
-3.85742e-05
-1.87294e-05
-4.98688e-05
-5.90627e-06
0.000194471
-6.88017e-05
-2.00303e-06
0.000200826
-4.38835e-05
1.43844e-05
0.000193635
-9.69251e-06
2.35678e-05
0.000181637
1.35177e-06
2.35493e-05
0.000179214
-1.06773e-05
1.74146e-05
0.000188456
-1.8971e-05
1.26352e-05
0.000196385
-9.60239e-06
1.48348e-05
0.000193663
2.10365e-06
2.13797e-05
0.000187479
-1.84684e-06
2.39012e-05
0.000189457
-1.59492e-05
1.80555e-05
0.000195375
-1.99601e-05
1.20322e-05
0.0001908
-1.11668e-05
1.60605e-05
0.000172632
-4.36516e-06
2.55192e-05
0.000150624
-4.71726e-06
2.98357e-05
0.000134746
-6.86359e-06
2.75728e-05
0.000127681
-7.54065e-06
2.37861e-05
0.000126703
-7.85439e-06
2.11791e-05
0.000128437
-9.95805e-06
1.94616e-05
0.000130272
-1.65067e-05
1.86569e-05
0.000130119
-3.04337e-05
2.05514e-05
0.000127859
-5.21107e-05
2.68036e-05
0.000126794
-7.40406e-05
3.52732e-05
0.000131212
-8.48803e-05
3.85567e-05
0.000143491
-8.28605e-05
3.10775e-05
0.00016342
-7.17537e-05
1.5127e-05
0.00018412
-5.15261e-05
-1.72446e-06
0.000192311
-2.76749e-05
-1.23339e-05
0.000182821
-1.20687e-05
-1.47573e-05
0.000166614
-7.49333e-06
-1.20185e-05
0.000157836
-9.18091e-06
-7.10903e-06
0.000160772
-1.1686e-05
-3.59417e-06
0.000168437
-8.4717e-06
-4.51826e-06
0.000170756
2.88701e-06
-1.03399e-05
0.00016504
1.21887e-05
-1.99764e-05
0.000156179
5.62495e-06
-3.26281e-05
0.000151085
-1.66047e-05
-4.4904e-05
0.000153715
-3.73869e-05
-5.00537e-05
0.000161502
-4.4584e-05
-4.53406e-05
0.000170337
-5.01339e-05
-3.37819e-05
-6.44468e-05
-1.85277e-05
0.000213642
-8.43899e-05
-1.21877e-05
0.000223903
-6.54382e-05
7.05485e-06
0.000223396
-2.22897e-05
2.04658e-05
0.000211577
4.37238e-06
2.41875e-05
0.000200516
-1.64929e-06
1.88592e-05
0.000202863
-1.88613e-05
1.0602e-05
0.000215482
-1.8834e-05
8.05309e-06
0.000221816
-2.38388e-06
1.35907e-05
0.000214642
4.09591e-06
2.01682e-05
0.000206887
-1.38101e-05
1.97946e-05
0.000213359
-3.59025e-05
1.4324e-05
0.000224791
-3.47256e-05
1.50766e-05
0.000220348
-1.52068e-05
2.40919e-05
0.00019867
-7.76327e-08
3.08895e-05
0.000174594
3.49869e-06
3.07878e-05
0.000159349
6.12247e-07
2.82217e-05
0.000154437
-5.06726e-06
2.64036e-05
0.000156617
-1.26907e-05
2.45442e-05
0.000161635
-2.24198e-05
2.1645e-05
0.000164589
-3.48851e-05
1.97787e-05
0.000162441
-5.23233e-05
2.34096e-05
0.000157429
-7.29987e-05
3.38222e-05
0.00015544
-8.7267e-05
4.32907e-05
0.000161668
-8.96583e-05
4.13326e-05
0.000177777
-8.26662e-05
2.66436e-05
0.000197749
-6.49433e-05
7.63835e-06
0.000207379
-3.50672e-05
-7.78872e-06
0.000197655
-6.61228e-06
-1.37226e-05
0.000177187
7.37787e-06
-1.17478e-05
0.000162417
4.04148e-06
-4.36023e-06
0.000162871
-8.61333e-06
3.74329e-06
0.000177029
-1.48827e-05
7.08942e-06
0.000193267
-3.65701e-06
3.17325e-06
0.000199717
1.48644e-05
-7.30202e-06
0.000195288
1.83781e-05
-2.36148e-05
0.000187586
-3.2227e-06
-4.24007e-05
0.000184064
-3.16844e-05
-5.63522e-05
0.000186749
-4.68588e-05
-5.86889e-05
0.000193395
-5.53159e-05
-4.91962e-05
-7.22569e-05
-3.20974e-05
0.000236359
-9.18555e-05
-2.4493e-05
0.000247374
-8.40027e-05
-3.15967e-06
0.00025253
-4.38188e-05
1.3511e-05
0.000246427
-4.69839e-06
2.10514e-05
0.000232798
4.05603e-06
1.91539e-05
0.00022398
-1.07389e-05
1.02638e-05
0.000229587
-2.14579e-05
2.88678e-06
0.000243351
-1.26565e-05
4.29469e-06
0.00024872
3.57687e-07
1.20208e-05
0.000240358
-8.29346e-06
1.6722e-05
0.000234547
-3.7885e-05
1.43662e-05
0.00024517
-5.61388e-05
1.34153e-05
0.000256621
-4.07988e-05
2.11803e-05
0.000248257
-9.63813e-06
2.97044e-05
0.000224708
1.04234e-05
3.12411e-05
0.000202345
1.39628e-05
2.97286e-05
0.000189821
6.14358e-06
2.98268e-05
0.000188278
-9.81461e-06
2.98715e-05
0.000195314
-2.95857e-05
2.6146e-05
0.000203762
-4.51045e-05
1.93454e-05
0.000204972
-5.53281e-05
1.67866e-05
0.000197789
-6.77761e-05
2.58245e-05
0.000189251
-8.13494e-05
4.10874e-05
0.000187348
-8.73935e-05
4.68215e-05
0.000196103
-8.41269e-05
3.5578e-05
0.000211655
-6.99788e-05
1.53714e-05
0.000221605
-3.92372e-05
-2.49618e-06
0.000215795
-2.20096e-06
-1.20997e-05
0.000198586
2.09419e-05
-1.28687e-05
0.000182504
1.93505e-05
-5.41841e-06
0.000177296
7.46084e-07
6.25389e-06
0.000186927
-1.48857e-05
1.52072e-05
0.000206616
-1.02048e-05
1.62747e-05
0.000224458
1.10283e-05
8.39443e-06
0.000231351
2.47281e-05
-8.51952e-06
0.00022889
1.18562e-05
-3.13346e-05
0.000223852
-1.77697e-05
-5.31867e-05
0.000220396
-3.89803e-05
-6.52464e-05
0.000220817
-5.14717e-05
-6.28662e-05
-7.16768e-05
-4.72514e-05
0.000264099
-9.07888e-05
-3.97555e-05
0.000274243
-9.48615e-05
-1.4999e-05
0.000280389
-6.58747e-05
3.74485e-06
0.000278516
-2.41159e-05
1.41867e-05
0.00026841
-1.33769e-08
1.66748e-05
0.000255343
-1.59939e-06
1.04876e-05
0.000250171
-1.42884e-05
8.25172e-07
0.000259502
-1.88098e-05
-1.72914e-06
0.00027431
-1.27747e-05
5.72783e-06
0.00027762
-1.38326e-05
1.43807e-05
0.000268672
-3.52511e-05
1.45386e-05
0.000266936
-6.21266e-05
1.09679e-05
0.000279231
-6.23205e-05
1.55637e-05
0.000285926
-3.04634e-05
2.52449e-05
0.000273896
5.14986e-06
2.89414e-05
0.00025203
2.36038e-05
2.79345e-05
0.000233358
2.26324e-05
2.92401e-05
0.00022463
3.97359e-06
3.06138e-05
0.000229287
-2.8533e-05
2.57847e-05
0.000243614
-5.66589e-05
1.46557e-05
0.000253387
-6.40331e-05
5.31907e-06
0.000248342
-6.26123e-05
1.04068e-05
0.00023415
-6.85422e-05
2.99416e-05
0.000222552
-7.62786e-05
4.60938e-05
0.000220945
-7.5056e-05
4.22936e-05
0.000229046
-6.30635e-05
2.29351e-05
0.000237986
-3.63764e-05
3.92602e-06
0.000237608
1.59331e-06
-9.10697e-06
0.000227272
2.99338e-05
-1.46436e-05
0.000214706
3.15293e-05
-1.15064e-05
0.000207393
1.16283e-05
6.18768e-08
0.000210086
-8.61942e-06
1.31122e-05
0.000223592
-1.05604e-05
2.05964e-05
0.000243082
5.91883e-06
1.91388e-05
0.000260225
2.12005e-05
7.80825e-06
0.000269037
1.75093e-05
-1.50464e-05
0.000268958
-4.39814e-06
-4.19236e-05
0.000262939
-2.43762e-05
-6.32774e-05
0.000256197
-3.96245e-05
-7.09815e-05
-6.3841e-05
-6.20408e-05
0.000299645
-8.45019e-05
-5.42106e-05
0.000307387
-9.62003e-05
-2.84722e-05
0.000309871
-7.87603e-05
-8.32162e-06
0.000306437
-4.36831e-05
4.39065e-06
0.000299806
-1.1964e-05
1.09719e-05
0.000290682
1.82822e-06
9.75294e-06
0.000282647
-3.21919e-06
1.09233e-06
0.000284506
-1.61045e-05
-4.5833e-06
0.000297735
-2.41425e-05
1.55463e-06
0.000308408
-2.64382e-05
1.26162e-05
0.000304798
-3.60252e-05
1.50827e-05
0.000296302
-5.77317e-05
8.43825e-06
0.000299102
-6.9245e-05
7.37059e-06
0.000307986
-4.85905e-05
1.67372e-05
0.000305715
-9.36651e-06
2.55347e-05
0.000289885
2.17205e-05
2.82631e-05
0.000271962
3.22852e-05
2.88101e-05
0.000260887
2.06911e-05
2.5503e-05
0.000261082
-1.40228e-05
1.40564e-05
0.000276416
-5.71759e-05
-1.23196e-06
0.000297739
-7.58847e-05
-1.17386e-05
0.00030346
-6.44375e-05
-8.83427e-06
0.000288227
-5.40309e-05
1.33462e-05
0.000266904
-5.79438e-05
3.89231e-05
0.000253691
-5.80197e-05
4.60688e-05
0.000252872
-4.5545e-05
3.06469e-05
0.000259034
-2.19955e-05
9.5304e-06
0.000262689
9.69498e-06
-5.43437e-06
0.000259499
3.4969e-05
-1.51055e-05
0.000252661
3.74906e-05
-1.9143e-05
0.00024731
1.86927e-05
-1.2688e-05
0.000246945
-1.27435e-06
1.11063e-06
0.000252715
-5.24481e-06
1.35141e-05
0.000265259
5.07233e-06
1.88589e-05
0.000284299
1.17989e-05
1.52251e-05
0.000303746
6.89735e-06
-4.41863e-07
0.000313246
-2.5685e-06
-2.76966e-05
0.000309106
-1.02456e-05
-5.61007e-05
0.000298955
-2.35975e-05
-7.33748e-05
-5.24974e-05
-7.26048e-05
0.000344673
-7.29901e-05
-6.56386e-05
0.000348227
-8.63078e-05
-4.23919e-05
0.000343923
-7.7419e-05
-2.22414e-05
0.000334611
-5.41287e-05
-8.0133e-06
0.000327558
-2.51552e-05
4.11145e-06
0.000323358
-9.3696e-07
9.46482e-06
0.000319646
6.09681e-06
3.48275e-06
0.000320019
-6.96907e-06
-4.63909e-06
0.000329204
-2.70259e-05
-1.42527e-06
0.000340767
-3.65768e-05
1.08285e-05
0.000341728
-3.77106e-05
1.61903e-05
0.00033077
-4.64385e-05
7.71986e-06
0.000320221
-5.87275e-05
-1.88269e-07
0.000316068
-5.1706e-05
6.86247e-06
0.000311278
-2.1259e-05
2.14216e-05
0.000302921
1.0274e-05
3.00807e-05
0.000297041
2.7521e-05
2.70345e-05
0.000295887
2.73755e-05
1.25985e-05
0.000296432
3.29277e-06
-7.08985e-06
0.000304933
-4.35309e-05
-2.19723e-05
0.000328859
-8.33715e-05
-2.55846e-05
0.000349869
-8.05277e-05
-1.75092e-05
0.000343694
-5.40608e-05
3.84557e-06
0.000316944
-4.10174e-05
3.22378e-05
0.000291997
-3.72524e-05
4.78894e-05
0.000282672
-2.45835e-05
3.94605e-05
0.000287405
-3.09414e-06
1.72963e-05
0.000296033
2.01304e-05
-1.91025e-06
0.000300105
3.55775e-05
-1.50682e-05
0.000299013
3.44508e-05
-2.45436e-05
0.000297163
1.76205e-05
-2.60325e-05
0.000297278
8.12339e-07
-1.69882e-05
0.000299272
-1.1275e-06
-3.47083e-06
0.000304166
6.66814e-06
7.13059e-06
0.000316647
3.86162e-06
1.09756e-05
0.000336716
-9.15669e-06
4.17276e-06
0.000353327
-1.14717e-05
-1.78929e-05
0.00035515
-3.47776e-06
-4.7584e-05
0.000346868
-9.06184e-06
-7.16876e-05
-3.93976e-05
-7.86986e-05
0.000397038
-5.58773e-05
-7.26074e-05
0.000398119
-6.76828e-05
-5.46632e-05
0.000388935
-6.44721e-05
-3.65464e-05
0.000372722
-5.38684e-05
-2.09338e-05
0.000360446
-3.29197e-05
-4.95348e-06
0.000355949
-4.48624e-06
7.13484e-06
0.00035602
1.3218e-05
6.53656e-06
0.000359264
4.65099e-06
-7.5975e-07
0.000367257
-2.15201e-05
-6.27719e-07
0.000377224
-3.91909e-05
1.05468e-05
0.000379247
-3.79548e-05
1.90678e-05
0.000366671
-3.4116e-05
1.19964e-05
0.000345025
-3.78334e-05
-2.31541e-06
0.000325826
-3.57064e-05
-5.41535e-06
0.00031516
-1.81558e-05
4.34739e-06
0.00031457
3.55548e-06
1.19788e-05
0.000323148
1.74171e-05
6.76638e-06
0.000334204
2.23547e-05
-9.65716e-06
0.000340101
1.23008e-05
-2.90924e-05
0.00034422
-2.54145e-05
-3.85844e-05
0.000360398
-7.83346e-05
-3.14438e-05
0.000385023
-9.8642e-05
-1.36665e-05
0.000389924
-7.12189e-05
8.839e-06
0.000365929
-3.64634e-05
3.36585e-05
0.00033413
-1.89836e-05
5.03229e-05
0.000317412
-5.39547e-06
4.69854e-05
0.000319204
1.20351e-05
2.66267e-05
0.000328623
2.7911e-05
4.54412e-06
0.000334618
3.55117e-05
-1.16319e-05
0.000335437
2.99088e-05
-2.22536e-05
0.000337009
1.23604e-05
-2.85459e-05
0.000342586
-4.00023e-06
-2.77408e-05
0.000349103
-4.97869e-06
-1.83818e-05
0.000353336
3.7701e-06
-4.27335e-06
0.000358061
1.54311e-06
5.78224e-06
0.000368702
-1.31314e-05
2.77269e-06
0.000384537
-1.66041e-05
-1.51526e-05
0.000395814
-4.07929e-06
-4.16656e-05
0.000397359
-2.15019e-06
-6.64539e-05
-2.63768e-05
-7.8638e-05
0.000452805
-3.57912e-05
-7.42636e-05
0.000454674
-4.55049e-05
-6.50503e-05
0.000446211
-4.69726e-05
-5.03774e-05
0.000425102
-4.51268e-05
-3.45932e-05
0.000403975
-3.22134e-05
-1.67163e-05
0.00039401
-5.15697e-06
5.9152e-07
0.000394629
1.80399e-05
9.12105e-06
0.00040035
1.53159e-05
7.86703e-06
0.000407712
-1.04612e-05
5.58013e-06
0.000414784
-3.32597e-05
1.07968e-05
0.00041661
-3.59484e-05
2.00468e-05
0.000406859
-2.79595e-05
1.97236e-05
0.000386256
-2.23465e-05
5.45928e-06
0.000364579
-1.6457e-05
-1.03298e-05
0.000352747
-5.5293e-06
-1.60488e-05
0.00035451
4.52222e-06
-1.35074e-05
0.000366135
8.32442e-06
-1.15368e-05
0.000380445
1.04827e-05
-1.77857e-05
0.000391498
1.03449e-05
-3.22843e-05
0.00039915
-9.81888e-06
-4.24995e-05
0.00040943
-5.71608e-05
-3.56489e-05
0.000425123
-9.60903e-05
-1.31371e-05
0.000430632
-8.44796e-05
1.23571e-05
0.000411849
-4.02034e-05
3.37743e-05
0.000380464
-4.2534e-06
4.88466e-05
0.000358461
1.63373e-05
5.22605e-05
0.0003525
2.81169e-05
4.00174e-05
0.000353971
3.42089e-05
1.91027e-05
0.000354402
3.39971e-05
1.90133e-06
0.00035449
2.43014e-05
-7.13893e-06
0.000359812
3.95601e-06
-1.25434e-05
0.000372055
-1.55671e-05
-1.91293e-05
0.000385324
-1.76234e-05
-1.98569e-05
0.000392157
-4.04088e-06
-6.90696e-06
0.000392867
4.5161e-06
9.01599e-06
0.000394915
-2.14571e-06
8.02711e-06
0.00040634
-8.10969e-06
-1.27666e-05
0.00042595
-3.72308e-06
-3.85905e-05
0.000442919
-2.36185e-06
-5.96926e-05
-1.63004e-05
-7.23998e-05
0.000509757
-2.08776e-05
-6.73259e-05
0.000516097
-2.60997e-05
-6.71711e-05
0.000510576
-2.86883e-05
-6.03637e-05
0.000487009
-3.01776e-05
-4.87066e-05
0.000457266
-2.13079e-05
-3.26141e-05
0.000438779
1.5306e-06
-1.28189e-05
0.000436197
2.21852e-05
4.36264e-06
0.000442615
2.04182e-05
1.26687e-05
0.000449854
-2.17277e-06
1.42859e-05
0.000453477
-2.33382e-05
1.63757e-05
0.000451754
-2.78715e-05
2.1506e-05
0.000442697
-2.14054e-05
2.2142e-05
0.000427755
-1.39455e-05
1.12141e-05
0.000414505
-6.22698e-06
-7.07866e-06
0.000410308
1.02774e-06
-2.07017e-05
0.000414672
2.27993e-06
-2.12898e-05
0.00042252
-2.76614e-06
-1.24741e-05
0.000431135
-4.34775e-06
-8.06395e-06
0.000439783
2.6056e-06
-1.68927e-05
0.000447987
8.35306e-07
-2.92363e-05
0.000456599
-3.14994e-05
-2.95917e-05
0.000467384
-7.67748e-05
-1.44318e-05
0.000473672
-8.41216e-05
8.35969e-06
0.000462777
-4.24793e-05
3.07908e-05
0.000436896
7.97754e-06
4.64823e-05
0.000411726
3.88024e-05
5.10208e-05
0.000395496
4.69204e-05
4.42728e-05
0.000386148
4.07117e-05
3.25703e-05
0.000381782
3.01522e-05
2.08377e-05
0.000384326
1.87123e-05
1.00182e-05
0.00039487
2.3096e-06
4.52975e-07
0.000410222
-1.78186e-05
-7.02052e-06
0.000423852
-2.55869e-05
-9.64486e-06
0.000430283
-1.17238e-05
-3.0158e-06
0.000430771
9.75703e-06
9.375e-06
0.000430428
1.72946e-05
1.33786e-05
0.000437515
1.30816e-05
-3.07278e-06
0.000456753
7.73239e-06
-3.06126e-05
0.000481355
1.02837e-06
-5.19851e-05
-9.97392e-06
-6.25266e-05
0.000562929
-1.61044e-05
-5.86526e-05
0.000574856
-1.42314e-05
-6.29631e-05
0.000573815
-1.1425e-05
-6.27951e-05
0.000552867
-1.09414e-05
-5.76456e-05
0.000521518
-5.05972e-06
-4.644e-05
0.000497182
1.16684e-05
-2.80409e-05
0.000486757
2.71907e-05
-6.29438e-06
0.000485813
2.40408e-05
1.07976e-05
0.000488157
3.54267e-06
1.91907e-05
0.000489332
-1.49245e-05
2.30352e-05
0.000487263
-1.944e-05
2.66235e-05
0.000481867
-1.4582e-05
2.41668e-05
0.000476231
-8.35049e-06
9.12306e-06
0.000475184
-1.70604e-06
-1.16766e-05
0.000479672
1.79789e-06
-2.21922e-05
0.000483347
-3.40675e-06
-1.52145e-05
0.000480849
-1.31131e-05
1.14555e-06
0.000475638
-1.38506e-05
1.11434e-05
0.000476196
1.1291e-07
6.6826e-06
0.000485387
1.06775e-05
-3.78616e-06
0.000499001
-8.34439e-06
-7.33414e-06
0.000510729
-5.19241e-05
1.47926e-06
0.000514982
-7.31376e-05
1.66628e-05
0.000504827
-4.01278e-05
3.05132e-05
0.000481279
1.83618e-05
4.12033e-05
0.000455281
5.82186e-05
4.60503e-05
0.000435665
6.56773e-05
4.18863e-05
0.000424063
5.22748e-05
3.3403e-05
0.000420176
3.54017e-05
2.80193e-05
0.000424471
2.35746e-05
2.52968e-05
0.000436472
1.25926e-05
1.88963e-05
0.000452365
-1.95259e-06
7.66004e-06
0.000465831
-1.12947e-05
5.27662e-07
0.000472614
-3.22829e-06
5.2847e-06
0.000474806
1.64061e-05
1.85532e-05
0.000477487
2.95533e-05
2.40761e-05
0.000485113
2.92705e-05
1.18091e-05
0.000501064
1.97323e-05
-1.38844e-05
0.000523857
4.49564e-06
-3.73048e-05
-9.72488e-06
-5.12722e-05
0.000617092
-2.87658e-05
-4.9725e-05
0.00063069
-1.9881e-05
-5.18946e-05
0.00063069
-2.61494e-06
-5.6852e-05
0.000617392
8.06216e-06
-6.2162e-05
0.000598403
1.16946e-05
-6.05819e-05
0.0005813
1.95281e-05
-4.63865e-05
0.000566877
3.00023e-05
-2.17918e-05
0.000552542
2.9224e-05
1.94746e-06
0.000538829
1.28047e-05
1.6644e-05
0.00052969
-7.17157e-06
2.45779e-05
0.000527886
-1.96351e-05
3.18969e-05
0.000534341
-2.55807e-05
3.55679e-05
0.000548019
-2.87939e-05
2.74683e-05
0.000564484
-2.6901e-05
1.07076e-05
0.000574466
-1.93553e-05
-9.0332e-07
0.000569701
-1.31845e-05
4.47294e-06
0.000551869
-1.13781e-05
2.38744e-05
0.000533375
-4.39418e-06
4.22676e-05
0.000527783
1.28106e-05
4.18085e-05
0.000537038
2.77541e-05
1.76988e-05
0.000551868
1.81181e-05
-9.16293e-06
0.000562753
-1.77958e-05
-1.2607e-05
0.000564554
-4.84379e-05
9.60718e-06
0.000553606
-3.64303e-05
3.42509e-05
0.000530844
1.37319e-05
4.51177e-05
0.00050613
6.18832e-05
4.39457e-05
0.000489384
8.16376e-05
3.63752e-05
0.000482382
7.48628e-05
2.77857e-05
0.000481851
5.58569e-05
2.20696e-05
0.000485338
3.72215e-05
1.84931e-05
0.000492601
2.27174e-05
1.4536e-05
0.00050366
1.15943e-05
9.60144e-06
0.000516343
6.31651e-06
5.91124e-06
0.000527219
1.09027e-05
9.04959e-06
0.000533953
2.2205e-05
2.20068e-05
0.000537135
3.03006e-05
3.64785e-05
0.000540779
2.99365e-05
3.59806e-05
0.000550465
2.04612e-05
1.36059e-05
0.000569713
2.21403e-06
-1.98236e-05
-1.89276e-05
-4.25424e-05
0.000671462
-3.52367e-05
-5.037e-05
0.00068416
-2.06814e-05
-5.38117e-05
0.000683107
6.16253e-06
-5.14928e-05
0.000669205
2.55419e-05
-5.25428e-05
0.000651122
2.98464e-05
-5.57627e-05
0.000639398
2.81916e-05
-5.22915e-05
0.000636182
2.79393e-05
-3.89478e-05
0.000633893
2.53887e-05
-2.10811e-05
0.000624454
1.53609e-05
-4.96918e-06
0.000608155
-7.06254e-08
8.4844e-06
0.000593102
-1.6006e-05
2.21492e-05
0.000589118
-3.25648e-05
3.56158e-05
0.000601584
-5.02966e-05
4.1499e-05
0.000626623
-6.19667e-05
3.49564e-05
0.000648701
-5.81068e-05
2.31423e-05
0.000650647
-3.98977e-05
1.92377e-05
0.000630436
-1.756e-05
2.98203e-05
0.000603229
5.4139e-06
4.59759e-05
0.000586109
2.6668e-05
4.70491e-05
0.00058439
3.67991e-05
2.12514e-05
0.000592567
2.49274e-05
-1.68748e-05
0.000604292
-5.36854e-06
-3.75439e-05
0.000612502
-3.37371e-05
-2.17948e-05
0.00061085
-3.40825e-05
1.34782e-05
0.000599232
7.82273e-08
3.97041e-05
0.000586948
4.58789e-05
4.47669e-05
0.000581978
7.66622e-05
3.26418e-05
0.000582297
8.31454e-05
1.23878e-05
0.000581639
7.07771e-05
-5.64334e-06
0.000578218
4.90718e-05
-1.24687e-05
0.000575161
2.72816e-05
-6.2464e-06
0.000575371
1.3587e-05
6.2414e-06
0.000578103
1.19749e-05
1.79363e-05
0.000580604
1.89025e-05
2.69199e-05
0.000581986
2.50577e-05
3.70564e-05
0.000583981