/*--------------------------------*- C++ -*----------------------------------*\
| =========                 |                                                 |
| \\      /  F ield         | OpenFOAM: The Open Source CFD Toolbox           |
|  \\    /   O peration     | Version:  2306                                  |
|   \\  /    A nd           | Website:  www.openfoam.com                      |
|    \\/     M anipulation  |                                                 |
\*---------------------------------------------------------------------------*/
FoamFile
{
    version     2.0;
    format      ascii;
    arch        "LSB;label=32;scalar=64";
    class       volScalarField;
    location    "1";
    object      pMean;
}
// * * * * * * * * * * * * * * * * * * * * * * * * * * * * * * * * * * * * * //

dimensions      [0 2 -2 0 0 0 0];

internalField   nonuniform List<scalar> 
60000
(
6.95926e-05
0.000127712
0.000161498
0.000182899
0.000201461
0.000201453
0.000169728
0.00012744
0.00011795
0.000163184
0.00023139
0.000274884
0.000269484
0.000228483
0.000181121
0.000138309
9.56752e-05
5.40939e-05
2.63427e-05
2.51792e-05
6.14381e-05
0.000117474
0.000159614
0.000174468
0.000166397
0.000151987
0.000169173
0.000227206
0.000277613
0.000288205
0.000277536
0.000269378
0.000264245
0.000246105
0.000212134
0.000167413
0.000105596
2.84929e-05
-1.50384e-05
6.93023e-06
6.63352e-05
0.000125047
0.000159675
0.000181408
0.000199849
0.000199626
0.000167513
0.000124858
0.000115195
0.000160721
0.000229904
0.000274292
0.00026937
0.000228632
0.000181514
0.000139026
9.64233e-05
5.46432e-05
2.65373e-05
2.52116e-05
6.14247e-05
0.000117466
0.000159229
0.000173322
0.00016457
0.000149559
0.000166365
0.000224984
0.000276547
0.000288117
0.000278221
0.000270953
0.000266481
0.000248779
0.000214837
0.000170374
0.00010813
2.94787e-05
-1.6236e-05
3.96223e-06
6.17122e-05
0.000121882
0.000157724
0.000179894
0.000198571
0.000198747
0.000166548
0.000122548
0.000111083
0.000156452
0.000227594
0.000274019
0.000270016
0.000229393
0.000182185
0.000139705
9.69027e-05
5.46617e-05
2.60717e-05
2.46692e-05
6.11576e-05
0.000117305
0.000158597
0.000172125
0.000162846
0.000146579
0.000161971
0.000220984
0.000274226
0.000287026
0.000278163
0.000272292
0.000268881
0.000251269
0.000216798
0.000171892
0.000108802
2.8063e-05
-2.014e-05
-1.24853e-06
5.59304e-05
0.000118367
0.000155802
0.000178459
0.000197672
0.00019878
0.000166762
0.000120952
0.000106331
0.000150452
0.000224075
0.000274017
0.000271714
0.000231032
0.000183229
0.000140328
9.71573e-05
5.40474e-05
2.48404e-05
2.37345e-05
6.1065e-05
0.000117523
0.000158061
0.000170914
0.000161164
0.000143244
0.000156568
0.00021591
0.000271015
0.000284778
0.000276883
0.000273128
0.000271411
0.000253592
0.000217872
0.000171792
0.000107034
2.37014e-05
-2.68615e-05
-8.52854e-06
4.89517e-05
0.000113729
0.000153083
0.000176542
0.000196438
0.00019884
0.00016799
0.00012142
0.000103278
0.000144105
0.000218895
0.000273209
0.000274071
0.000233668
0.000184882
0.000141144
9.71585e-05
5.30481e-05
2.28385e-05
2.23209e-05
6.10552e-05
0.000117874
0.000157263
0.000169485
0.000159497
0.000139979
0.000151192
0.000211054
0.000268206
0.000282275
0.000274441
0.000273084
0.000274295
0.000256818
0.000219511
0.000172329
0.00010447
1.73557e-05
-3.54102e-05
-1.7226e-05
4.07251e-05
0.000107326
0.000147971
0.000172765
0.00019397
0.000197593
0.000168525
0.000124099
0.000104253
0.000140753
0.000213563
0.000270792
0.000276079
0.000237132
0.00018738
0.000142502
9.725e-05
5.13726e-05
1.95366e-05
1.94673e-05
5.99894e-05
0.000116989
0.000153064
0.00016371
0.000155456
0.000135962
0.000145861
0.000207041
0.000267239
0.000281899
0.000272884
0.000272668
0.000277479
0.000261729
0.000223832
0.000176942
0.00010616
1.01812e-05
-4.61757e-05
-2.77185e-05
2.86518e-05
9.93348e-05
0.000140746
0.000165359
0.00018855
0.000194343
0.000166613
0.000125095
0.000108451
0.000142926
0.000211865
0.000268224
0.00027701
0.000240834
0.000190675
0.000144535
9.75806e-05
4.89463e-05
1.40075e-05
1.29853e-05
5.61258e-05
0.000115601
0.000148487
0.000152456
0.00014352
0.000126043
0.000137546
0.000201641
0.000266811
0.000285084
0.000276271
0.000275215
0.000280952
0.000266676
0.000230739
0.000187953
0.000118048
1.26736e-05
-5.84129e-05
-4.38735e-05
9.4278e-06
8.86208e-05
0.000133303
0.000156217
0.000179136
0.000188055
0.000162728
0.00012347
0.00010923
0.000145554
0.000215388
0.000269051
0.000278118
0.000244499
0.000194633
0.000147084
9.79651e-05
4.57974e-05
6.51735e-06
3.11635e-06
4.98639e-05
0.000117157
0.000150766
0.000145755
0.000128356
0.00010824
0.000122514
0.000192398
0.00026322
0.000284352
0.000279149
0.000283387
0.000287382
0.000269329
0.000233685
0.000200471
0.00014031
2.73442e-05
-6.40858e-05
-6.40728e-05
-1.41608e-05
7.42383e-05
0.00012495
0.000146659
0.000167215
0.000178834
0.000157925
0.000121443
0.000107891
0.000140645
0.000212309
0.000271586
0.000281052
0.00024848
0.000199486
0.0001506
9.83262e-05
4.21037e-05
-4.48023e-07
-4.47848e-06
4.76558e-05
0.00012699
0.000166671
0.000151597
0.000116703
8.61494e-05
0.000101438
0.000179763
0.000258298
0.000280941
0.000275016
0.000282269
0.000290535
0.000268972
0.000229899
0.000206343
0.000166105
5.34397e-05
-6.12607e-05
-8.37266e-05
-4.27347e-05
5.45248e-05
0.000115359
0.000136896
0.000154593
0.000167953
0.000152123
0.000119055
0.000105126
0.000132183
0.000198123
0.000261571
0.000279467
0.000251154
0.000204255
0.000155542
9.97249e-05
3.81441e-05
-6.01793e-06
-5.83661e-06
5.57744e-05
0.000150141
0.000199585
0.000174431
0.000116427
6.73549e-05
7.83246e-05
0.000162913
0.00024928
0.000274357
0.000268339
0.00027943
0.000289359
0.000265502
0.000221501
0.00020414
0.00018852
8.85103e-05
-4.70562e-05
-9.8149e-05
-6.80686e-05
3.06876e-05
0.00010298
0.000128595
0.000144519
0.000158189
0.00014736
0.000117798
0.000102175
0.000123163
0.000180321
0.000240239
0.000261677
0.000242031
0.000204069
0.000161643
0.000103968
3.67669e-05
-9.6561e-06
-2.85857e-06
7.14227e-05
0.000183825
0.000249117
0.000217044
0.000133601
6.27936e-05
6.13413e-05
0.000142519
0.000231358
0.000258468
0.000257215
0.000276169
0.000289499
0.000266218
0.000217996
0.000200948
0.000205509
0.000129337
-1.77228e-05
-0.000100262
-7.97707e-05
6.28024e-06
8.7646e-05
0.000121072
0.000137569
0.00015076
0.000143758
0.000117454
0.00010239
0.00011795
0.000166149
0.000217121
0.000234
0.000214894
0.000187753
0.000157987
0.000109494
4.34706e-05
-3.33573e-06
6.57349e-06
8.94123e-05
0.000214983
0.000302245
0.000276908
0.000174039
8.1055e-05
6.08172e-05
0.000124764
0.000204863
0.000236597
0.000243861
0.000274445
0.000295798
0.000274859
0.000225826
0.000203174
0.000219098
0.000169674
2.62459e-05
-8.41138e-05
-7.29194e-05
-8.22367e-06
7.16863e-05
0.000113022
0.000131001
0.000143761
0.000141096
0.000118048
0.000101439
0.000115411
0.000158576
0.000201523
0.000208843
0.000180376
0.000156837
0.000142993
0.000109736
5.65168e-05
1.79046e-05
2.90973e-05
0.000105804
0.000230418
0.00033561
0.000335712
0.000230769
0.000121209
8.14357e-05
0.000117677
0.00017801
0.000213263
0.000234258
0.000274446
0.000302871
0.000287813
0.000243719
0.00021409
0.000229541
0.000201386
7.76638e-05
-4.94684e-05
-4.50339e-05
-3.63142e-06
6.28358e-05
0.000107641
0.000125493
0.000135184
0.000136231
0.000118219
0.000100771
0.000113546
0.00015546
0.000196503
0.000198442
0.00015914
0.000129606
0.000126041
0.000103855
6.14219e-05
3.79365e-05
5.38168e-05
0.000113996
0.000222198
0.000331592
0.000368611
0.000284024
0.000169296
0.000109822
0.000114807
0.000154122
0.000192723
0.000228602
0.000275831
0.000309344
0.000299097
0.000262081
0.000229218
0.000233099
0.000217723
0.000124459
-2.4678e-07
2.72166e-06
2.01599e-05
6.62285e-05
0.000108074
0.000125214
0.000127821
0.000127513
0.00011614
0.000100816
0.000111779
0.000153171
0.000195447
0.000202504
0.000167693
0.000132266
0.000122871
0.000102533
6.07931e-05
4.39569e-05
6.63865e-05
0.000114118
0.000199823
0.00030402
0.000367926
0.000317355
0.000209389
0.000131285
0.000109837
0.000132821
0.000174804
0.000220089
0.000269001
0.000303953
0.00030195
0.000274276
0.000240899
0.000229312
0.000218616
0.000159499
5.69904e-05
5.86126e-05
5.39171e-05
7.78329e-05
0.000113496
0.000128464
0.000122373
0.000114215
0.000107706
0.000101309
0.000112051
0.00014944
0.00018993
0.000205011
0.000183205
0.000150742
0.000130729
0.000104962
5.9314e-05
3.95886e-05
7.66017e-05
0.000124262
0.000181666
0.000270251
0.000343668
0.000328716
0.000242291
0.000155948
0.00011059
0.000116037
0.000156898
0.000202494
0.00024902
0.000289187
0.000300648
0.000282429
0.000245752
0.000222097
0.000212814
0.000180368
0.000109503
0.000103915
8.67668e-05
9.53346e-05
0.000122963
0.000134734
0.000120023
0.000100721
9.09034e-05
9.41627e-05
0.000109297
0.000144402
0.000185514
0.000204253
0.000190495
0.00016318
0.000139809
0.000111625
6.60046e-05
4.68104e-05
9.26745e-05
0.000146837
0.000181718
0.000242032
0.000306073
0.000311951
0.000256275
0.000179648
0.000124149
0.000113063
0.000142749
0.000188345
0.000235463
0.000269794
0.000284682
0.000283063
0.000248641
0.000215102
0.000204076
0.000190299
0.00014573
0.00013617
0.00011863
0.000115872
0.000132648
0.000139853
0.000117788
8.80573e-05
7.26357e-05
7.96409e-05
9.94978e-05
0.000135068
0.000182285
0.000212017
0.000201167
0.00016966
0.000143596
0.000117758
7.65735e-05
6.19527e-05
0.000105573
0.000159206
0.000186757
0.000225263
0.000274167
0.000289373
0.000252565
0.000186246
0.000131456
0.00011778
0.000143468
0.000188228
0.000233714
0.000268561
0.000283797
0.00027477
0.000236135
0.000195897
0.000183513
0.000182083
0.000160832
0.000142383
0.000134593
0.000138763
0.000147304
0.00014426
0.000115893
8.00901e-05
5.66218e-05
5.33835e-05
7.35977e-05
0.000109504
0.000160985
0.000206615
0.000213987
0.000186508
0.000160694
0.000139525
0.00010652
8.75557e-05
0.000112839
0.000155256
0.000181725
0.000216098
0.000264048
0.000278653
0.000243203
0.000181295
0.000134435
0.000123656
0.000143172
0.000178477
0.000224179
0.000265424
0.00028095
0.000265504
0.000224206
0.000178536
0.00015638
0.000158972
0.000155105
0.000134014
0.000131779
0.000135887
0.000146714
0.000144069
0.000119427
8.73801e-05
6.18465e-05
4.80971e-05
5.14504e-05
7.29301e-05
0.000114233
0.000164193
0.000190276
0.000178772
0.000162901
0.000160308
0.000146223
0.000115087
0.000108548
0.000134436
0.000165291
0.000201482
0.000255797
0.000273395
0.000229715
0.000162917
0.000119053
0.000111385
0.000128275
0.000160737
0.000205784
0.000249514
0.000265677
0.000248147
0.000211242
0.000169512
0.000140035
0.000130331
0.000134286
0.000117257
0.000130539
0.000141148
0.000145878
0.000136577
0.000113851
9.044e-05
7.16698e-05
5.56229e-05
4.7601e-05
5.38979e-05
7.70958e-05
0.000113782
0.000148733
0.000160641
0.000156364
0.000156279
0.000155096
0.000132405
0.000106741
0.000114303
0.000151878
0.000201511
0.000256044
0.000269932
0.000217971
0.000134111
7.69465e-05
7.11841e-05
0.000100521
0.000145694
0.000193507
0.000234321
0.000251912
0.000241667
0.000215024
0.000178975
0.000142215
0.000114897
0.000108646
0.000114632
0.000122107
0.000133761
0.000139446
0.000131846
0.000114485
9.56373e-05
7.92251e-05
6.64759e-05
6.04984e-05
6.29357e-05
7.21387e-05
8.73685e-05
0.000109878
0.000134165
0.000149527
0.00015665
0.000156213
0.000140697
0.000120943
0.000123378
0.000150716
0.000194878
0.000248569
0.000269997
0.00022315
0.000134398
6.012e-05
4.18772e-05
7.37026e-05
0.000130558
0.000189049
0.000231427
0.000244757
0.0002292
0.000211186
0.000203408
0.000185683
0.000152834
0.000122613
0.000119811
0.000108466
0.000110504
0.000116603
0.000118522
0.000115715
0.000106949
9.1882e-05
7.86738e-05
7.64197e-05
8.29134e-05
9.12175e-05
9.88692e-05
0.000108893
0.000125609
0.000144984
0.000157461
0.00015846
0.000149691
0.000139041
0.00013885
0.000155428
0.000187616
0.000227324
0.000245632
0.000217122
0.000149769
8.66482e-05
6.17807e-05
8.07829e-05
0.000127259
0.000179728
0.000217098
0.000228639
0.000219775
0.000208818
0.000205903
0.000195916
0.00017107
0.000142287
9.06671e-05
7.93949e-05
8.71853e-05
0.000102207
0.000115705
0.000124163
0.000123943
0.000113304
0.000100521
9.52413e-05
9.52501e-05
9.66468e-05
0.000103995
0.000119753
0.000136112
0.000149666
0.000163421
0.000169603
0.000163835
0.00015183
0.000144144
0.000147073
0.000164261
0.00019407
0.000215748
0.000205807
0.000159503
0.000106598
8.04466e-05
8.86901e-05
0.0001204
0.00015956
0.00019345
0.000207714
0.000206001
0.000203643
0.000206602
0.000199795
0.000170348
0.000126096
7.27481e-05
5.14032e-05
5.85053e-05
8.09087e-05
0.000105067
0.000121177
0.000126069
0.00011947
0.000108289
0.000103934
0.000109818
0.000117073
0.000119023
0.000122017
0.000137633
0.00016376
0.000187441
0.000198042
0.000191137
0.000166915
0.000141039
0.000130379
0.000132505
0.000148404
0.000177159
0.000188659
0.000166886
0.000129666
0.000105004
0.000104447
0.000124614
0.000151127
0.000176355
0.000192801
0.000202129
0.00020764
0.000212454
0.000200477
0.000167185
0.000118373
-5.08212e-05
-6.5672e-08
6.30458e-05
0.000119986
0.000160617
0.000170435
0.000144879
0.000108293
0.000101452
0.000140442
0.000193179
0.000217355
0.000201872
0.000169257
0.000145335
0.000129474
0.000106527
7.18549e-05
3.92361e-05
3.38533e-05
7.39137e-05
0.000149393
0.000221554
0.000260671
0.000271496
0.000270034
0.000269053
0.000281738
0.000304349
0.000321303
0.000332718
0.000342705
0.000341624
0.000317917
0.000291012
0.000271143
0.000217998
0.000113022
-1.0397e-06
-5.94503e-05
-5.19973e-05
-2.39634e-06
5.99251e-05
0.000117115
0.000158436
0.000168726
0.000143448
0.000106629
9.95348e-05
0.000138988
0.000192379
0.000216966
0.000201604
0.000169015
0.000145219
0.000129586
0.000106835
7.22035e-05
3.92522e-05
3.30652e-05
7.19217e-05
0.000146278
0.000217743
0.000256615
0.00026771
0.000267147
0.000267211
0.000280414
0.000302888
0.000319626
0.000331452
0.000342472
0.000342467
0.000319479
0.00029284
0.00027342
0.000221299
0.000116515
1.28879e-06
-5.8853e-05
-5.57147e-05
-5.98657e-06
5.6372e-05
0.000114321
0.000156803
0.000167938
0.000142418
0.000104582
9.64931e-05
0.000136313
0.000190966
0.000216316
0.000201002
0.000168302
0.000144763
0.000129659
0.000107268
7.25882e-05
3.90841e-05
3.19972e-05
6.98879e-05
0.000143615
0.000214798
0.000253371
0.000264351
0.00026455
0.000265729
0.000279197
0.00030085
0.000316644
0.000328829
0.000341871
0.000343976
0.000321564
0.000294846
0.000276347
0.000225432
0.000119657
1.4544e-06
-6.13732e-05
-6.25117e-05
-1.08604e-05
5.24924e-05
0.000111437
0.000155303
0.000167535
0.00014188
0.000102412
9.2488e-05
0.000132247
0.000188579
0.00021517
0.000199842
0.000166837
0.00014373
0.000129565
0.000107563
7.29033e-05
3.86869e-05
3.106e-05
6.89271e-05
0.000143032
0.000214445
0.000252521
0.00026256
0.000262706
0.000264659
0.000278302
0.000298809
0.000312832
0.000324574
0.000339892
0.00034533
0.000323994
0.000296915
0.00027978
0.00023012
0.000121389
-2.08285e-06
-6.8342e-05
-7.26366e-05
-1.74998e-05
4.76058e-05
0.000107574
0.000152963
0.000166781
0.000142029
0.000101836
8.96252e-05
0.000127705
0.000184825
0.000213
0.000198003
0.000164508
0.000141848
0.000129046
0.000107651
7.26645e-05
3.78887e-05
3.00821e-05
6.88428e-05
0.00014421
0.000216137
0.000253618
0.00026244
0.000261895
0.00026395
0.000277746
0.000297542
0.000309614
0.000319505
0.00033559
0.000344508
0.000325544
0.00029883
0.000283734
0.000235938
0.000122332
-9.03891e-06
-7.98502e-05
-8.58859e-05
-2.61172e-05
4.04744e-05
0.000100712
0.000147767
0.00016398
0.000141696
0.00010325
9.05635e-05
0.000126017
0.000180874
0.000209416
0.000195532
0.000161896
0.000139465
0.000128165
0.000107665
7.21613e-05
3.62472e-05
2.79738e-05
6.77521e-05
0.000144377
0.000216347
0.000252258
0.000260305
0.000260677
0.000263372
0.000277389
0.00029747
0.000308766
0.000316141
0.000330071
0.000340026
0.000323436
0.000299571
0.000289089
0.000243403
0.000124599
-1.75567e-05
-9.51489e-05
-0.000101814
-3.60194e-05
3.23055e-05
9.0515e-05
0.000137801
0.000156904
0.00013805
0.000103435
9.34882e-05
0.000128934
0.000180126
0.00020559
0.000192329
0.000159627
0.000137608
0.0001276
0.000107921
7.15321e-05
3.3191e-05
2.21816e-05
6.13676e-05
0.000139465
0.000211393
0.000244347
0.000249353
0.000251562
0.000258679
0.000275613
0.000297838
0.00031082
0.000316751
0.000326371
0.000332958
0.000315674
0.000295858
0.000296236
0.000256693
0.000131871
-2.22217e-05
-0.000110943
-0.000117626
-4.72992e-05
2.45655e-05
8.06847e-05
0.000125964
0.000147318
0.000132266
0.000101076
9.21737e-05
0.000127152
0.000179202
0.000203221
0.000189213
0.00015762
0.000136518
0.000127762
0.000108551
7.0641e-05
2.83394e-05
1.10186e-05
4.60692e-05
0.000126319
0.000201249
0.000231105
0.000230792
0.000232217
0.000243609
0.000266644
0.000294654
0.00031187
0.000320054
0.000326636
0.000327024
0.000304111
0.000285327
0.000300705
0.000277681
0.000150441
-1.66255e-05
-0.0001192
-0.000128195
-5.88423e-05
1.6676e-05
7.2154e-05
0.000115051
0.000138054
0.000126989
9.88985e-05
8.90588e-05
0.000119175
0.000169737
0.000196754
0.000185641
0.000155854
0.000135853
0.000128228
0.000108942
6.896e-05
2.26293e-05
-2.3288e-06
2.48654e-05
0.000105589
0.000187344
0.000217865
0.000210223
0.000207683
0.000219719
0.000249193
0.00028705
0.000309871
0.000317602
0.00032379
0.000323243
0.000294549
0.000271106
0.000299432
0.000301964
0.000181915
1.59469e-06
-0.000116891
-0.00013201
-7.08802e-05
7.74604e-06
6.42608e-05
0.000105596
0.000129953
0.00012263
9.68835e-05
8.63879e-05
0.000111214
0.000156777
0.000183735
0.000177536
0.000152562
0.000134832
0.000128561
0.000108664
6.61383e-05
1.81202e-05
-9.87939e-06
1.01684e-05
8.73526e-05
0.000174202
0.000207981
0.000193956
0.000182923
0.000190911
0.000224831
0.000275294
0.00030657
0.000314508
0.000318592
0.000318579
0.000290587
0.000261322
0.00029414
0.000324114
0.000222584
3.21611e-05
-0.000106507
-0.000132928
-8.49204e-05
-4.31564e-06
5.66482e-05
9.90171e-05
0.000124706
0.000119934
9.53144e-05
8.41002e-05
0.000104495
0.000144463
0.000168184
0.00016271
0.000142304
0.000129694
0.000127395
0.000107735
6.21915e-05
1.50946e-05
-8.05044e-06
1.25016e-05
8.4874e-05
0.000171659
0.000206517
0.000185906
0.000163497
0.000164113
0.00019674
0.00025787
0.000300471
0.000312428
0.000316574
0.000319292
0.000295509
0.00026371
0.000293724
0.000342231
0.000267079
7.49381e-05
-8.66658e-05
-0.000124473
-9.47116e-05
-2.0167e-05
4.57448e-05
9.36815e-05
0.000122635
0.000119812
9.39284e-05
7.97082e-05
9.7948e-05
0.000135076
0.000155426
0.000146313
0.000125588
0.000116299
0.000119995
0.0001052
5.99017e-05
1.44294e-05
4.83884e-07
3.02919e-05
9.9976e-05
0.000183171
0.000217472
0.000191407
0.000157674
0.000147457
0.000169636
0.000232531
0.000285881
0.000307182
0.000314358
0.000321341
0.000306043
0.00027679
0.000301883
0.00035863
0.000309472
0.000127541
-5.23785e-05
-0.000100147
-9.38788e-05
-3.29756e-05
3.4371e-05
8.70851e-05
0.000120008
0.000119402
9.24899e-05
7.50327e-05
9.31313e-05
0.000131939
0.000151223
0.00013634
0.000110223
0.000100743
0.000109457
0.000101443
6.04007e-05
1.83601e-05
1.15477e-05
5.00655e-05
0.000116268
0.000196548
0.00023515
0.000209716
0.000167914
0.000146438
0.000152916
0.000202833
0.000258812
0.000292174
0.000310401
0.000322662
0.000315062
0.000290569
0.00031044
0.000366717
0.000341151
0.000180588
-4.71385e-06
-5.86625e-05
-7.45089e-05
-3.22545e-05
2.77455e-05
8.02854e-05
0.000115562
0.000118068
9.32634e-05
7.39864e-05
9.32821e-05
0.000135781
0.000156666
0.000138456
0.000107378
9.46711e-05
0.000104722
9.89867e-05
6.37194e-05
2.94286e-05
2.94518e-05
6.41177e-05
0.000119987
0.000194314
0.000245314
0.000232573
0.000190136
0.000157544
0.000149641
0.000177961
0.000225923
0.000264274
0.000293113
0.000316634
0.000318211
0.0002977
0.000307295
0.000354655
0.000350442
0.000221814
4.84852e-05
-3.39484e-06
-3.60971e-05
-1.51427e-05
3.14e-05
7.67295e-05
0.000109236
0.00011387
9.49459e-05
7.8209e-05
9.7732e-05
0.000142286
0.000167044
0.00015478
0.000127739
0.00011198
0.00010751
8.99899e-05
5.69313e-05
3.43103e-05
4.51929e-05
7.56428e-05
0.000116754
0.00018384
0.00024718
0.000253308
0.000214029
0.000170661
0.000151877
0.0001612
0.000195992
0.000236775
0.000270653
0.000299701
0.000311044
0.000297299
0.00029624
0.000324662
0.000333395
0.000245786
0.000101909
6.28125e-05
2.14099e-05
1.9127e-05
4.42151e-05
7.58305e-05
9.87439e-05
0.00010345
9.09789e-05
8.38688e-05
0.000105073
0.000148047
0.00017579
0.000170462
0.000148397
0.000129058
0.000113012
8.09946e-05
3.96774e-05
2.71666e-05
5.71769e-05
9.40459e-05
0.000122523
0.00017778
0.000245207
0.000269902
0.000237456
0.000183375
0.000147586
0.000151094
0.00017787
0.000216454
0.000253018
0.000286817
0.000309254
0.000301303
0.000286057
0.000294147
0.000300715
0.000251867
0.000150262
0.000119055
8.60705e-05
7.54693e-05
7.89106e-05
8.34337e-05
8.46388e-05
8.44732e-05
7.83254e-05
8.13087e-05
0.000106917
0.000150853
0.000183042
0.000183628
0.000164867
0.000143483
0.000121765
8.84929e-05
4.45105e-05
2.9792e-05
6.92774e-05
0.000118666
0.000141305
0.000178725
0.000236681
0.000270035
0.00024565
0.000191154
0.000151405
0.000144195
0.000164901
0.000205263
0.000244639
0.000277607
0.000304282
0.000304208
0.0002779
0.000266876
0.000274409
0.000252716
0.000184002
0.000162378
0.00013684
0.000126135
0.000118856
0.000102334
8.23328e-05
6.76742e-05
5.86409e-05
6.57612e-05
9.89643e-05
0.000148938
0.000187392
0.000197013
0.000180769
0.000154067
0.000127273
9.9395e-05
6.42011e-05
4.33323e-05
7.68758e-05
0.000132739
0.000163327
0.000190465
0.000232573
0.000262512
0.000244571
0.000193313
0.000152042
0.000141602
0.000159255
0.000195765
0.000238078
0.000275756
0.000298203
0.000293747
0.000259885
0.000235092
0.000239178
0.000238374
0.000204765
0.000175578
0.000162185
0.000167194
0.00016064
0.000130473
8.77089e-05
5.76799e-05
4.36917e-05
4.35753e-05
6.80828e-05
0.000114038
0.000167158
0.000203914
0.00020288
0.000171019
0.000136619
0.000115539
9.16222e-05
6.87894e-05
8.06665e-05
0.000127724
0.000167893
0.000202576
0.000239964
0.000256921
0.00023324
0.000186902
0.0001523
0.000142002
0.000154576
0.00018403
0.000223423
0.000263427
0.000285227
0.000278356
0.000242187
0.00020228
0.000192662
0.000204263
0.000200239
0.000173574
0.000166474
0.00016498
0.00016073
0.000143582
0.000108849
7.08153e-05
4.45854e-05
3.23858e-05
3.93677e-05
7.05996e-05
0.00011632
0.000159686
0.000184473
0.000177793
0.000153492
0.000137074
0.000123814
9.68084e-05
8.09431e-05
0.000100878
0.000145426
0.000194686
0.000239699
0.000252898
0.00021988
0.00017308
0.000146129
0.000140811
0.000153457
0.000177796
0.000208563
0.000242739
0.000261318
0.000254397
0.000225901
0.000187459
0.000164107
0.000169846
0.000179204
0.000159458
0.000163237
0.000168922
0.00016819
0.0001467
0.000109762
7.72623e-05
5.44699e-05
3.51202e-05
2.60698e-05
3.67965e-05
6.61918e-05
0.000103111
0.00013706
0.000155109
0.000154946
0.000148599
0.000138031
0.000115358
9.37012e-05
0.000100725
0.000138813
0.000189811
0.00023309
0.00024102
0.000204517
0.000152015
0.000121017
0.000119761
0.000143201
0.000177358
0.000208728
0.000231534
0.000241754
0.000239426
0.000225876
0.000195828
0.000159671
0.00014481
0.000151901
0.000152284
0.000159229
0.000166307
0.000164919
0.000144326
0.000112916
8.71816e-05
7.18071e-05
6.02618e-05
4.90612e-05
4.41451e-05
4.85836e-05
6.2203e-05
8.42739e-05
0.000110998
0.000132958
0.000143248
0.000141595
0.00012943
0.000117525
0.000122137
0.00014717
0.00018593
0.000223311
0.000234429
0.000203084
0.000148164
0.000104685
9.26931e-05
0.000119518
0.000165294
0.000207031
0.000230823
0.000233331
0.000223238
0.000215491
0.000212384
0.000193454
0.000164844
0.000150289
0.000144049
0.000142214
0.000142415
0.000139751
0.000127655
0.000113437
0.000101281
8.97774e-05
8.19639e-05
8.30637e-05
8.86902e-05
9.07813e-05
8.88719e-05
8.85214e-05
9.8669e-05
0.000118319
0.00013392
0.000135973
0.000127671
0.000121942
0.000129558
0.000150641
0.000179048
0.000207197
0.000218568
0.00019768
0.000150669
0.000104787
8.55208e-05
0.000105711
0.000147754
0.00019181
0.000219308
0.000223716
0.000214662
0.000210092
0.000211586
0.000201935
0.00017711
0.00015443
0.000116445
0.000107212
0.000107066
0.000110497
0.000113391
0.000117102
0.000119113
0.000112451
0.000100426
9.28845e-05
9.38658e-05
0.000100457
0.000108629
0.000117568
0.000126527
0.000136437
0.000145716
0.000148338
0.000143397
0.000136152
0.000133939
0.000141824
0.000160183
0.00018283
0.000197244
0.000189993
0.000155984
0.000114028
9.35303e-05
0.000105283
0.000135798
0.000169537
0.00019696
0.000207054
0.000203814
0.000203131
0.000209284
0.000204052
0.000177181
0.000141897
8.37667e-05
6.06328e-05
6.12668e-05
7.80272e-05
9.92233e-05
0.000116958
0.000125724
0.000122463
0.000111233
0.000104037
0.000108487
0.000116833
0.000121435
0.000126702
0.000141362
0.000162735
0.000179896
0.000184349
0.000175112
0.000153447
0.000132307
0.000125113
0.000133494
0.000151479
0.000173049
0.00018112
0.000163444
0.00013408
0.000119041
0.000124786
0.000141386
0.000158887
0.000176709
0.000189925
0.000199589
0.000207683
0.00021469
0.000204594
0.000171763
0.000125409
1.87441e-06
4.89122e-07
2.24347e-05
5.72371e-05
0.0001017
0.000135633
0.000136455
0.00011099
9.43303e-05
0.000110186
0.000140274
0.000152692
0.000141425
0.000126688
0.000122812
0.00011937
0.000102431
7.80125e-05
6.19327e-05
6.68571e-05
0.000102664
0.000168957
0.000238035
0.000276664
0.000284557
0.000276149
0.000269116
0.000283715
0.000315923
0.000348512
0.000381342
0.000404509
0.000397368
0.000355972
0.000318692
0.000292144
0.000250008
0.000184519
0.000110748
4.19806e-05
2.5419e-06
7.07046e-07
2.23984e-05
5.6925e-05
0.000101163
0.000135252
0.000136485
0.000111297
9.46285e-05
0.000110433
0.000140592
0.000153023
0.000141572
0.000126485
0.000122545
0.000119211
0.000102236
7.74682e-05
6.09627e-05
6.55376e-05
0.000100983
0.000166949
0.000235875
0.000274223
0.000281843
0.000273232
0.000265596
0.000279309
0.000311066
0.000343697
0.000377336
0.000402402
0.000397268
0.000356543
0.000319807
0.000294288
0.000252723
0.00018721
0.000113063
4.34255e-05
1.7045e-06
-5.20129e-07
2.12898e-05
5.57003e-05
9.99104e-05
0.000134561
0.000136511
0.000111423
9.4209e-05
0.000109688
0.000140069
0.000152602
0.000140897
0.000125616
0.000122004
0.000119198
0.000102367
7.70601e-05
6.00007e-05
6.41644e-05
9.91519e-05
0.00016489
0.000233992
0.000272419
0.000279926
0.00027136
0.00026293
0.000274878
0.000304887
0.000336485
0.000371358
0.000400368
0.000398745
0.000358808
0.000322404
0.000297445
0.000256086
0.000189821
0.000114509
4.3443e-05
-1.65372e-06
-3.9759e-06
1.82026e-05
5.25665e-05
9.70546e-05
0.000132812
0.00013579
0.000110586
9.22624e-05
0.000107074
0.000137853
0.000150697
0.000138778
0.000123552
0.000120943
0.000119406
0.000102929
7.69255e-05
5.92117e-05
6.31722e-05
9.81215e-05
0.000164146
0.000233817
0.000272397
0.000279509
0.000271051
0.000261946
0.000271989
0.000299377
0.000328216
0.000363504
0.000397973
0.000401821
0.000363367
0.000326984
0.000302328
0.000260301
0.000191993
0.000114289
4.13068e-05
-7.382e-06
-9.57292e-06
1.30328e-05
4.7125e-05
9.19235e-05
0.000129199
0.000133567
0.000108261
8.84489e-05
0.000101995
0.000132933
0.000146269
0.00013433
0.00011949
0.000118637
0.00011931
0.000103625
7.6857e-05
5.80916e-05
6.20676e-05
9.77345e-05
0.000165049
0.000236143
0.000274666
0.000280738
0.000271852
0.000262389
0.000271614
0.000297166
0.000321606
0.00035439
0.000393851
0.000405213
0.000370124
0.000333993
0.000309557
0.00026593
0.000194037
0.000112529
3.72174e-05
-1.4952e-05
-1.7092e-05
5.88107e-06
3.92587e-05
8.4167e-05
0.000123172
0.000129368
0.000104462
8.33262e-05
9.48322e-05
0.0001247
0.000138073
0.00012646
0.000112509
0.000114221
0.000118313
0.000104136
7.65643e-05
5.63349e-05
5.96074e-05
9.53572e-05
0.000164231
0.000238141
0.000278186
0.000283692
0.000273239
0.000262813
0.000272816
0.000299733
0.000320463
0.000346851
0.000387721
0.000407015
0.000378189
0.000343789
0.000320241
0.000274016
0.000196649
0.000109785
3.16969e-05
-2.33681e-05
-2.61172e-05
-2.75456e-06
2.88156e-05
7.27559e-05
0.000113547
0.000122512
9.95116e-05
7.84723e-05
8.78802e-05
0.000114691
0.000126006
0.000114482
0.000101828
0.000107276
0.000116186
0.000104638
7.6526e-05
5.42375e-05
5.50576e-05
8.80061e-05
0.000156133
0.000232836
0.00027642
0.000284782
0.000274314
0.000261077
0.000271451
0.000304131
0.000326185
0.000344536
0.000381216
0.000405415
0.000385042
0.000356099
0.000336146
0.000286848
0.000201422
0.000107219
2.53785e-05
-3.13124e-05
-3.55942e-05
-1.1446e-05
1.76405e-05
5.82014e-05
9.92103e-05
0.000111308
9.16064e-05
7.32209e-05
8.25052e-05
0.000105594
0.000112932
0.000100114
8.88764e-05
9.87036e-05
0.000113536
0.000105629
7.72358e-05
5.23247e-05
4.83453e-05
7.44813e-05
0.000138943
0.000218323
0.000265598
0.00027778
0.00027102
0.000255953
0.000263752
0.000299961
0.000329441
0.00034704
0.000376492
0.000400543
0.000386185
0.000368325
0.000358307
0.000307822
0.000211437
0.000107001
1.92835e-05
-3.82282e-05
-4.24552e-05
-1.8301e-05
8.28299e-06
4.43484e-05
8.33119e-05
9.63817e-05
7.93254e-05
6.36803e-05
7.32421e-05
9.33061e-05
9.80237e-05
8.51487e-05
7.66051e-05
9.05924e-05
0.000111413
0.000107209
7.84026e-05
5.04882e-05
3.97919e-05
5.47525e-05
0.000112092
0.000195463
0.000248983
0.00026371
0.000260457
0.00024674
0.000252115
0.000286677
0.000316856
0.000338744
0.00036981
0.000393073
0.00038114
0.000375397
0.000384112
0.00033928
0.000231153
0.000112265
1.57624e-05
-4.23798e-05
-4.64609e-05
-2.07575e-05
3.6406e-06
3.5185e-05
7.002e-05
8.22019e-05
6.48274e-05
4.92739e-05
5.83193e-05
7.48749e-05
7.5347e-05
6.37849e-05
6.16038e-05
8.22903e-05
0.000109442
0.000108699
7.91278e-05
4.90144e-05
3.23658e-05
3.35498e-05
7.8444e-05
0.000164509
0.000228523
0.000247233
0.000244651
0.000232023
0.00023664
0.000269769
0.000298328
0.000313989
0.000348466
0.000379842
0.00037126
0.000373117
0.00040541
0.000379879
0.000263942
0.000128046
1.84934e-05
-4.04e-05
-4.99567e-05
-2.23053e-05
6.38487e-06
3.59285e-05
6.62471e-05
7.35094e-05
5.21264e-05
3.44367e-05
4.18046e-05
5.55265e-05
5.3726e-05
4.269e-05
4.2306e-05
6.96954e-05
0.000105022
0.00010949
7.90032e-05
4.85607e-05
3.07093e-05
2.22597e-05
5.08578e-05
0.000132063
0.000207734
0.000234265
0.000231463
0.00021514
0.000218622
0.00025177
0.000282173
0.00028944
0.000313341
0.000353854
0.000358644
0.000364286
0.000415655
0.000418341
0.000308054
0.000158839