/*--------------------------------*- C++ -*----------------------------------*\
| =========                 |                                                 |
| \\      /  F ield         | OpenFOAM: The Open Source CFD Toolbox           |
|  \\    /   O peration     | Version:  2306                                  |
|   \\  /    A nd           | Website:  www.openfoam.com                      |
|    \\/     M anipulation  |                                                 |
\*---------------------------------------------------------------------------*/
FoamFile
{
    version     2.0;
    format      ascii;
    arch        "LSB;label=32;scalar=64";
    class       volVectorField;
    location    "1";
    object      UMean;
}
// * * * * * * * * * * * * * * * * * * * * * * * * * * * * * * * * * * * * * //

dimensions      [0 1 -1 0 0 0 0];

internalField   nonuniform List<vector> 
60000
(
(0.0106133 -1.41785e-05 0.0022874)
(0.010584 -2.45238e-05 0.00193296)
(0.0104712 -2.01069e-05 0.00177219)
(0.0103273 -1.41659e-05 0.00176193)
(0.0101117 -1.44908e-05 0.00169366)
(0.00964845 -1.52332e-05 0.00146741)
(0.00879888 -1.19898e-05 0.00120061)
(0.00763381 -1.01428e-05 0.00105749)
(0.00653884 -1.51947e-05 0.00106624)
(0.0059258 -2.60203e-05 0.00118511)
(0.00580091 -3.28932e-05 0.00132007)
(0.00589318 -3.05193e-05 0.00128821)
(0.00599704 -2.44777e-05 0.000996625)
(0.00608048 -1.53429e-05 0.000595543)
(0.00620884 -3.07844e-06 0.000266737)
(0.00640036 8.7073e-06 3.57326e-05)
(0.00665207 1.92152e-05 -0.000160521)
(0.0069694 2.2431e-05 -0.000400831)
(0.00733991 1.94636e-05 -0.000747021)
(0.00777354 1.32933e-05 -0.0012115)
(0.00832442 8.55402e-06 -0.00175557)
(0.00895112 5.37496e-06 -0.00226065)
(0.00947014 3.02101e-06 -0.0025791)
(0.00965229 -7.8636e-07 -0.00264943)
(0.00931007 -1.94441e-06 -0.00253796)
(0.00849119 3.96699e-06 -0.00236136)
(0.0075634 6.0439e-07 -0.00220071)
(0.00687501 -1.10111e-05 -0.00211985)
(0.00645596 -1.10282e-05 -0.00212256)
(0.0062542 2.3369e-07 -0.00208649)
(0.00633415 9.13251e-06 -0.00184795)
(0.0067115 1.82332e-05 -0.00128601)
(0.00728164 3.40196e-05 -0.000493095)
(0.00791939 4.87649e-05 0.000215028)
(0.0085806 5.85475e-05 0.000678189)
(0.00924246 5.95806e-05 0.00109471)
(0.00981032 6.53445e-05 0.00163594)
(0.0101879 6.36059e-05 0.00222914)
(0.010407 4.36097e-05 0.00263526)
(0.0105465 1.22215e-05 0.00262376)
(0.0328815 -0.000193238 0.00565416)
(0.0326607 -0.000228127 0.00474018)
(0.0322238 -0.000189901 0.00445739)
(0.031767 -0.000138044 0.00461956)
(0.0310865 -9.18254e-05 0.00458892)
(0.0296556 -3.83204e-05 0.00403856)
(0.0271989 1.25108e-07 0.00330011)
(0.0239859 -2.77135e-05 0.00290034)
(0.0209383 -0.000139382 0.0029705)
(0.0189862 -0.000264628 0.00329506)
(0.0182023 -0.000306136 0.00350507)
(0.0180274 -0.000262492 0.00322145)
(0.0180155 -0.000191072 0.00240934)
(0.0181116 -0.000113589 0.00147383)
(0.0184404 -3.2847e-05 0.000745866)
(0.0190118 3.608e-05 0.00020023)
(0.0198313 7.65929e-05 -0.00033235)
(0.0209207 7.42291e-05 -0.00102222)
(0.0222395 3.89826e-05 -0.00199694)
(0.0237845 -9.74159e-06 -0.00328923)
(0.0256066 -4.41236e-05 -0.00479098)
(0.0275143 -4.33338e-05 -0.00617092)
(0.0290508 -2.04816e-05 -0.00700419)
(0.0296551 -2.38757e-07 -0.00708031)
(0.028839 1.40436e-05 -0.00657147)
(0.0267271 2.77223e-06 -0.00590945)
(0.024186 -7.47605e-05 -0.00547003)
(0.0219576 -0.000166226 -0.00540207)
(0.0202242 -0.000184391 -0.00556559)
(0.0191642 -0.00013687 -0.00555126)
(0.0191204 -6.32071e-05 -0.0048978)
(0.0200983 4.75233e-05 -0.00335681)
(0.0217183 0.000198035 -0.00126236)
(0.0235967 0.00033474 0.000624452)
(0.02559 0.000405823 0.00198464)
(0.0276101 0.000410639 0.00322155)
(0.0294439 0.000390263 0.00463853)
(0.0309005 0.000310681 0.00604058)
(0.0319815 0.000144517 0.00687297)
(0.0326702 -5.56028e-05 0.0066441)
(0.056399 -0.000573173 0.00837698)
(0.0558573 -0.000624355 0.00675512)
(0.0550134 -0.000524063 0.00616748)
(0.0542501 -0.000394679 0.00654813)
(0.0532235 -0.000267659 0.00685114)
(0.0511352 -0.000123061 0.00628233)
(0.0476365 -2.78125e-05 0.00514809)
(0.0429491 -9.39604e-05 0.00437333)
(0.037975 -0.000359124 0.00442166)
(0.0340006 -0.000658599 0.00498155)
(0.0317208 -0.000754604 0.00530701)
(0.0307342 -0.000647464 0.0048239)
(0.0303049 -0.000470917 0.00363468)
(0.0301987 -0.000281331 0.00236706)
(0.0305613 -9.27765e-05 0.00142861)
(0.0314249 5.93996e-05 0.000728387)
(0.0328037 0.000128085 1.88766e-05)
(0.0347092 9.54237e-05 -0.000929418)
(0.0370701 -1.29433e-05 -0.00231174)
(0.0398625 -0.000146751 -0.00423151)
(0.043107 -0.000236938 -0.00659636)
(0.0464562 -0.000228114 -0.00893383)
(0.0492545 -0.000160758 -0.0105059)
(0.0507271 -0.000101133 -0.0107932)
(0.0501067 -6.47539e-05 -0.00991243)
(0.0473567 -0.000101886 -0.00859721)
(0.0434925 -0.000264323 -0.00766641)
(0.0395407 -0.00043539 -0.00752269)
(0.0359287 -0.000463937 -0.00800653)
(0.0331765 -0.00037281 -0.00845259)
(0.0321309 -0.000215057 -0.0079561)
(0.0330904 4.71551e-05 -0.00594459)
(0.0355165 0.000410948 -0.00286479)
(0.038666 0.000751356 0.000124846)
(0.0421563 0.000926048 0.00244229)
(0.0457748 0.000940614 0.00450083)
(0.0492336 0.000845289 0.0066838)
(0.052255 0.000592516 0.00879745)
(0.0546385 0.000169357 0.0101373)
(0.056084 -0.000286027 0.00992191)
(0.08022 -0.00109018 0.0109654)
(0.0791811 -0.00115517 0.0084495)
(0.0778451 -0.000979817 0.00699038)
(0.0768371 -0.000750793 0.00728277)
(0.0757223 -0.000516853 0.00818276)
(0.0735072 -0.000250374 0.00812601)
(0.0698181 -6.37203e-05 0.00684341)
(0.0646494 -0.000128845 0.00548899)
(0.0582552 -0.000527723 0.00522832)
(0.0517036 -0.00105094 0.00607911)
(0.0467378 -0.00128759 0.00684345)
(0.0440393 -0.00115861 0.00638682)
(0.0427337 -0.000873551 0.00488839)
(0.042117 -0.000553835 0.00334974)
(0.0422249 -0.000241757 0.0023467)
(0.043125 2.06072e-06 0.00172178)
(0.0448409 9.37353e-05 0.00113452)
(0.0473562 -1.51795e-06 0.000299465)
(0.0505943 -0.000233354 -0.0010616)
(0.0545697 -0.000520817 -0.00320455)
(0.0593304 -0.000716205 -0.00622047)
(0.0643751 -0.000697485 -0.00967302)
(0.0688463 -0.0005399 -0.012526)
(0.0718567 -0.000380093 -0.0137216)
(0.0723905 -0.000265425 -0.0129551)
(0.0699917 -0.000289515 -0.0110191)
(0.0654679 -0.000521894 -0.00925229)
(0.0600367 -0.000757656 -0.00860066)
(0.0543955 -0.000782187 -0.00920359)
(0.0492225 -0.000667567 -0.0104103)
(0.0458429 -0.000491002 -0.0109018)
(0.0454071 -0.000143508 -0.00939866)
(0.047804 0.00041687 -0.00602149)
(0.0519965 0.000997626 -0.0022187)
(0.0571289 0.00134048 0.00101524)
(0.0626681 0.00139881 0.00393462)
(0.0681477 0.00124339 0.00693298)
(0.0732272 0.000789682 0.0098952)
(0.0773876 6.90856e-05 0.0121542)
(0.0798542 -0.000654421 0.0126174)
(0.10281 -0.00165022 0.0134103)
(0.100938 -0.00171405 0.0105128)
(0.0989078 -0.00148375 0.00761783)
(0.0977917 -0.00115241 0.00696386)
(0.0969941 -0.000798666 0.00826797)
(0.0952434 -0.000409203 0.00931835)
(0.0922037 -0.000122404 0.00851828)
(0.0878028 -0.000123612 0.00654071)
(0.081363 -0.000540987 0.00542622)
(0.0727608 -0.00124751 0.00631494)
(0.064154 -0.00174067 0.00796513)
(0.058332 -0.00173157 0.00806346)
(0.0553197 -0.00139469 0.00631764)
(0.0537758 -0.000951963 0.0043524)
(0.0532519 -0.000517848 0.00327149)
(0.0537472 -0.000187176 0.00292979)
(0.0552725 -8.0595e-05 0.00282909)
(0.0577614 -0.000271441 0.00259981)
(0.0611511 -0.000707374 0.00189711)
(0.0656487 -0.00128041 0.000287537)
(0.0716278 -0.00171952 -0.0027082)
(0.0786309 -0.00173348 -0.00708703)
(0.0854408 -0.00139071 -0.0117861)
(0.0908949 -0.000976985 -0.0150314)
(0.0937598 -0.000648808 -0.0155523)
(0.0929907 -0.00056242 -0.0136537)
(0.088862 -0.000828516 -0.0110156)
(0.08272 -0.00110564 -0.00934073)
(0.0756777 -0.00107048 -0.00939689)
(0.0683533 -0.000894966 -0.0109662)
(0.0619281 -0.000762499 -0.0128086)
(0.0582845 -0.000506745 -0.0129783)
(0.0586546 4.9648e-05 -0.0106126)
(0.0625506 0.000742244 -0.00690799)
(0.0687958 0.00123427 -0.00323341)
(0.0763415 0.00139491 0.000393003)
(0.0841623 0.00128007 0.00425438)
(0.0917262 0.000725829 0.00822616)
(0.0982467 -0.000235482 0.0118501)
(0.102294 -0.00114685 0.0139698)
(0.122113 -0.00219547 0.0142077)
(0.119032 -0.00213898 0.0128894)
(0.115551 -0.00194017 0.00914772)
(0.114442 -0.00156361 0.00653374)
(0.11466 -0.00107367 0.00715607)
(0.114062 -0.000562247 0.00938357)
(0.112145 -0.000206254 0.0100442)
(0.109448 -0.000126556 0.00799651)
(0.104951 -0.000400655 0.00550025)
(0.0965458 -0.00108089 0.00558188)
(0.0850011 -0.001834 0.00812154)
(0.0746934 -0.00217246 0.00961323)
(0.0684164 -0.00196957 0.00807455)
(0.0652158 -0.00145527 0.00544861)
(0.0637128 -0.000903006 0.00395138)
(0.0633955 -0.000492816 0.00379945)
(0.0641073 -0.000379709 0.0043229)
(0.0656436 -0.000688214 0.00499345)
(0.0678618 -0.00142732 0.00546093)
(0.0711834 -0.0024875 0.00526481)
(0.0767252 -0.00345468 0.00358096)
(0.0848476 -0.00375049 -0.000382329)
(0.094433 -0.003276 -0.00637019)
(0.103842 -0.00236229 -0.0125395)
(0.110857 -0.00143044 -0.0161516)
(0.113385 -0.000962278 -0.0159337)
(0.110997 -0.00117213 -0.0133023)
(0.105188 -0.00149966 -0.0106266)
(0.0979059 -0.00135931 -0.00948179)
(0.0898873 -0.000991482 -0.0103863)
(0.0816164 -0.000812768 -0.0128053)
(0.0744857 -0.0007341 -0.014932)
(0.0707223 -0.0004625 -0.0150104)
(0.0715798 -2.98273e-05 -0.0130801)
(0.0766291 0.000289534 -0.0102081)
(0.0847787 0.000447398 -0.00663919)
(0.0942396 0.000454885 -0.00234432)
(0.103978 -4.4566e-05 0.00234257)
(0.113413 -0.00104771 0.00730801)
(0.120446 -0.00190158 0.0118801)
(0.135041 -0.00299807 0.0107616)
(0.132089 -0.00221905 0.0135173)
(0.125522 -0.00205477 0.0116098)
(0.123217 -0.00202286 0.0074958)
(0.125508 -0.0014578 0.00585793)
(0.127365 -0.000683696 0.00805469)
(0.126671 -0.000276421 0.0107277)
(0.125317 -0.000254164 0.00999402)
(0.124182 -0.000313842 0.00629021)
(0.11954 -0.000613432 0.00442748)
(0.10867 -0.00132648 0.00691308)
(0.0947183 -0.00209693 0.0102375)
(0.0833641 -0.00236376 0.00996661)
(0.076827 -0.00197197 0.00695794)
(0.0737829 -0.00132189 0.00463146)
(0.0725791 -0.000816859 0.00415991)
(0.0723925 -0.000675896 0.00488737)
(0.0726973 -0.00108136 0.0060539)
(0.0730823 -0.00217851 0.00735024)
(0.0738445 -0.00394703 0.00868888)
(0.0766409 -0.00576648 0.00935083)
(0.0831968 -0.00664088 0.00775577)
(0.0932684 -0.00628336 0.00289612)
(0.105756 -0.00502655 -0.00452782)
(0.118572 -0.00323026 -0.0117902)
(0.126958 -0.00180765 -0.0154189)
(0.127889 -0.00164366 -0.014888)
(0.123252 -0.00203739 -0.0124666)
(0.116856 -0.00178226 -0.010306)
(0.110128 -0.00102537 -0.00968358)
(0.102762 -0.00055856 -0.0111792)
(0.0947106 -0.000517087 -0.0140007)
(0.0874295 -0.000558416 -0.0166172)
(0.0833379 -0.00070516 -0.0181069)
(0.0840929 -0.00111602 -0.0180099)
(0.0899149 -0.00143921 -0.0157565)
(0.0987391 -0.00143011 -0.0117117)
(0.10818 -0.00181599 -0.00706859)
(0.118327 -0.00289058 -0.00183841)
(0.1291 -0.00353346 0.00458306)
(0.138674 -0.00484473 0.00374629)
(0.139979 -0.00226909 0.0105985)
(0.131943 -0.00135956 0.0125503)
(0.125189 -0.00209984 0.00955712)
(0.127396 -0.00219998 0.00572834)
(0.133522 -0.00105749 0.00588565)
(0.13528 -0.00019555 0.00942618)
(0.132638 -0.000390028 0.0112472)
(0.132059 -0.000759651 0.00813534)
(0.133982 -0.000560065 0.00396075)
(0.130252 -0.000500127 0.00482725)
(0.11803 -0.00121612 0.00928597)
(0.102538 -0.00207651 0.0111362)
(0.0903875 -0.00223653 0.00882621)
(0.0839491 -0.00171524 0.00593058)
(0.0815528 -0.00112713 0.00477373)
(0.0810718 -0.000897495 0.00502167)
(0.0812029 -0.00130042 0.00579489)
(0.0810776 -0.00263574 0.00690908)
(0.080323 -0.00504352 0.00886054)
(0.0798862 -0.00783826 0.011615)
(0.082462 -0.00952404 0.0133321)
(0.0898415 -0.00946085 0.0115162)
(0.101682 -0.00816615 0.00549406)
(0.117027 -0.0058918 -0.00296652)
(0.131205 -0.00339534 -0.0102001)
(0.136345 -0.00233546 -0.0133318)
(0.131451 -0.0026191 -0.0129212)
(0.123793 -0.00252005 -0.0109454)
(0.119206 -0.00156216 -0.00900761)
(0.117216 -0.000532229 -0.00859426)
(0.113914 7.08897e-05 -0.0104433)
(0.107631 0.000157987 -0.0140811)
(0.100427 -0.000437263 -0.0188258)
(0.0956921 -0.00192555 -0.0231358)
(0.0964027 -0.00341667 -0.0241522)
(0.102557 -0.00384595 -0.0210981)
(0.110592 -0.0040923 -0.0163368)
(0.118411 -0.00538367 -0.0112261)
(0.128395 -0.00632548 -0.00459111)
(0.137365 -0.00772786 -0.00254217)
(0.143342 -0.0032719 0.00600213)
(0.138813 -0.000350396 0.0107494)
(0.129046 -0.00111051 0.0099669)
(0.125595 -0.00277016 0.00593497)
(0.132405 -0.00209079 0.00380929)
(0.139711 -0.000185796 0.00617652)
(0.1383 4.21572e-05 0.00962032)
(0.132397 -0.00145853 0.00907186)
(0.133105 -0.00215511 0.00468416)
(0.139469 -0.00109681 0.00313729)
(0.138283 -0.000324241 0.00716936)
(0.125514 -0.000870223 0.0108832)
(0.1088 -0.00161123 0.0102554)
(0.0964839 -0.00170226 0.00780338)
(0.0908683 -0.00139708 0.00642528)
(0.0898449 -0.00122578 0.00609672)
(0.0909129 -0.00158724 0.00597744)
(0.0921652 -0.00289757 0.00611401)
(0.0920953 -0.00546418 0.00751749)
(0.0902791 -0.00883875 0.0108914)
(0.0888752 -0.0114145 0.0149656)
(0.091558 -0.011948 0.0165263)
(0.0999757 -0.0108699 0.0131633)
(0.113867 -0.00862928 0.00532631)
(0.129716 -0.00547811 -0.00375364)
(0.13762 -0.00295906 -0.00999001)
(0.131339 -0.002181 -0.0115064)
(0.118558 -0.00220677 -0.00940578)
(0.110995 -0.00201993 -0.00606719)
(0.112784 -0.00135057 -0.00385531)
(0.119502 -0.000129839 -0.00428283)
(0.12246 0.0010447 -0.0078097)
(0.118578 0.00096196 -0.0143527)
(0.111765 -0.00117517 -0.0224445)
(0.107268 -0.00423316 -0.0279758)
(0.108526 -0.00587897 -0.0276854)
(0.114573 -0.0062741 -0.0231534)
(0.121227 -0.00753837 -0.0174938)
(0.128009 -0.00913516 -0.010964)
(0.136831 -0.0106878 -0.00675794)
(0.143902 -0.00562533 0.00130656)
(0.144655 -0.000332876 0.00706669)
(0.137137 0.000456346 0.00824019)
(0.128436 -0.00211393 0.00539474)
(0.128456 -0.00330504 0.00222301)
(0.137396 -0.00127905 0.00272558)
(0.143394 0.000679399 0.00626963)
(0.139019 -0.000766448 0.00805535)
(0.132064 -0.00400687 0.00552098)
(0.135258 -0.00460954 0.00279956)
(0.145097 -0.00214879 0.00513962)
(0.144603 -0.000178176 0.00953209)
(0.130646 -4.09444e-05 0.0105582)
(0.113897 -0.000604917 0.00917988)
(0.102963 -0.0010805 0.00843368)
(0.0990936 -0.00154527 0.00839067)
(0.100141 -0.00225024 0.00789485)
(0.103385 -0.00348414 0.00685578)
(0.105645 -0.00568609 0.00668273)
(0.104425 -0.00891204 0.00910976)
(0.100651 -0.0119806 0.0139234)
(0.098734 -0.0133236 0.0179181)
(0.102428 -0.0128253 0.0173093)
(0.112511 -0.0109209 0.0109321)
(0.126124 -0.0074928 0.00120534)
(0.134278 -0.00342703 -0.00709734)
(0.128926 -0.000753677 -0.0101465)
(0.114922 -0.000196213 -0.0077179)
(0.103851 -0.00110736 -0.00242546)
(0.102876 -0.00206202 0.00221599)
(0.112092 -0.00134328 0.00366234)
(0.124041 0.000989858 0.000894829)
(0.129291 0.00247403 -0.00625301)
(0.126584 0.000878119 -0.0164837)
(0.121213 -0.0031515 -0.0256607)
(0.118248 -0.0064111 -0.0292343)
(0.119892 -0.00768717 -0.0267667)
(0.124814 -0.00908794 -0.0211532)
(0.130199 -0.0112151 -0.0144604)
(0.137676 -0.0130562 -0.00936019)
(0.14375 -0.00884744 -0.00249528)
(0.147283 -0.00219901 0.00253422)
(0.144427 0.00103927 0.00490339)
(0.136229 -0.000524382 0.00410297)
(0.129514 -0.00316995 0.00141859)
(0.131878 -0.00285303 0.000496802)
(0.140894 -0.000234935 0.00302908)
(0.14574 0.000286666 0.0060638)
(0.140875 -0.00334036 0.0058082)
(0.135236 -0.00727117 0.00341013)
(0.14097 -0.00668684 0.00410466)
(0.150326 -0.00257266 0.00804938)
(0.14726 0.000654724 0.0100231)
(0.133173 0.00140194 0.00939684)
(0.118996 0.000603873 0.00932458)
(0.110715 -0.000970727 0.0102234)
(0.10899 -0.00293747 0.0102966)
(0.112761 -0.00481096 0.00870389)
(0.11826 -0.00650679 0.00669062)
(0.119663 -0.00873418 0.00702095)
(0.115239 -0.0114515 0.0111731)
(0.109518 -0.0132657 0.0166022)
(0.108028 -0.0134832 0.0185214)
(0.112923 -0.0121824 0.0142586)
(0.122392 -0.00879764 0.00517158)
(0.129589 -0.00360132 -0.00414407)
(0.127129 0.000793944 -0.00890404)
(0.116746 0.00230375 -0.00761244)
(0.106543 0.000957256 -0.00202538)
(0.102326 -0.00153008 0.00452214)
(0.107102 -0.00232356 0.00843232)
(0.119063 -4.38275e-05 0.00775698)
(0.130551 0.00303833 0.00205047)
(0.135317 0.00307062 -0.00798413)
(0.13403 -0.0007678 -0.0189648)
(0.130903 -0.00515155 -0.0260489)
(0.128671 -0.00749719 -0.0271667)
(0.128998 -0.00942408 -0.0235224)
(0.132355 -0.0122186 -0.0169419)
(0.139396 -0.0141116 -0.0118601)
(0.144677 -0.0117044 -0.00513629)
(0.147852 -0.00546787 -0.00110818)
(0.147177 -0.000347769 0.00131811)
(0.142186 0.0003964 0.00239923)
(0.134853 -0.0017557 0.00129304)
(0.130858 -0.00316159 -0.000163495)
(0.135281 -0.00210252 0.00104781)
(0.144246 -0.000860832 0.00411517)
(0.147508 -0.00275339 0.00538115)
(0.142056 -0.00725431 0.00386707)
(0.139219 -0.00949284 0.00346206)
(0.146215 -0.00644292 0.00646462)
(0.15188 -0.00106809 0.00893723)
(0.146397 0.00234533 0.00869486)
(0.134337 0.00288466 0.00873444)
(0.123686 0.00114768 0.0101441)
(0.118161 -0.00234457 0.0104249)
(0.119649 -0.00616696 0.00828139)
(0.127509 -0.00826649 0.00516956)
(0.133985 -0.00897949 0.00387807)
(0.131675 -0.0103506 0.00689277)
(0.123438 -0.0120771 0.012987)
(0.116846 -0.0126414 0.0171683)
(0.11582 -0.011698 0.0155767)
(0.120141 -0.00882844 0.00848132)
(0.125631 -0.00363732 -0.000615961)
(0.126181 0.00174082 -0.00722108)
(0.120696 0.00420214 -0.00857174)
(0.113621 0.0029527 -0.00480291)
(0.109208 -0.000141925 0.0016284)
(0.10991 -0.00208418 0.00715892)
(0.116767 -0.000836119 0.00915164)
(0.127361 0.00245329 0.00662874)
(0.137039 0.00398748 -0.000607422)
(0.142385 0.00151307 -0.0109048)
(0.142753 -0.00291918 -0.0199743)
(0.139666 -0.00596627 -0.0244814)
(0.135839 -0.00839111 -0.02419)
(0.135348 -0.0118757 -0.0194453)
(0.143052 -0.0141174 -0.0144343)
(0.14714 -0.013449 -0.00773642)
(0.148339 -0.00870094 -0.00372103)
(0.146347 -0.0030796 -0.00128797)
(0.143257 4.01639e-05 0.00111778)
(0.139183 -0.000194329 0.001839)
(0.134831 -0.00204154 0.000534683)
(0.134709 -0.00320918 0.000376205)
(0.141188 -0.00321802 0.002763)
(0.147686 -0.00399026 0.00483062)
(0.146489 -0.00702167 0.00398051)
(0.141084 -0.0101737 0.00246353)
(0.141648 -0.00923564 0.00399593)
(0.147022 -0.0039987 0.0069182)
(0.146991 0.00155188 0.00810049)
(0.139275 0.00439597 0.00853265)
(0.130187 0.00389938 0.00906292)
(0.124562 0.00011817 0.00747183)
(0.123863 -0.00571572 0.00331275)
(0.130562 -0.00989707 -0.000470129)
(0.14213 -0.00994208 -0.00153953)
(0.146258 -0.00898498 0.00149799)
(0.138568 -0.0097726 0.00815447)
(0.127552 -0.0106469 0.0141796)
(0.12093 -0.00973139 0.0151664)
(0.120383 -0.00694515 0.0105769)
(0.12357 -0.0023964 0.00294525)
(0.125826 0.00271837 -0.00452487)
(0.124443 0.00553023 -0.00901179)
(0.120943 0.00454795 -0.00875042)
(0.118123 0.00128887 -0.00433945)
(0.117717 -0.0011412 0.00113535)
(0.120286 -0.000782892 0.00476609)
(0.125976 0.00150877 0.00549959)
(0.134876 0.00287773 0.0025104)
(0.144969 0.00173167 -0.00475988)
(0.150567 -0.00102494 -0.0138642)
(0.148895 -0.00354986 -0.0205332)
(0.143668 -0.00637507 -0.022913)
(0.140781 -0.0107066 -0.0206928)
(0.14916 -0.0131254 -0.0160238)
(0.151144 -0.0133902 -0.010563)
(0.149373 -0.0101685 -0.00689095)
(0.144728 -0.00542647 -0.0037729)
(0.141367 -0.00138071 0.000349995)
(0.139906 0.000406563 0.00293084)
(0.138373 -0.000500442 0.00194674)
(0.137892 -0.00292303 0.000544181)
(0.141532 -0.00477222 0.00210522)
(0.14728 -0.00536332 0.00479555)
(0.148534 -0.00655833 0.00447092)
(0.143507 -0.00906593 0.00163456)
(0.138064 -0.00980982 0.00126029)
(0.136445 -0.00621076 0.00464617)
(0.134874 -0.000514309 0.00829978)
(0.130914 0.00358744 0.00967836)
(0.127981 0.00469021 0.00776051)
(0.127849 0.0024257 0.00235415)
(0.12823 -0.00339417 -0.00385827)
(0.130843 -0.00997404 -0.00683056)
(0.141357 -0.0119088 -0.00586604)
(0.152485 -0.0090813 -0.00213604)
(0.150551 -0.00722251 0.00419168)
(0.138013 -0.00751643 0.0108116)
(0.126388 -0.00674441 0.0137957)
(0.121904 -0.00384464 0.0116447)
(0.123882 3.62699e-05 0.00580659)
(0.128046 0.00376285 -0.00155836)
(0.130168 0.0057846 -0.00816015)
(0.129555 0.00489252 -0.0113379)
(0.128537 0.00203407 -0.0101193)
(0.128628 -5.52018e-05 -0.00653229)
(0.129577 0.000177691 -0.00285354)
(0.131468 0.00115347 0.000247823)
(0.136221 0.000597538 0.00130676)
(0.145071 -0.00073265 -0.00221685)
(0.153331 -0.00114939 -0.00962849)
(0.154632 -0.00153856 -0.0169125)
(0.150707 -0.00415062 -0.0209776)
(0.147929 -0.00912073 -0.0205569)
(0.155797 -0.0107886 -0.0161271)
(0.156545 -0.0112855 -0.0125455)
(0.153055 -0.00956143 -0.00988416)
(0.14611 -0.0066151 -0.00644125)
(0.140833 -0.00277419 -0.000906327)
(0.139206 0.000521493 0.0035445)
(0.139444 0.000994632 0.00377299)
(0.140521 -0.00174003 0.00200117)
(0.1434 -0.00513529 0.0023997)
(0.147586 -0.00630967 0.00489583)
(0.149027 -0.00588148 0.00509058)
(0.144412 -0.00636821 0.00149426)
(0.135527 -0.0071892 -0.00120997)
(0.127563 -0.00565588 0.000660762)
(0.123199 -0.00176496 0.00445963)
(0.122481 0.00188451 0.00560472)
(0.1256 0.00370693 0.0024378)
(0.130485 0.00316585 -0.00342641)
(0.133323 -0.000959205 -0.00807103)
(0.134329 -0.00837544 -0.00817886)
(0.139999 -0.0138259 -0.00441114)
(0.15108 -0.0122077 0.00013996)
(0.154704 -0.00736839 0.00487819)
(0.144915 -0.00488447 0.00992349)
(0.131316 -0.00367216 0.0128541)
(0.123957 -0.00113728 0.0116579)
(0.124458 0.00213498 0.00703299)
(0.128498 0.00445394 0.000819541)
(0.13126 0.0050295 -0.00499691)
(0.131472 0.00367493 -0.00834546)
(0.131786 0.0011747 -0.00878482)
(0.134036 -0.00045124 -0.00766391)
(0.136853 5.37648e-05 -0.0053446)
(0.138704 0.000791531 -0.00148125)
(0.140239 -0.000660133 0.00143925)
(0.144014 -0.00263089 -0.000466057)
(0.150417 -0.00203193 -0.006847)
(0.155292 -0.000474211 -0.0137057)
(0.156052 -0.00212955 -0.0180758)
(0.155138 -0.00697048 -0.0188022)
(0.160891 -0.00771379 -0.0149287)
(0.161605 -0.00831091 -0.0133573)
(0.159012 -0.00768102 -0.0119141)
(0.151216 -0.00643864 -0.00922526)
(0.14308 -0.00342499 -0.00365142)
(0.139343 0.000610246 0.00254647)
(0.13978 0.00232872 0.00555135)
(0.141968 -1.49216e-05 0.00499665)
(0.144548 -0.00402966 0.0038658)
(0.147143 -0.00597846 0.00451726)
(0.148114 -0.00522134 0.00524629)
(0.145004 -0.00421607 0.00302608)
(0.137605 -0.00391442 -0.00101817)
(0.12943 -0.00285629 -0.00304719)
(0.124804 -0.000674626 -0.00220792)
(0.125143 0.00118117 -0.00113152)
(0.129092 0.00208342 -0.00207991)
(0.134381 0.00228497 -0.00514403)
(0.138861 0.000342484 -0.00802564)
(0.141554 -0.00579346 -0.00745982)
(0.144683 -0.0133152 -0.0029133)
(0.150779 -0.0150266 0.00254269)
(0.154079 -0.00966953 0.00651801)
(0.147632 -0.00385727 0.00977716)
(0.135715 -0.000679374 0.012371)
(0.127109 0.00151932 0.0123433)
(0.124749 0.00360588 0.00894096)
(0.125503 0.0050036 0.00405577)
(0.125873 0.00502859 0.000295615)
(0.125678 0.00325078 -0.00125341)
(0.127242 0.000309284 -0.0017515)
(0.131641 -0.00159505 -0.00241395)
(0.136723 -0.000981479 -0.00171938)
(0.139546 0.000360902 0.00186266)
(0.139757 -0.00033199 0.00476432)
(0.14002 -0.00213789 0.00222834)
(0.143585 -0.00215416 -0.00451505)
(0.150541 -0.000827002 -0.0106555)
(0.157137 -0.00144596 -0.0141603)
(0.160068 -0.0047418 -0.0154935)
(0.163835 -0.00448136 -0.0122797)
(0.165845 -0.00510542 -0.0127374)
(0.164691 -0.0052525 -0.0129629)
(0.157147 -0.00493116 -0.0117809)
(0.146928 -0.00276978 -0.00705099)
(0.140502 0.000973464 1.4633e-05)
(0.139727 0.00318448 0.00535278)
(0.142161 0.00146375 0.00680542)
(0.144701 -0.00249898 0.00566515)
(0.145951 -0.00504476 0.00481149)
(0.145524 -0.00482038 0.00497052)
(0.142769 -0.00332404 0.00394954)
(0.137807 -0.0019662 0.000698599)
(0.133088 -0.0006672 -0.00278576)
(0.131502 0.000565734 -0.00418198)
(0.133023 0.00103489 -0.00337445)
(0.135498 0.00075387 -0.00217389)
(0.138204 0.000777461 -0.00275487)
(0.141473 0.000605223 -0.00507228)
(0.144369 -0.00260216 -0.00592146)
(0.14678 -0.00923414 -0.003104)
(0.150242 -0.0136015 0.00169496)
(0.152952 -0.0106144 0.00587171)
(0.149873 -0.00358337 0.00903667)
(0.141253 0.00205869 0.0111786)
(0.132642 0.00502451 0.0114216)
(0.127262 0.00592245 0.00974159)
(0.124315 0.00540017 0.00724847)
(0.122832 0.00389961 0.00494744)
(0.123354 0.00142088 0.00339449)
(0.126584 -0.00183452 0.00245438)
(0.131662 -0.00414745 0.00151774)
(0.136333 -0.00346959 0.00123085)
(0.138708 -0.000566525 0.00322142)
(0.13883 0.00128422 0.0058292)
(0.138506 0.000808718 0.00455415)
(0.140293 -0.000151111 -0.00123422)
(0.146111 -0.000452866 -0.00707147)
(0.154348 -0.00115718 -0.010072)
(0.160649 -0.00285524 -0.0113887)
(0.163743 -0.00252595 -0.00989933)
(0.167189 -0.00262845 -0.0109258)
(0.167522 -0.00274828 -0.0121475)
(0.161682 -0.00245477 -0.0129164)
(0.152047 -0.000563861 -0.0105992)
(0.144489 0.00233644 -0.0043363)
(0.141389 0.00365046 0.00263999)
(0.141343 0.0018796 0.00660861)
(0.142223 -0.00129407 0.00683759)
(0.142708 -0.0030881 0.00569754)
(0.142213 -0.002844 0.00520141)
(0.140632 -0.00185914 0.00428661)
(0.138697 -0.000918182 0.00156866)
(0.138076 -9.83994e-05 -0.00161499)
(0.139428 7.75662e-05 -0.00301231)
(0.140826 -0.000807901 -0.00213423)
(0.140124 -0.00192166 -0.000143018)
(0.13841 -0.00155269 0.00120395)
(0.138632 7.34481e-05 0.00107701)
(0.141442 -0.000670265 0.00089798)
(0.145328 -0.00606508 0.00246101)
(0.148832 -0.0115448 0.00519201)
(0.150421 -0.0102376 0.00694412)
(0.147774 -0.00266351 0.00769709)
(0.140793 0.00473847 0.00885807)
(0.132906 0.00806819 0.00971573)
(0.127069 0.00754152 0.00920572)
(0.12374 0.00535188 0.00795498)
(0.122538 0.00351715 0.00713588)
(0.123527 0.00220623 0.0067944)
(0.126824 0.000185288 0.00611007)
(0.131598 -0.00234633 0.00486664)
(0.135859 -0.00294478 0.00418586)
(0.138056 -0.000395914 0.00522981)
(0.138626 0.00284339 0.00697216)
(0.139279 0.00392742 0.00628603)
(0.141325 0.00305884 0.00194942)
(0.14565 0.001475 -0.00340177)
(0.152219 -0.00032081 -0.00700515)
(0.158847 -0.00181988 -0.00876858)
(0.162832 -0.0023256 -0.00902265)
(0.166442 -0.000893961 -0.00957032)
(0.166579 0.000257636 -0.0102652)
(0.163167 0.000578987 -0.0112946)
(0.15798 0.00139185 -0.0111879)
(0.153361 0.00333175 -0.00801173)
(0.149597 0.00440632 -0.00250499)
(0.145826 0.00268229 0.00235058)
(0.142202 -0.000657561 0.00459942)
(0.139742 -0.00276383 0.00496548)
(0.13927 -0.00265412 0.00514391)
(0.140971 -0.00157385 0.00516464)
(0.144464 -0.000493023 0.00390028)
(0.148771 0.000332969 0.00151275)
(0.151657 0.000219216 -0.000187308)
(0.15063 -0.00108277 0.000555503)
(0.145815 -0.00203825 0.00365759)
(0.140569 -0.000967682 0.00678118)
(0.138937 0.00151838 0.00679442)
(0.14159 0.00217307 0.0034666)
(0.145661 -0.00170832 0.00100522)
(0.148629 -0.00754633 0.00294926)
(0.149303 -0.00840805 0.00679886)
(0.146685 -0.00178996 0.00821413)
(0.140783 0.00669705 0.00749637)
(0.1341 0.0112178 0.00687401)
(0.129609 0.0110253 0.00678951)
(0.127814 0.00831327 0.00644134)
(0.127604 0.00538385 0.00539849)
(0.128293 0.00332127 0.00417056)
(0.130003 0.00180172 0.00363933)
(0.132867 0.000520841 0.00392121)
(0.136243 0.00027649 0.00445025)
(0.139234 0.00172324 0.00530073)
(0.141192 0.00388831 0.00673805)
(0.142086 0.0049577 0.0074075)
(0.142923 0.00419848 0.00516821)
(0.14518 0.00196004 0.000264244)
(0.150026 -0.000744192 -0.00469103)
(0.15672 -0.00246518 -0.00774153)
(0.160646 -0.00565672 -0.00813338)
(0.163563 -0.00274975 -0.00828424)
(0.163221 0.00100225 -0.00797848)
(0.159846 0.00295311 -0.00836014)
(0.155382 0.0034207 -0.00878809)
(0.152507 0.00411569 -0.00791956)
(0.151869 0.00494637 -0.00543857)
(0.151568 0.00428684 -0.00225215)
(0.14945 0.00159754 0.000425768)
(0.145448 -0.00183179 0.00216675)
(0.141631 -0.00476168 0.00354409)
(0.140518 -0.00710401 0.00482447)
(0.143418 -0.00849836 0.00527945)
(0.149494 -0.00785914 0.00426299)
(0.15523 -0.0051536 0.00231429)
(0.156125 -0.00216012 0.00124295)
(0.151209 -6.47868e-05 0.00251352)
(0.144192 0.00207337 0.00463649)
(0.139772 0.00454881 0.00412903)
(0.139497 0.00537037 -3.25809e-05)
(0.141627 0.0027885 -0.0042542)
(0.144549 -0.00221033 -0.00390759)
(0.146791 -0.00555571 0.000911656)
(0.146498 -0.00321848 0.00550667)
(0.143708 0.00378275 0.00692209)
(0.140732 0.0103717 0.0059263)
(0.13962 0.0131002 0.00376615)
(0.139834 0.0119637 0.00110875)
(0.139598 0.00882424 -0.00102931)
(0.138588 0.00561307 -0.00153866)
(0.137706 0.00330279 -0.000200458)
(0.137708 0.00203869 0.00209406)
(0.138359 0.00186277 0.00407133)
(0.13895 0.00260182 0.00535637)
(0.139315 0.00346023 0.00649004)
(0.13979 0.00370478 0.00733894)
(0.141111 0.00315238 0.00648627)
(0.144133 0.00136828 0.00309499)
(0.149195 -0.00189596 -0.00176348)
(0.155319 -0.00513882 -0.00600698)
(0.157481 -0.00301203 -0.00698865)
(0.155099 0.00075336 -0.00834398)
(0.150805 0.00446273 -0.00829512)
(0.146893 0.00598678 -0.00780798)
(0.144467 0.00535896 -0.00734171)
(0.143885 0.00404076 -0.00711019)
(0.145163 0.00297217 -0.00698764)
(0.147997 0.0020356 -0.00628223)
(0.151513 0.000822199 -0.00441342)
(0.154083 -0.000745987 -0.00174781)
(0.154089 -0.0027083 0.000850919)
(0.151686 -0.00543358 0.00307085)
(0.149043 -0.00865026 0.00511094)
(0.148483 -0.0106988 0.00689274)
(0.150338 -0.00996964 0.00765373)
(0.152114 -0.00661917 0.00669403)
(0.150888 -0.00198378 0.00460402)
(0.146641 0.00250604 0.00269059)
(0.142202 0.00509176 0.000977214)
(0.139967 0.00427395 -0.00139674)
(0.140183 0.000542201 -0.00376694)
(0.14252 -0.00347541 -0.00371849)
(0.14594 -0.00504705 -0.000211523)
(0.148052 -0.00297603 0.00456272)
(0.147908 0.00194505 0.00738742)
(0.147294 0.00724755 0.00658363)
(0.147738 0.0105765 0.00240951)
(0.148495 0.0111705 -0.00327183)
(0.148256 0.00929782 -0.00779805)
(0.147008 0.00582829 -0.0093074)
(0.145387 0.00255435 -0.00751883)
(0.143831 0.0013251 -0.00339853)
(0.142553 0.00232586 0.00145055)
(0.141441 0.00383038 0.00567854)
(0.140413 0.00383094 0.00896329)
(0.139989 0.00185626 0.0112596)
(0.141224 -0.00086521 0.0115024)
(0.145027 -0.00312628 0.00844129)
(0.150795 -0.00456644 0.00265991)
(0.155878 -0.00479958 -0.00323892)
(0.160033 0.00200796 0.00154626)
(0.161905 0.00582211 -0.00283363)
(0.161143 0.0087461 -0.00661441)
(0.157703 0.00912459 -0.00965222)
(0.153061 0.00720352 -0.0113357)
(0.149404 0.00439738 -0.0113947)
(0.148037 0.00168779 -0.0103365)
(0.148985 -0.000630998 -0.00881531)