/*--------------------------------*- C++ -*----------------------------------*\
| =========                 |                                                 |
| \\      /  F ield         | OpenFOAM: The Open Source CFD Toolbox           |
|  \\    /   O peration     | Version:  2306                                  |
|   \\  /    A nd           | Website:  www.openfoam.com                      |
|    \\/     M anipulation  |                                                 |
\*---------------------------------------------------------------------------*/
FoamFile
{
    version     2.0;
    format      ascii;
    arch        "LSB;label=32;scalar=64";
    class       volScalarField;
    location    "9.5";
    object      nut;
}
// * * * * * * * * * * * * * * * * * * * * * * * * * * * * * * * * * * * * * //

dimensions      [0 2 -1 0 0 0 0];

internalField   nonuniform List<scalar> 
60000
(
5.7273e-05
5.96199e-05
6.2869e-05
6.72417e-05
7.25205e-05
7.80282e-05
8.22028e-05
8.33384e-05
8.12217e-05
7.74157e-05
7.37533e-05
7.09527e-05
6.87694e-05
6.66361e-05
6.39749e-05
6.04521e-05
5.63492e-05
5.26763e-05
5.04306e-05
4.96328e-05
4.97559e-05
5.06885e-05
5.25716e-05
5.52298e-05
5.80713e-05
6.08992e-05
6.39885e-05
6.72053e-05
7.05462e-05
7.45086e-05
7.83868e-05
7.99811e-05
7.83872e-05
7.47833e-05
7.02872e-05
6.52857e-05
6.03831e-05
5.67082e-05
5.52083e-05
5.5678e-05
5.61545e-05
5.86138e-05
6.23723e-05
6.71798e-05
7.26661e-05
7.83501e-05
8.30092e-05
8.49682e-05
8.34851e-05
7.96847e-05
7.56853e-05
7.28019e-05
7.09493e-05
6.93192e-05
6.71129e-05
6.39919e-05
6.02827e-05
5.65971e-05
5.3555e-05
5.15741e-05
5.07947e-05
5.11654e-05
5.24225e-05
5.42451e-05
5.64473e-05
5.92156e-05
6.28043e-05
6.70134e-05
7.17668e-05
7.69587e-05
8.12165e-05
8.25878e-05
8.08104e-05
7.72394e-05
7.31799e-05
6.91483e-05
6.50023e-05
6.0598e-05
5.69555e-05
5.54132e-05
5.37725e-05
5.52294e-05
5.8445e-05
6.28979e-05
6.8254e-05
7.4188e-05
8.02281e-05
8.46414e-05
8.54464e-05
8.24766e-05
7.7968e-05
7.44161e-05
7.25027e-05
7.1435e-05
7.01998e-05
6.82451e-05
6.54695e-05
6.17804e-05
5.74292e-05
5.34124e-05
5.07935e-05
4.98558e-05
5.01548e-05
5.11436e-05
5.27828e-05
5.53201e-05
5.90376e-05
6.35515e-05
6.85241e-05
7.395e-05
7.91295e-05
8.21471e-05
8.20971e-05
7.98578e-05
7.6943e-05
7.41678e-05
7.09751e-05
6.5968e-05
5.97043e-05
5.50655e-05
5.18716e-05
5.07615e-05
5.20777e-05
5.50684e-05
5.95553e-05
6.52473e-05
7.23912e-05
8.00836e-05
8.49969e-05
8.46474e-05
8.03085e-05
7.57559e-05
7.32914e-05
7.26102e-05
7.24737e-05
7.20508e-05
7.08437e-05
6.80261e-05
6.29784e-05
5.66415e-05
5.11181e-05
4.77556e-05
4.64491e-05
4.63651e-05
4.72276e-05
4.91328e-05
5.23411e-05
5.64086e-05
6.02728e-05
6.43205e-05
6.9868e-05
7.57388e-05
7.94621e-05
8.03865e-05
7.95514e-05
7.83866e-05
7.68665e-05
7.27848e-05
6.5062e-05
5.67813e-05
5.31759e-05
4.82345e-05
4.62413e-05
4.61078e-05
4.78429e-05
5.15489e-05
5.78142e-05
6.75916e-05
7.77338e-05
8.2856e-05
8.1002e-05
7.60093e-05
7.25691e-05
7.18544e-05
7.25534e-05
7.3466e-05
7.41282e-05
7.35094e-05
6.9806e-05
6.25984e-05
5.40084e-05
4.68284e-05
4.25069e-05
4.06203e-05
4.02291e-05
4.09495e-05
4.30182e-05
4.62312e-05
4.87605e-05
5.0154e-05
5.33734e-05
6.02958e-05
6.87555e-05
7.49797e-05
7.80282e-05
7.92026e-05
7.97968e-05
7.83605e-05
7.21286e-05
6.20599e-05
5.88744e-05
5.13048e-05
4.64132e-05
4.23261e-05
3.94897e-05
3.93595e-05
4.20928e-05
4.75857e-05
5.90116e-05
7.15051e-05
7.61543e-05
7.31757e-05
6.91423e-05
6.81271e-05
6.93563e-05
7.09372e-05
7.28294e-05
7.50411e-05
7.52166e-05
7.06955e-05
6.16292e-05
5.07135e-05
4.1455e-05
3.59789e-05
3.34788e-05
3.26459e-05
3.32697e-05
3.5696e-05
3.87806e-05
3.9361e-05
4.02702e-05
4.47728e-05
5.05044e-05
5.9961e-05
6.8676e-05
7.37846e-05
7.66349e-05
7.83147e-05
7.6397e-05
6.87938e-05
6.34952e-05
5.77671e-05
5.41109e-05
4.87419e-05
3.98809e-05
3.31261e-05
3.45624e-05
3.96317e-05
4.09561e-05
4.75185e-05
5.98916e-05
6.32689e-05
6.04719e-05
5.95813e-05
6.18345e-05
6.39715e-05
6.5479e-05
6.90732e-05
7.41584e-05
7.61833e-05
7.20594e-05
6.16551e-05
4.76699e-05
3.62471e-05
3.00881e-05
2.74422e-05
2.64557e-05
2.7411e-05
3.17742e-05
3.65838e-05
3.28461e-05
3.41625e-05
4.14735e-05
4.2879e-05
4.99642e-05
5.96682e-05
6.54316e-05
6.92032e-05
7.16936e-05
6.97272e-05
5.62345e-05
5.58948e-05
5.77499e-05
5.88472e-05
5.17706e-05
3.66996e-05
2.6625e-05
3.19872e-05
4.12456e-05
3.73882e-05
3.55092e-05
4.38474e-05
4.42003e-05
4.32687e-05
4.75275e-05
5.22397e-05
5.30003e-05
5.43205e-05
6.15188e-05
7.12369e-05
7.73204e-05
7.51253e-05
6.22155e-05
4.47229e-05
3.25419e-05
2.7174e-05
2.51404e-05
2.47116e-05
2.81188e-05
3.80612e-05
4.44249e-05
3.10261e-05
2.94829e-05
3.85483e-05
3.5604e-05
3.99836e-05
4.5666e-05
4.64546e-05
4.96673e-05
5.47713e-05
2.91742e-05
3.45155e-05
4.23014e-05
5.27541e-05
5.85335e-05
5.02512e-05
3.2549e-05
2.03331e-05
2.72984e-05
3.9343e-05
3.22445e-05
2.57404e-05
2.93189e-05
2.58422e-05
2.7643e-05
3.54087e-05
3.8565e-05
3.4516e-05
3.5385e-05
4.77247e-05
6.5432e-05
7.87421e-05
7.76911e-05
6.06001e-05
4.14614e-05
3.1153e-05
2.82129e-05
2.83167e-05
3.09325e-05
3.88436e-05
5.10534e-05
5.13679e-05
2.81566e-05
2.60452e-05
3.17344e-05
2.37579e-05
2.23022e-05
2.11494e-05
2.13696e-05
2.40835e-05
2.2243e-05
2.2434e-05
2.69788e-05
3.2288e-05
4.47407e-05
5.36276e-05
4.50381e-05
2.84081e-05
1.60676e-05
2.42009e-05
3.61922e-05
2.64297e-05
2.27904e-05
2.26969e-05
1.66995e-05
1.82057e-05
2.31757e-05
2.31456e-05
1.50797e-05
1.54571e-05
3.05983e-05
5.83875e-05
7.88369e-05
7.56249e-05
5.58353e-05
3.93619e-05
3.29286e-05
3.21544e-05
3.41438e-05
4.10419e-05
5.20162e-05
5.87566e-05
4.67628e-05
1.88483e-05
2.17917e-05
1.87797e-05
1.28485e-05
2.3572e-05
2.71631e-05
2.56852e-05
1.48493e-05
1.52833e-05
2.53016e-05
3.23491e-05
2.79467e-05
3.98185e-05
4.90178e-05
3.96467e-05
2.59353e-05
1.65632e-05
2.38942e-05
3.34096e-05
2.32672e-05
2.41897e-05
1.8033e-05
1.14219e-05
1.11829e-05
1.41514e-05
1.66653e-05
8.3718e-06
1.2879e-05
2.21267e-05
5.30702e-05
7.41746e-05
6.82468e-05
5.14804e-05
3.97135e-05
3.25553e-05
2.99609e-05
3.49451e-05
4.70854e-05
5.73384e-05
5.42735e-05
3.25684e-05
1.27546e-05
1.79639e-05
1.56699e-05
2.27084e-05
2.59406e-05
2.07855e-05
2.63425e-05
1.83427e-05
1.58606e-05
2.51283e-05
2.69876e-05
2.15752e-05
4.02407e-05
4.68277e-05
3.73547e-05
2.79778e-05
2.015e-05
2.40447e-05
3.03022e-05
2.10713e-05
2.02172e-05
1.04299e-05
9.78469e-06
8.97519e-06
1.17299e-05
1.62614e-05
8.50424e-06
1.92912e-05
2.26597e-05
4.64718e-05
6.39727e-05
5.90145e-05
4.53494e-05
3.02397e-05
1.96073e-05
2.21302e-05
3.12602e-05
4.61788e-05
5.35995e-05
4.32809e-05
2.15449e-05
1.48147e-05
1.54666e-05
1.63329e-05
2.59498e-05
3.06489e-05
3.5073e-05
3.56387e-05
3.48559e-05
3.1633e-05
2.88654e-05
1.93685e-05
2.47965e-05
4.37167e-05
4.53313e-05
3.77408e-05
3.08263e-05
2.23829e-05
2.3159e-05
2.42862e-05
1.67023e-05
1.53061e-05
7.93027e-06
9.80068e-06
1.1066e-05
1.15086e-05
1.52168e-05
8.72113e-06
1.87932e-05
2.22047e-05
3.38852e-05
4.04938e-05
3.45166e-05
2.80538e-05
2.32259e-05
1.92325e-05
1.9626e-05
2.80313e-05
4.43539e-05
4.66734e-05
3.29713e-05
1.86994e-05
1.39459e-05
1.25286e-05
1.96299e-05
3.00303e-05
2.53948e-05
3.36584e-05
3.91064e-05
3.79441e-05
3.29894e-05
2.77849e-05
1.43479e-05
3.12489e-05
4.60212e-05
4.42486e-05
3.8879e-05
3.14964e-05
2.40773e-05
2.26245e-05
1.95123e-05
1.61583e-05
1.45262e-05
9.26049e-06
1.1092e-05
1.3303e-05
9.62963e-06
1.55538e-05
1.13722e-05
1.98776e-05
2.75597e-05
2.22321e-05
1.31646e-05
1.94946e-05
2.72753e-05
2.56404e-05
2.07536e-05
1.79464e-05
3.03326e-05
4.10114e-05
3.71158e-05
2.6161e-05
1.76568e-05
1.37655e-05
1.43443e-05
1.82066e-05
1.09599e-05
1.24056e-05
1.98046e-05
2.44893e-05
2.44106e-05
2.98428e-05
2.39088e-05
1.27229e-05
3.61645e-05
4.50741e-05
4.40765e-05
4.03046e-05
3.23816e-05
2.67541e-05
2.42129e-05
2.05083e-05
1.75852e-05
1.47807e-05
1.1113e-05
1.18416e-05
9.8531e-06
6.63266e-06
1.54938e-05
1.79888e-05
2.65742e-05
2.49027e-05
1.46113e-05
1.74033e-05
2.4639e-05
2.65326e-05
2.11983e-05
1.54406e-05
1.91308e-05
3.20933e-05
3.41705e-05
2.91053e-05
2.24823e-05
1.61375e-05
1.29451e-05
1.3114e-05
2.15476e-05
2.15507e-05
1.4841e-05
1.19919e-05
1.51599e-05
2.62212e-05
3.58805e-05
2.07832e-05
1.96899e-05
3.98965e-05
4.71196e-05
4.76054e-05
4.19367e-05
3.42607e-05
2.89533e-05
2.42307e-05
1.95139e-05
1.71841e-05
1.55366e-05
1.1593e-05
9.84105e-06
1.04867e-05
1.44781e-05
2.02612e-05
1.8031e-05
1.49875e-05
1.94503e-05
2.0168e-05
1.94073e-05
2.41825e-05
2.34354e-05
1.62855e-05
1.24966e-05
2.37771e-05
2.8848e-05
2.82889e-05
2.4386e-05
1.76568e-05
1.47969e-05
1.74249e-05
1.70225e-05
1.98797e-05
1.70381e-05
1.17385e-05
1.37087e-05
2.07318e-05
3.31772e-05
3.57117e-05
2.28238e-05
2.51702e-05
4.02063e-05
4.82403e-05
4.67486e-05
4.10325e-05
3.52614e-05
2.8121e-05
2.06436e-05
1.50052e-05
1.15939e-05
9.08597e-06
9.00108e-06
1.28305e-05
1.4604e-05
1.40489e-05
1.55324e-05
2.02815e-05
2.38404e-05
2.10606e-05
1.52864e-05
2.0894e-05
2.82695e-05
2.20295e-05
1.08131e-05
1.46003e-05
2.37198e-05
2.72426e-05
2.50357e-05
2.2138e-05
1.96654e-05
1.59502e-05
1.61605e-05
1.677e-05
1.15592e-05
8.91118e-06
1.88654e-05
2.49449e-05
2.86876e-05
3.1006e-05
2.89658e-05
2.71616e-05
2.71218e-05
3.06301e-05
3.50288e-05
3.46628e-05
3.19944e-05
3.00886e-05
2.72627e-05
2.07601e-05
1.14325e-05
6.52821e-06
9.29159e-06
1.33744e-05
1.55366e-05
1.63815e-05
2.01627e-05
2.28405e-05
2.45244e-05
2.62416e-05
2.03629e-05
1.55143e-05
2.69889e-05
2.90076e-05
1.74325e-05
9.11497e-06
1.55533e-05
2.39883e-05
2.79361e-05
2.56093e-05
1.79471e-05
1.32325e-05
2.2791e-05
2.55523e-05
2.4045e-05
1.63552e-05
1.47826e-05
2.0365e-05
2.15186e-05
2.35689e-05
2.32594e-05
2.20176e-05
2.69941e-05
2.80619e-05
2.26388e-05
2.07145e-05
2.24368e-05
2.36835e-05
2.53661e-05
2.61342e-05
2.49414e-05
2.16211e-05
1.73085e-05
1.34354e-05
1.64576e-05
2.44293e-05
2.77512e-05
2.12353e-05
1.71646e-05
3.08014e-05
2.93031e-05
1.49514e-05
2.75697e-05
3.84554e-05
3.04178e-05
1.41103e-05
1.31496e-05
2.48414e-05
2.88608e-05
2.42991e-05
1.85183e-05
1.92974e-05
4.00709e-05
3.33338e-05
2.48365e-05
1.56478e-05
1.13671e-05
1.57587e-05
1.8704e-05
1.8562e-05
1.77807e-05
1.65542e-05
1.76836e-05
2.18819e-05
2.28396e-05
1.84622e-05
1.35217e-05
1.21319e-05
1.30731e-05
1.41942e-05
1.62244e-05
2.13563e-05
2.42197e-05
2.16113e-05
1.80948e-05
1.96708e-05
2.37981e-05
2.20923e-05
1.49547e-05
2.09285e-05
2.76222e-05
2.19064e-05
1.71216e-05
2.30065e-05
2.22989e-05
1.24994e-05
1.44167e-05
2.75378e-05
3.17322e-05
3.17528e-05
3.69902e-05
4.17577e-05
4.15444e-05
3.85269e-05
3.41209e-05
2.89189e-05
2.55132e-05
2.38564e-05
2.37031e-05
2.55849e-05
2.61198e-05
2.27873e-05
1.86001e-05
1.51766e-05
1.06861e-05
1.12151e-05
1.75476e-05
1.9575e-05
1.74975e-05
1.5863e-05
1.71952e-05
1.82869e-05
1.93413e-05
2.08335e-05
1.87933e-05
1.32329e-05
7.85543e-06
6.18313e-06
8.46659e-06
1.63281e-05
2.44239e-05
2.74079e-05
2.37224e-05
1.33489e-05
7.79987e-06
6.37887e-06
1.49733e-05
2.93974e-05
3.56697e-05
3.90511e-05
4.3371e-05
4.38283e-05
2.72945e-05
2.68917e-05
2.90955e-05
3.13532e-05
3.2617e-05
3.28151e-05
3.20857e-05
3.00329e-05
2.68526e-05
2.25465e-05
1.69019e-05
1.35274e-05
1.39504e-05
1.58275e-05
2.00593e-05
2.28956e-05
2.16072e-05
1.7311e-05
1.21156e-05
8.13499e-06
8.22417e-06
9.92157e-06
1.28732e-05
1.33414e-05
1.33199e-05
1.67351e-05
1.81298e-05
1.96514e-05
2.5779e-05
3.22955e-05
3.41804e-05
2.76979e-05
1.58453e-05
1.07342e-05
1.67504e-05
2.93555e-05
3.8463e-05
4.09471e-05
3.8377e-05
3.2205e-05
1.48778e-05
1.30944e-05
1.21177e-05
1.64502e-05
2.19806e-05
2.37039e-05
2.11559e-05
1.6693e-05
1.30718e-05
1.24329e-05
1.31035e-05
1.31372e-05
1.23773e-05
1.21944e-05
1.30516e-05
1.34891e-05
1.3495e-05
1.52325e-05
1.83235e-05
2.03284e-05
2.05718e-05
1.81829e-05
1.36143e-05
1.29671e-05
1.46307e-05
1.45046e-05
1.68819e-05
1.77849e-05
1.92587e-05
2.5859e-05
2.95054e-05
2.66959e-05
1.99571e-05
1.43122e-05
1.57714e-05
2.48228e-05
3.37865e-05
3.47018e-05
2.72339e-05
1.86799e-05
1.27258e-05
1.02129e-05
1.02485e-05
1.27684e-05
1.37365e-05
1.28483e-05
1.2126e-05
1.23582e-05
1.32586e-05
1.3496e-05
1.0597e-05
7.54224e-06
8.41101e-06
7.62154e-06
7.73357e-06
1.26702e-05
1.54303e-05
1.76449e-05
2.15817e-05
2.17428e-05
1.75365e-05
1.38413e-05
1.42122e-05
1.58076e-05
1.29043e-05
5.462e-06
7.70701e-06
1.32057e-05
1.74307e-05
2.02024e-05
1.92846e-05
1.55856e-05
1.24205e-05
1.07879e-05
9.05725e-06
1.23647e-05
1.79829e-05
1.92805e-05
1.69333e-05
1.48273e-05
2.0288e-05
1.85571e-05
1.46317e-05
1.47119e-05
1.5029e-05
9.99299e-06
5.91839e-06
1.1033e-05
1.35834e-05
1.32795e-05
1.23373e-05
1.01027e-05
7.46317e-06
7.22919e-06
1.01501e-05
1.46908e-05
1.74661e-05
1.60023e-05
1.14942e-05
9.85946e-06
1.15213e-05
1.03397e-05
7.71827e-06
1.35973e-05
2.20054e-05
2.43822e-05
2.1269e-05
1.82531e-05
1.7466e-05
1.99268e-05
2.41972e-05
2.68425e-05
2.58061e-05
2.03923e-05
1.25034e-05
8.67508e-06
1.05155e-05
1.21884e-05
1.44973e-05
1.77615e-05
5.24954e-05
5.2013e-05
5.33242e-05
5.66181e-05
6.11742e-05
6.57323e-05
6.91155e-05
7.09233e-05
7.14408e-05
7.13977e-05
7.14285e-05
7.16913e-05
7.19656e-05
7.18415e-05
7.09401e-05
6.91145e-05
6.65623e-05
6.39024e-05
6.18248e-05
6.04888e-05
5.96861e-05
5.94537e-05
6.00184e-05
6.13666e-05
6.34558e-05
6.61589e-05
6.92522e-05
7.26984e-05
7.63954e-05
8.07033e-05
8.5365e-05
8.83145e-05
8.80008e-05
8.52225e-05
8.17714e-05
7.77129e-05
7.20204e-05
6.48831e-05
5.84627e-05
5.44589e-05
5.21077e-05
5.1339e-05
5.31958e-05
5.68268e-05
6.11897e-05
6.53983e-05
6.87077e-05
7.0801e-05
7.1847e-05
7.23542e-05
7.28361e-05
7.34377e-05
7.40042e-05
7.41948e-05
7.36077e-05
7.20855e-05
6.99116e-05
6.76186e-05
6.55773e-05
6.37125e-05
6.20384e-05
6.09898e-05
6.09292e-05
6.17191e-05
6.30294e-05
6.50019e-05
6.78278e-05
7.18866e-05
7.72118e-05
8.34722e-05
8.91495e-05
9.18829e-05
9.11953e-05
8.8559e-05
8.53718e-05
8.1907e-05
7.75744e-05
7.12579e-05
6.32061e-05
5.60881e-05
5.29971e-05
5.01226e-05
5.06749e-05
5.34104e-05
5.73133e-05
6.173e-05
6.58558e-05
6.90514e-05
7.10795e-05
7.21737e-05
7.28968e-05
7.35921e-05
7.43361e-05
7.50146e-05
7.52521e-05
7.46443e-05
7.31878e-05
7.12462e-05
6.90825e-05
6.65499e-05
6.37704e-05
6.1489e-05
6.03207e-05
6.01434e-05
6.04379e-05
6.14749e-05
6.3735e-05
6.77385e-05
7.34877e-05
8.04505e-05
8.70593e-05
9.1094e-05
9.19375e-05
9.0767e-05
8.85228e-05
8.61246e-05
8.38456e-05
7.95523e-05
7.09354e-05
6.04194e-05
5.68862e-05
5.00637e-05
4.73267e-05
4.75838e-05
5.02462e-05
5.47605e-05
6.02553e-05
6.52393e-05
6.88898e-05
7.09402e-05
7.18949e-05
7.24234e-05
7.3043e-05
7.40916e-05
7.5339e-05
7.60155e-05
7.56016e-05
7.43157e-05
7.23753e-05
6.94581e-05
6.55434e-05
6.15799e-05
5.87022e-05
5.70631e-05
5.6051e-05
5.57917e-05
5.69509e-05
5.98756e-05
6.45283e-05
7.05028e-05
7.71659e-05
8.31321e-05
8.70536e-05
8.89445e-05
8.8865e-05
8.79314e-05
8.78692e-05
8.69529e-05
8.0517e-05
6.84104e-05
6.52513e-05
5.45522e-05
4.71068e-05
4.23289e-05
4.13974e-05
4.4473e-05
5.07186e-05
5.77385e-05
6.36747e-05
6.74572e-05
6.90572e-05
6.9349e-05
6.94712e-05
7.04707e-05
7.25029e-05
7.44789e-05
7.5264e-05
7.50352e-05
7.41223e-05
7.18486e-05
6.75727e-05
6.19461e-05
5.6794e-05
5.30847e-05
5.03445e-05
4.84406e-05
4.79797e-05
4.91858e-05
5.16409e-05
5.47468e-05
5.91604e-05
6.54083e-05
7.24215e-05
7.87555e-05
8.28703e-05
8.44895e-05
8.642e-05
8.93603e-05
8.79992e-05
7.84729e-05
7.5239e-05
6.48084e-05
5.5173e-05
4.41991e-05
3.57333e-05
3.39304e-05
3.75915e-05
4.49864e-05
5.31835e-05
5.96376e-05
6.2945e-05
6.3488e-05
6.29965e-05
6.35011e-05
6.58034e-05
6.86436e-05
7.02955e-05
7.11111e-05
7.20335e-05
7.20644e-05
6.94967e-05
6.36827e-05
5.63581e-05
4.99632e-05
4.48846e-05
4.09712e-05
3.88386e-05
3.87562e-05
4.00207e-05
4.1111e-05
4.16391e-05
4.42523e-05
4.91126e-05
5.70165e-05
6.66621e-05
7.29868e-05
7.69431e-05
8.28739e-05
8.78657e-05
8.50701e-05
7.85857e-05
7.38791e-05
6.91572e-05
5.83676e-05
4.07907e-05
2.95017e-05
2.81285e-05
3.07999e-05
3.69519e-05
4.51152e-05
5.11982e-05
5.3326e-05
5.27121e-05
5.25828e-05
5.48873e-05
5.82016e-05
5.99443e-05
6.06614e-05
6.30381e-05
6.66439e-05
6.86692e-05
6.64085e-05
5.92809e-05
5.0346e-05
4.24417e-05
3.63935e-05
3.27346e-05
3.14874e-05
3.34096e-05
3.77353e-05
3.72915e-05
3.21902e-05
3.2041e-05
3.3614e-05
4.11073e-05
5.23048e-05
5.898e-05
6.56378e-05
7.52567e-05
8.07898e-05
6.63307e-05
6.97333e-05
7.49692e-05
7.55584e-05
6.0261e-05
3.56945e-05
2.54901e-05
2.74077e-05
2.82625e-05
2.9408e-05
3.41411e-05
3.80244e-05
3.76595e-05
3.66632e-05
3.94179e-05
4.39354e-05
4.55534e-05
4.41141e-05
4.5406e-05
5.19962e-05
6.02334e-05
6.57524e-05
6.42805e-05
5.5601e-05
4.50773e-05
3.68254e-05
3.15658e-05
2.84811e-05
2.91969e-05
3.65346e-05
4.35116e-05
3.71948e-05
2.57634e-05
2.36721e-05
2.43459e-05
2.99515e-05
3.74013e-05
4.09406e-05
4.85956e-05
5.97377e-05
3.07746e-05
4.01998e-05
5.74854e-05
7.64073e-05
7.97885e-05
5.85745e-05
2.94647e-05
2.45142e-05
3.1786e-05
3.2099e-05
2.49468e-05
2.31101e-05
2.4675e-05
2.13639e-05
2.03852e-05
2.55188e-05
3.08011e-05
2.90046e-05
2.42573e-05
2.68344e-05
3.74495e-05
5.29695e-05
6.38781e-05
6.23536e-05
5.17498e-05
4.12567e-05
3.42743e-05
2.82821e-05
2.42699e-05
2.91486e-05
4.06739e-05
4.47466e-05
3.44353e-05
2.24643e-05
1.88735e-05
1.99681e-05
2.14474e-05
2.22554e-05
2.07953e-05
2.42615e-05
1.8443e-05
1.90225e-05
1.92214e-05
4.75627e-05
7.73263e-05
8.01847e-05
5.48332e-05
2.37813e-05
2.48756e-05
3.65512e-05
3.60284e-05
2.27223e-05
1.68731e-05
1.63747e-05
1.02472e-05
1.17148e-05
1.58404e-05
2.02453e-05
1.67277e-05
1.63305e-05
2.04575e-05
2.43537e-05
4.52167e-05
5.99942e-05
5.70479e-05
4.62975e-05
3.77989e-05
2.95213e-05
2.01207e-05
2.21888e-05
3.25836e-05
4.27113e-05
3.95576e-05
3.04424e-05
1.97531e-05
1.5703e-05
1.5107e-05
1.54736e-05
1.85485e-05
1.7292e-05
2.09892e-05
2.1481e-05
3.05882e-05
1.922e-05
4.59516e-05
7.68391e-05
7.60017e-05
4.85962e-05
1.81541e-05
2.61267e-05
3.9236e-05
3.64697e-05
2.02246e-05
1.3582e-05
1.08494e-05
1.12268e-05
1.64779e-05
1.36038e-05
1.52169e-05
1.40502e-05
2.17933e-05
2.82629e-05
2.11372e-05
3.7217e-05
4.98008e-05
4.60682e-05
3.80362e-05
2.97626e-05
1.85771e-05
1.64233e-05
2.48464e-05
3.36922e-05
3.71526e-05
3.04122e-05
2.36319e-05
1.08413e-05
1.42177e-05
1.69915e-05
2.29351e-05
2.76998e-05
3.37046e-05
2.78089e-05
2.39383e-05
3.02078e-05
1.51508e-05
4.82917e-05
7.25756e-05
6.64096e-05
3.95317e-05
1.45808e-05
2.7374e-05
3.72769e-05
3.28531e-05
1.98448e-05
1.43689e-05
1.1649e-05
1.58351e-05
1.89669e-05
1.65651e-05
1.63563e-05
1.30647e-05
2.20077e-05
3.09765e-05
2.06314e-05
2.64577e-05
3.40926e-05
3.13937e-05
2.7204e-05
2.1737e-05
1.32786e-05
2.00397e-05
2.40888e-05
3.10329e-05
2.60409e-05
2.08081e-05
1.36784e-05
3.93107e-06
1.7132e-05
1.95745e-05
2.60142e-05
2.14342e-05
3.08767e-05
2.8758e-05
2.9115e-05
2.52222e-05
1.60943e-05
5.16536e-05
6.4398e-05
5.22689e-05
2.83541e-05
1.43346e-05
2.67413e-05
3.26997e-05
2.84166e-05
2.07452e-05
1.55998e-05
1.30617e-05
1.71833e-05
2.03722e-05
1.93251e-05
1.84572e-05
1.4865e-05
1.97852e-05
2.66763e-05
1.68966e-05
8.35686e-06
1.03651e-05
1.68712e-05
2.22875e-05
1.85924e-05
1.33477e-05
1.92207e-05
2.51383e-05
2.52023e-05
1.74337e-05
1.32486e-05
1.10576e-05
9.62568e-06
1.7395e-05
1.48803e-05
9.1551e-06
1.73112e-05
2.04883e-05
2.16614e-05
3.0115e-05
1.81929e-05
2.81587e-05
5.42956e-05
5.40947e-05
3.88263e-05
1.92491e-05
1.66526e-05
2.53525e-05
2.71219e-05
2.3347e-05
1.97046e-05
1.72645e-05
1.65058e-05
1.89664e-05
1.99559e-05
1.9034e-05
1.74458e-05
1.15703e-05
1.72429e-05
2.42401e-05
1.97504e-05
1.34869e-05
1.42394e-05
1.59924e-05
1.79189e-05
1.29233e-05
1.26091e-05
1.9273e-05
2.49999e-05
1.92836e-05
1.32809e-05
1.44603e-05
1.50062e-05
1.06235e-05
1.13457e-05
7.58285e-06
9.86296e-06
1.49031e-05
1.27454e-05
2.39335e-05
2.7731e-05
1.27175e-05
4.34939e-05
5.41015e-05
4.31294e-05
2.74186e-05
1.63975e-05
1.98931e-05
2.44629e-05
2.44026e-05
2.36623e-05
2.32838e-05
2.12418e-05
2.07131e-05
2.15289e-05
2.00463e-05
1.8479e-05
1.83375e-05
1.75617e-05
1.67903e-05
1.67725e-05
2.11814e-05
2.19804e-05
1.30869e-05
1.02401e-05
1.36267e-05
1.11624e-05
1.35791e-05
1.99765e-05
2.12177e-05
1.68483e-05
1.4531e-05
1.74832e-05
1.43296e-05
9.52465e-06
1.80037e-05
1.23644e-05
9.86564e-06
1.71664e-05
1.97797e-05
3.21826e-05
2.19909e-05
2.6914e-05
5.66728e-05
5.64828e-05
4.31841e-05
3.20117e-05
2.64872e-05
2.68111e-05
2.72622e-05
2.7334e-05
2.86904e-05
2.81093e-05
2.56115e-05
2.28003e-05
1.97469e-05
1.93871e-05
2.01801e-05
1.94436e-05
1.68186e-05
1.71453e-05
2.13987e-05
1.96172e-05
1.00437e-05
1.13072e-05
1.74641e-05
1.42196e-05
1.23107e-05
1.6915e-05
1.90818e-05
1.72131e-05
1.53841e-05
1.4873e-05
1.42681e-05
1.40718e-05
2.05177e-05
2.30303e-05
1.79765e-05
1.6172e-05
2.10742e-05
2.54905e-05
3.3846e-05
2.03158e-05
3.0857e-05
6.09232e-05
6.987e-05
6.48856e-05
5.31073e-05
4.11001e-05
3.38521e-05
3.02788e-05
2.96244e-05
3.00138e-05
2.87956e-05
2.40085e-05
1.92999e-05
2.08357e-05
2.26054e-05
1.94581e-05
1.512e-05
1.51327e-05
1.64937e-05
1.27449e-05
8.59256e-06
1.32399e-05
2.1706e-05
2.0764e-05
1.52115e-05
1.75735e-05
2.02746e-05
1.9827e-05
1.78055e-05
1.70585e-05
1.6361e-05
1.61115e-05
1.43977e-05
1.36011e-05
1.69038e-05
2.25894e-05
2.79439e-05
3.0776e-05
2.89338e-05
2.74402e-05
2.09335e-05
2.17245e-05
4.68566e-05
6.90487e-05
7.30887e-05
6.02925e-05
4.3108e-05
3.07806e-05
2.57252e-05
2.53613e-05
2.36581e-05
1.62078e-05
1.5055e-05
2.34907e-05
2.42256e-05
1.9025e-05
1.79759e-05
2.03019e-05
1.73766e-05
8.97331e-06
6.77914e-06
1.21462e-05
2.18747e-05
2.75501e-05
2.35737e-05
1.93871e-05
1.89102e-05
1.96382e-05
2.32158e-05
2.48348e-05
2.21111e-05
1.77511e-05
2.09565e-05
1.51927e-05
1.73561e-05
2.18879e-05
2.45225e-05
2.72482e-05
2.79207e-05
2.36412e-05
1.85742e-05
2.33168e-05
2.52878e-05
2.43697e-05
4.10915e-05
5.5474e-05
5.36622e-05
4.24129e-05
3.03806e-05
1.95836e-05
1.04167e-05
8.52578e-06
1.18864e-05
1.38613e-05
1.78383e-05
2.46374e-05
2.97307e-05
2.9513e-05
2.18767e-05
1.40017e-05
1.71789e-05
1.72868e-05
1.52033e-05
1.87306e-05
1.90504e-05
1.61946e-05
1.66158e-05
1.81145e-05
2.53311e-05
3.46841e-05
3.65381e-05
3.01044e-05
3.77898e-05
2.93129e-05
2.00441e-05
1.57252e-05
1.37972e-05
1.50439e-05
1.96942e-05
2.26187e-05
2.1345e-05
1.91618e-05
2.3304e-05
2.74368e-05
2.502e-05
2.34783e-05
2.99917e-05
3.20347e-05
2.6167e-05
2.01153e-05
1.8023e-05
1.55672e-05
1.67942e-05
1.89959e-05
1.98244e-05
2.6809e-05
3.33132e-05
3.17219e-05
2.16487e-05
9.80003e-06
1.47553e-05
2.17115e-05
2.2647e-05
1.84709e-05
1.3521e-05
1.10583e-05
1.32906e-05
1.95874e-05
2.78567e-05
3.72307e-05
4.25156e-05
4.20794e-05
3.74861e-05
3.88916e-05
3.29467e-05
2.39062e-05
1.81079e-05
1.85976e-05
2.0741e-05
2.20318e-05
2.13033e-05
1.80115e-05
1.5308e-05
1.77904e-05
2.13201e-05
1.96144e-05
1.7248e-05
1.74708e-05
1.53719e-05
1.2037e-05
1.30835e-05
1.46362e-05
1.54877e-05
2.09307e-05
2.74603e-05
2.88769e-05
2.46166e-05
1.79851e-05
1.08006e-05
3.18757e-06
6.30305e-06
1.84956e-05
2.73473e-05
2.78001e-05
2.32727e-05
2.00145e-05
1.73327e-05
1.87385e-05
2.42625e-05
2.89665e-05
3.0343e-05
3.23436e-05
1.99134e-05
2.48258e-05
2.85906e-05
2.90587e-05
2.82147e-05
2.77151e-05
2.6358e-05
2.2688e-05
1.67382e-05
1.29042e-05
1.32154e-05
1.24481e-05
1.11888e-05
1.37521e-05
1.80595e-05
2.12939e-05
2.16447e-05
1.90665e-05
1.47509e-05
1.03623e-05
1.06279e-05
1.32065e-05
1.60991e-05
1.99763e-05
1.92011e-05
1.28953e-05
9.25711e-06
8.5661e-06
7.83413e-06
1.46102e-05
2.24671e-05
2.77661e-05
2.83766e-05
2.44151e-05
2.07331e-05
2.06096e-05
2.27331e-05
2.22996e-05
1.84508e-05
1.71622e-05
5.33804e-06
5.73461e-06
9.72038e-06
1.39941e-05
1.67417e-05
1.68009e-05
1.48224e-05
1.32195e-05
1.28053e-05
1.14169e-05
8.81319e-06
1.04558e-05
1.41837e-05
1.5692e-05
1.7128e-05
1.93515e-05
2.06315e-05
2.17487e-05
2.30391e-05
2.2367e-05
2.17964e-05
2.43125e-05
2.58591e-05
2.34156e-05
1.95111e-05
1.6815e-05
1.24726e-05
7.50086e-06
9.46272e-06
1.27176e-05
1.09778e-05
1.1167e-05
1.91646e-05
2.27029e-05
2.09932e-05
2.11413e-05
2.1414e-05
1.7768e-05
1.30311e-05
9.1841e-06
1.43228e-05
1.15926e-05
1.09298e-05
1.37069e-05
1.43763e-05
1.24719e-05
1.15508e-05
1.14192e-05
1.10846e-05
1.13595e-05
1.06433e-05
9.96118e-06
1.08796e-05
1.02329e-05
9.02907e-06
1.16077e-05
1.26403e-05
1.058e-05
1.39194e-05
1.81222e-05
1.6607e-05
1.18933e-05
1.12693e-05
1.55909e-05
1.7986e-05
1.5925e-05
1.25406e-05
1.14278e-05
1.12587e-05
1.67516e-05
2.45566e-05
2.81438e-05
2.68446e-05
2.30761e-05
1.79691e-05
1.44366e-05
1.39621e-05
1.43178e-05
1.50196e-05
1.53636e-05
2.33595e-05
1.97317e-05
1.19844e-05
5.34614e-06
6.77239e-06
6.55394e-06
1.00524e-05
1.55965e-05
1.75918e-05
1.76846e-05
1.6539e-05
1.57301e-05
1.77388e-05
2.0566e-05
2.26624e-05
2.41969e-05
2.44507e-05
2.18968e-05
1.72521e-05
1.44122e-05
1.58162e-05
1.59024e-05
1.15425e-05
1.03532e-05
1.49925e-05
1.68553e-05
1.82058e-05
1.9889e-05
1.81599e-05
2.09207e-05
3.04859e-05
3.36633e-05
2.79837e-05
2.29406e-05
2.09752e-05
1.85429e-05
1.82581e-05
1.98118e-05
2.22503e-05
2.39318e-05
4.4721e-05
4.32758e-05
4.36092e-05
4.45628e-05
4.62002e-05
4.88922e-05
5.26097e-05
5.64952e-05
5.99492e-05
6.29336e-05
6.55033e-05
6.75933e-05
6.91681e-05
7.0249e-05
7.07057e-05
7.05298e-05
7.01507e-05
7.00222e-05
7.0085e-05
6.98796e-05
6.92733e-05
6.85356e-05
6.78088e-05
6.72686e-05
6.7027e-05
6.70432e-05
6.75958e-05
6.89934e-05
7.12741e-05
7.48218e-05
7.93965e-05
8.31164e-05
8.47177e-05
8.47299e-05
8.37123e-05
8.11527e-05
7.5504e-05
6.64245e-05
5.65682e-05
4.90328e-05
4.64419e-05
4.3601e-05
4.28924e-05
4.33395e-05
4.50718e-05
4.8028e-05
5.17848e-05
5.57084e-05
5.94575e-05
6.3028e-05
6.6372e-05
6.92573e-05
7.15073e-05
7.29976e-05
7.35753e-05
7.35977e-05
7.38155e-05
7.43718e-05
7.46036e-05
7.40325e-05
7.28269e-05
7.14482e-05
7.01689e-05
6.9003e-05
6.78853e-05
6.70336e-05
6.70141e-05
6.84051e-05
7.15916e-05
7.66206e-05
8.21439e-05
8.61576e-05
8.8126e-05
8.86911e-05
8.78249e-05
8.55146e-05
8.11946e-05
7.3628e-05
6.31752e-05
5.30501e-05
4.9713e-05
4.34337e-05
4.0879e-05
4.05404e-05
4.19529e-05
4.49136e-05
4.88845e-05
5.32528e-05
5.75944e-05
6.18593e-05
6.59805e-05
6.96463e-05
7.26451e-05
7.4772e-05
7.59052e-05
7.65032e-05
7.73835e-05
7.85642e-05
7.90431e-05
7.82929e-05
7.65732e-05
7.44031e-05
7.21174e-05
6.97529e-05
6.73624e-05
6.53881e-05
6.44579e-05
6.53384e-05
6.85546e-05
7.41167e-05
8.03894e-05
8.53081e-05
8.85419e-05
9.03996e-05
9.03552e-05
8.90357e-05
8.72662e-05
8.30305e-05
7.3614e-05
6.0744e-05
5.64337e-05
4.46467e-05
3.87675e-05
3.67912e-05
3.75129e-05
4.04391e-05
4.47782e-05
4.97444e-05
5.47199e-05
5.95695e-05
6.42823e-05
6.86036e-05
7.22993e-05
7.51769e-05
7.71158e-05
7.84918e-05
8.01388e-05
8.20384e-05
8.30159e-05
8.24496e-05
8.05787e-05
7.77531e-05
7.42044e-05
7.00665e-05
6.57135e-05
6.204e-05
5.97413e-05
5.94964e-05
6.18707e-05
6.70426e-05
7.35807e-05
7.94052e-05
8.42633e-05
8.82027e-05
8.97061e-05
8.93536e-05
9.00213e-05
9.036e-05
8.49745e-05
7.20356e-05
6.81511e-05
5.05099e-05
3.8911e-05
3.34698e-05
3.23567e-05
3.47201e-05
3.92338e-05
4.47218e-05
5.02338e-05
5.54789e-05
6.04365e-05
6.50576e-05
6.91745e-05
7.27242e-05
7.55142e-05
7.76683e-05
8.00237e-05
8.25683e-05
8.42281e-05
8.44032e-05
8.32889e-05
8.06921e-05
7.63639e-05
7.03697e-05
6.33653e-05
5.70715e-05
5.27575e-05
5.08267e-05
5.16326e-05
5.55352e-05
6.1414e-05
6.72202e-05
7.28571e-05
7.93342e-05
8.36488e-05
8.42081e-05
8.60231e-05
9.0929e-05
9.25547e-05
8.46095e-05
8.23178e-05
6.30837e-05
4.46979e-05
3.33284e-05
2.81691e-05
2.84346e-05
3.24177e-05
3.79761e-05
4.36151e-05
4.88618e-05
5.35923e-05
5.78659e-05
6.18047e-05
6.56621e-05
6.91726e-05
7.20034e-05
7.46655e-05
7.72276e-05
7.89503e-05
7.99234e-05
8.08541e-05
8.05414e-05
7.72283e-05
7.06002e-05
6.12047e-05
5.15291e-05
4.44004e-05
4.06024e-05
4.00465e-05
4.2945e-05
4.75111e-05
5.19381e-05
5.55981e-05
6.22544e-05
7.04603e-05
7.27083e-05
7.33146e-05
8.05393e-05
9.04526e-05
9.26262e-05
9.11455e-05
7.91889e-05
5.82174e-05
3.99137e-05
2.84791e-05
2.3768e-05
2.59727e-05
3.12898e-05
3.64082e-05
4.04296e-05
4.36442e-05
4.62022e-05
4.86306e-05
5.19072e-05
5.58952e-05
5.95493e-05
6.226e-05
6.35823e-05
6.32378e-05
6.33194e-05
6.67171e-05
7.14384e-05
7.26699e-05
6.85621e-05
5.93479e-05
4.75091e-05
3.78555e-05
3.25568e-05
3.10476e-05
3.46633e-05
3.91056e-05
4.01569e-05
4.11936e-05
4.32323e-05
5.12828e-05
5.65618e-05
5.36545e-05
5.73421e-05
7.29879e-05
8.80171e-05
8.37742e-05
8.90636e-05
7.60889e-05
5.46373e-05
3.7099e-05
2.54019e-05
2.11521e-05
2.58296e-05
3.22893e-05
3.52918e-05
3.52654e-05
3.41122e-05
3.25451e-05
3.20639e-05
3.42195e-05
3.8431e-05
4.19717e-05
4.04485e-05
3.26892e-05
2.60615e-05
2.98549e-05
4.35364e-05
5.57396e-05
5.94186e-05
5.52682e-05
4.56981e-05
3.59837e-05
3.03806e-05
2.9031e-05
3.37195e-05
3.97535e-05
3.89858e-05
3.46118e-05
3.21175e-05
3.45397e-05
4.02824e-05
3.6514e-05
2.84274e-05
3.80656e-05
6.29144e-05
5.08277e-05
7.89367e-05
8.67592e-05
7.28796e-05
5.25641e-05
3.74154e-05
2.5537e-05
1.92454e-05
2.70471e-05
3.47374e-05
3.45382e-05
2.93688e-05
2.41369e-05
2.00387e-05
1.93056e-05
1.97701e-05
1.92546e-05
1.51499e-05
1.29849e-05
2.00783e-05
2.49251e-05
2.04647e-05
2.6038e-05
3.97929e-05
4.55365e-05
4.28852e-05
3.61231e-05
3.18691e-05
3.25017e-05
3.43371e-05
3.7308e-05
3.54469e-05
3.52243e-05
2.98035e-05
2.41662e-05
2.60485e-05
2.91167e-05
1.78296e-05
1.27115e-05
2.09677e-05
1.50009e-05
3.935e-05
7.39295e-05
8.24083e-05
6.81246e-05
5.20899e-05
4.14256e-05
2.78708e-05
1.71164e-05
2.96303e-05
3.76555e-05
3.38093e-05
2.49091e-05
1.80083e-05
1.58352e-05
1.78499e-05
1.78978e-05
1.80523e-05
1.86634e-05
1.71479e-05
2.12591e-05
2.81653e-05
2.16339e-05
2.06138e-05
3.27879e-05
3.77364e-05
3.47067e-05
3.10494e-05
3.29118e-05
3.40279e-05
3.08675e-05
2.8116e-05
2.18505e-05
2.89517e-05
1.75937e-05
2.06404e-05
1.83692e-05
2.38614e-05
8.2257e-06
1.88765e-05
2.78519e-05
1.97178e-05
3.3787e-05
6.84499e-05
7.50032e-05
6.2344e-05
5.24965e-05
4.57823e-05
2.89161e-05
1.65484e-05
3.24918e-05
3.86645e-05
3.30397e-05
2.38732e-05
1.63918e-05
1.48168e-05
2.00809e-05
2.28951e-05
1.62817e-05
7.57208e-06
9.47291e-06
1.53196e-05
2.25686e-05
1.51763e-05
2.14231e-05
3.28349e-05
3.43719e-05
3.16104e-05
3.01423e-05
2.6888e-05
2.50146e-05
2.18676e-05
1.98043e-05
1.02096e-05
1.86123e-05
1.0916e-05
2.10909e-05
1.27038e-05
2.22962e-05
1.05123e-05
1.99863e-05
3.18383e-05
2.04803e-05
3.45154e-05
6.35776e-05
6.70451e-05
5.61222e-05