/*--------------------------------*- C++ -*----------------------------------*\
| =========                 |                                                 |
| \\      /  F ield         | OpenFOAM: The Open Source CFD Toolbox           |
|  \\    /   O peration     | Version:  2306                                  |
|   \\  /    A nd           | Website:  www.openfoam.com                      |
|    \\/     M anipulation  |                                                 |
\*---------------------------------------------------------------------------*/
FoamFile
{
    version     2.0;
    format      ascii;
    arch        "LSB;label=32;scalar=64";
    class       volScalarField;
    location    "9.5";
    object      p;
}
// * * * * * * * * * * * * * * * * * * * * * * * * * * * * * * * * * * * * * //

dimensions      [0 2 -2 0 0 0 0];

internalField   nonuniform List<scalar> 
60000
(
2.27265e-05
-2.8839e-05
-5.89896e-05
-5.11857e-05
-2.46594e-05
5.10644e-06
1.10928e-05
-1.1261e-05
-4.94582e-05
-8.97776e-05
-0.000119531
-0.000139834
-0.000146556
-0.000138547
-0.000123591
-0.000114673
-0.000112735
-9.94995e-05
-6.79468e-05
-3.5768e-05
-1.98695e-05
-9.12765e-06
4.09316e-06
-3.01303e-07
-4.29075e-05
-0.000107513
-0.000175768
-0.000231578
-0.000250124
-0.000191692
-7.45175e-05
2.04745e-05
4.63052e-05
1.9904e-05
-2.1852e-05
-4.71448e-05
-3.04739e-05
2.03148e-05
6.33868e-05
6.43991e-05
2.37699e-05
-2.79062e-05
-5.82772e-05
-5.06925e-05
-2.39121e-05
6.03202e-06
1.19343e-05
-1.0751e-05
-4.92767e-05
-9.00106e-05
-0.00011983
-0.000140129
-0.000146849
-0.000138949
-0.000124206
-0.000115334
-0.000113495
-0.000100335
-6.86918e-05
-3.63949e-05
-2.05425e-05
-9.61914e-06
4.11832e-06
4.09982e-07
-4.15051e-05
-0.000106379
-0.00017532
-0.000232193
-0.000252334
-0.000194847
-7.74553e-05
1.87534e-05
4.54584e-05
1.95729e-05
-2.23049e-05
-4.81368e-05
-3.17798e-05
1.94902e-05
6.34604e-05
6.53033e-05
2.45688e-05
-2.74536e-05
-5.74926e-05
-5.08432e-05
-2.33725e-05
7.14568e-06
1.28202e-05
-1.10601e-05
-5.07234e-05
-9.24596e-05
-0.000122144
-0.000141946
-0.000148102
-0.000139927
-0.000125026
-0.000116065
-0.000114512
-0.000101694
-6.99349e-05
-3.73853e-05
-2.15847e-05
-1.02448e-05
4.62424e-06
1.99003e-06
-3.97824e-05
-0.000105314
-0.00017554
-0.000233986
-0.000255925
-0.000198595
-8.02371e-05
1.77249e-05
4.50106e-05
1.92201e-05
-2.33202e-05
-5.02645e-05
-3.44911e-05
1.75638e-05
6.2935e-05
6.58981e-05
2.49024e-05
-2.77155e-05
-5.75976e-05
-5.14277e-05
-2.2553e-05
8.79001e-06
1.41526e-05
-1.23165e-05
-5.4636e-05
-9.85027e-05
-0.000127833
-0.000146317
-0.000150885
-0.000141656
-0.000126067
-0.000116709
-0.000115568
-0.000103393
-7.16165e-05
-3.87951e-05
-2.31069e-05
-1.10162e-05
5.82148e-06
4.34801e-06
-3.73815e-05
-0.000104391
-0.000176413
-0.000236811
-0.000260804
-0.000203165
-8.25496e-05
1.79549e-05
4.50749e-05
1.83866e-05
-2.54726e-05
-5.38825e-05
-3.87061e-05
1.45785e-05
6.1712e-05
6.60745e-05
2.46692e-05
-2.87128e-05
-5.86316e-05
-5.25204e-05
-2.21737e-05
1.13114e-05
1.64312e-05
-1.38089e-05
-6.04048e-05
-0.000108469
-0.000137688
-0.000154123
-0.000155774
-0.000144362
-0.000127211
-0.000116857
-0.000116033
-0.000104801
-7.33749e-05
-4.06856e-05
-2.55219e-05
-1.23622e-05
7.70096e-06
8.20056e-06
-3.41651e-05
-0.000103615
-0.000177625
-0.000240476
-0.000268078
-0.000210699
-8.73076e-05
1.72865e-05
4.50345e-05
1.68312e-05
-2.91507e-05
-5.91139e-05
-4.41644e-05
1.11451e-05
6.00488e-05
6.56938e-05
2.418e-05
-3.01562e-05
-6.10097e-05
-5.56269e-05
-2.30176e-05
1.35098e-05
1.89045e-05
-1.68157e-05
-6.74762e-05
-0.000121364
-0.000151439
-0.00016578
-0.000163269
-0.000148427
-0.000128664
-0.000116394
-0.000115345
-0.000104951
-7.42421e-05
-4.25425e-05
-2.89454e-05
-1.47857e-05
1.00888e-05
1.40752e-05
-2.95101e-05
-0.000102387
-0.000178891
-0.000244503
-0.000277588
-0.000224497
-9.87859e-05
1.02399e-05
4.01082e-05
1.29801e-05
-3.46619e-05
-6.61292e-05
-5.0382e-05
8.0384e-06
5.87056e-05
6.5193e-05
2.4276e-05
-3.07933e-05
-6.41778e-05
-6.26485e-05
-2.90098e-05
1.40572e-05
2.37296e-05
-1.84228e-05
-8.8264e-05
-0.000139236
-0.000168833
-0.000180829
-0.000173091
-0.000154518
-0.000130958
-0.000115895
-0.0001137
-0.000103485
-7.32321e-05
-4.31925e-05
-3.27587e-05
-1.84104e-05
1.2702e-05
2.25698e-05
-2.24355e-05
-9.99641e-05
-0.000180093
-0.000248245
-0.0002873
-0.000239881
-0.000111746
-2.95972e-07
2.98205e-05
2.53227e-06
-4.41368e-05
-7.61468e-05
-5.71959e-05
5.25341e-06
5.81607e-05
6.52218e-05
2.67712e-05
-2.78226e-05
-6.47238e-05
-7.02473e-05
-4.0533e-05
8.34287e-06
2.88778e-05
-1.17069e-05
-9.67903e-05
-0.000164637
-0.000194073
-0.00020129
-0.000185291
-0.000160363
-0.000133262
-0.000116476
-0.000113228
-0.000101507
-7.06268e-05
-4.16142e-05
-3.54991e-05
-2.2515e-05
1.52225e-05
3.37547e-05
-1.19143e-05
-9.60485e-05
-0.000180199
-0.000248334
-0.000287939
-0.000242381
-0.000112585
7.83185e-07
2.63618e-05
-8.57745e-06
-5.97953e-05
-9.20234e-05
-7.0446e-05
-8.13358e-07
5.72907e-05
6.7102e-05
2.92537e-05
-1.99728e-05
-5.62509e-05
-6.89526e-05
-4.91281e-05
-5.36844e-07
3.2507e-05
1.64731e-06
-9.28913e-05
-0.000185846
-0.000226716
-0.000232026
-0.00020329
-0.00016891
-0.000135354
-0.000116344
-0.000115597
-0.000104724
-7.01822e-05
-3.75387e-05
-3.51572e-05
-2.43647e-05
1.77462e-05
4.62263e-05
1.95401e-06
-9.13363e-05
-0.000179386
-0.000245606
-0.000278133
-0.00022451
-8.97367e-05
2.50481e-05
4.16048e-05
-7.57157e-06
-7.32946e-05
-0.000114404
-9.12389e-05
-1.26353e-05
4.94501e-05
6.44724e-05
2.82194e-05
-1.38982e-05
-4.40716e-05
-5.80284e-05
-4.74236e-05
-5.14605e-06
3.76611e-05
2.34015e-05
-7.3163e-05
-0.000191337
-0.000261489
-0.000275372
-0.000228777
-0.000181893
-0.000141604
-0.000118543
-0.000117405
-0.000110938
-7.74591e-05
-4.05375e-05
-2.80365e-05
-1.9297e-05
2.27172e-05
5.7532e-05
1.38098e-05
-8.69791e-05
-0.000177986
-0.000244566
-0.000266474
-0.000197292
-5.09742e-05
7.09061e-05
7.90155e-05
9.02324e-06
-8.09988e-05
-0.000139427
-0.00012063
-2.97894e-05
4.09602e-05
5.94926e-05
2.2769e-05
-8.57325e-06
-2.6316e-05
-3.22009e-05
-3.59973e-05
-6.71296e-06
4.30021e-05
5.26843e-05
-3.4172e-05
-0.000172046
-0.000278643
-0.000311664
-0.000267317
-0.000200755
-0.000148414
-0.000123424
-0.000122344
-0.000116308
-8.53251e-05
-5.0692e-05
-3.69131e-05
-2.11422e-05
2.75782e-05
6.57809e-05
1.81748e-05
-8.49197e-05
-0.000180487
-0.00024649
-0.000263115
-0.000184024
-2.75851e-05
0.000113815
0.000129011
4.33427e-05
-7.50186e-05
-0.000157485
-0.000153591
-5.32166e-05
2.42707e-05
4.89244e-05
1.67365e-05
-9.24076e-06
-5.99905e-06
6.93095e-06
6.91723e-07
-1.40304e-06
4.20803e-05
7.95653e-05
1.83997e-05
-0.000124802
-0.0002639
-0.000335394
-0.000308671
-0.000232014
-0.000159726
-0.000126407
-0.000125466
-0.000121656
-9.24188e-05
-5.87302e-05
-4.58741e-05
-3.71769e-05
9.55296e-06
5.5299e-05
1.03447e-05
-8.55889e-05
-0.000182137
-0.000240549
-0.000256512
-0.000188973
-3.84895e-05
0.000122355
0.000165151
9.02229e-05
-4.45955e-05
-0.000154619
-0.0001776
-7.6739e-05
1.63684e-07
3.11647e-05
4.38955e-06
-1.68202e-05
-4.27171e-07
3.99745e-05
4.47928e-05
3.21826e-05
3.85737e-05
9.38497e-05
6.63961e-05
-6.15296e-05
-0.000215703
-0.000327485
-0.00034315
-0.000266479
-0.000176285
-0.000130203
-0.000126308
-0.000126634
-9.88811e-05
-6.43506e-05
-5.17709e-05
-4.63211e-05
-2.22904e-05
-7.96619e-06
-1.8747e-05
-9.03749e-05
-0.000168961
-0.000217978
-0.000227742
-0.000181338
-6.66939e-05
7.6935e-05
0.000171345
0.000128079
9.35234e-06
-0.000116784
-0.000153148
-9.15195e-05
-2.42521e-05
1.21614e-05
-1.02327e-05
-2.66129e-05
-6.34773e-06
4.7255e-05
7.0812e-05
5.75311e-05
4.33423e-05
9.37078e-05
9.82761e-05
-1.77823e-06
-0.000148998
-0.000286199
-0.000349689
-0.000301269
-0.000196339
-0.000133582
-0.000125044
-0.00013213
-0.000109496
-6.96083e-05
-5.50546e-05
-4.73045e-05
-3.49825e-05
-3.54673e-05
-5.18716e-05
-9.51233e-05
-0.000147131
-0.000186745
-0.000187634
-0.000165928
-8.50395e-05
3.03779e-05
0.00014665
0.000135709
6.31021e-05
-5.10492e-05
-0.000108689
-8.96084e-05
-4.6738e-05
-1.11583e-05
-2.97501e-05
-3.34365e-05
-1.14913e-05
3.79054e-05
6.91525e-05
6.18145e-05
4.58868e-05
8.03609e-05
0.000111824
4.04624e-05
-8.09619e-05
-0.000221296
-0.000320299
-0.000314294
-0.000218055
-0.000137125
-0.000122194
-0.000134887
-0.000124187
-8.33632e-05
-5.57011e-05
-4.28763e-05
-3.23633e-05
-4.30037e-05
-6.90533e-05
-9.70431e-05
-0.000125962
-0.000153147
-0.000164129
-0.00014419
-9.26288e-05
-1.57186e-05
8.00981e-05
0.000116815
8.71114e-05
8.05694e-06
-5.34928e-05
-7.22118e-05
-6.37984e-05
-3.66885e-05
-5.54296e-05
-3.94169e-05
-1.03023e-05
3.06868e-05
4.24481e-05
5.42969e-05
4.01698e-05
6.02589e-05
0.000107209
8.05365e-05
-2.93166e-05
-0.000155935
-0.000261318
-0.000290846
-0.000225635
-0.000145628
-0.000120649
-0.000134411
-0.000132324
-9.75346e-05
-6.33036e-05
-4.41077e-05
-3.07813e-05
-3.92569e-05
-7.21629e-05
-9.8586e-05
-0.000107069
-0.000112417
-0.000135806
-0.000120143
-8.39763e-05
-4.36837e-05
4.0201e-05
8.12803e-05
7.9847e-05
3.559e-05
-1.38644e-05
-4.68874e-05
-6.37255e-05
-6.38591e-05
-7.69088e-05
-4.94161e-05
-1.01755e-05
2.68389e-05
4.03002e-05
3.59332e-05
2.51782e-05
4.79525e-05
8.06388e-05
6.93531e-05
-3.29541e-06
-0.000106299
-0.000194056
-0.000239793
-0.000208339
-0.000145515
-0.000117721
-0.000132571
-0.000134405
-0.000105287
-6.91476e-05
-4.6475e-05
-3.83304e-05
-4.7693e-05
-7.7617e-05
-0.000104569
-9.31703e-05
-8.75654e-05
-0.000108716
-0.000103505
-7.40702e-05
-4.45e-05
-5.47703e-07
4.73739e-05
6.68601e-05
4.60692e-05
6.41647e-06
-3.07412e-05
-5.99918e-05
-7.65362e-05
-7.50737e-05
-4.95565e-05
-6.22477e-06
2.13883e-05
4.89595e-05
3.44658e-05
1.41107e-05
2.78855e-05
4.67133e-05
3.40477e-05
-7.35876e-06
-5.30556e-05
-0.000115093
-0.00016366
-0.000174302
-0.000144732
-0.000113226
-0.000123777
-0.000127253
-0.00010568
-7.05092e-05
-4.97348e-05
-4.07208e-05
-4.27898e-05
-8.6033e-05
-0.000111242
-9.20986e-05
-6.97404e-05
-8.92792e-05
-9.95126e-05
-6.75223e-05
-2.76039e-05
-9.55638e-06
1.52965e-05
4.0407e-05
4.21381e-05
1.23628e-05
-2.73914e-05
-6.4635e-05
-8.51816e-05
-6.52843e-05
-1.98337e-05
1.42406e-05
5.11434e-05
5.54383e-05
3.13947e-05
-7.09451e-06
-9.55912e-06
1.3454e-05
1.36783e-05
-9.53624e-06
-5.34011e-05
-6.8078e-05
-8.44999e-05
-0.000108171
-0.000119984
-0.000142088
-0.000127524
-0.000125247
-0.00010944
-8.50231e-05
-7.26528e-05
-6.08316e-05
-4.30406e-05
-7.55265e-05
-9.96512e-05
-8.53071e-05
-5.19354e-05
-5.198e-05
-7.28733e-05
-5.68468e-05
-1.54695e-05
-1.21691e-05
-4.16377e-06
2.5104e-05
3.89569e-05
6.44219e-06
-4.8762e-05
-8.01431e-05
-8.54771e-05
-5.51806e-05
-1.57993e-05
1.21317e-05
2.92786e-05
3.41312e-05
1.58943e-05
-1.74847e-05
-3.17638e-05
-2.2082e-05
-2.28616e-05
-1.17903e-05
-4.05825e-05
-5.17995e-05
-6.47081e-05
-8.13319e-05
-8.93112e-05
-8.70309e-05
-0.000104108
-0.000111907
-0.000107769
-9.42283e-05
-9.44585e-05
-0.000103999
-0.000118025
-9.85447e-05
-8.95175e-05
-7.4319e-05
-4.19972e-05
-2.38105e-05
-4.00573e-05
-5.59733e-05
-5.54728e-05
-3.33808e-05
-2.24041e-05
1.9882e-05
4.81551e-05
1.05463e-05
-6.09531e-05
-9.09251e-05
-8.54643e-05
-0.000118787
-5.94295e-05
-7.63926e-06
2.49283e-05
4.00458e-05
2.33289e-05
-8.82163e-06
-3.06597e-05
-2.92648e-05
-4.72516e-05
-8.98785e-05
-9.45388e-05
-8.78909e-05
-7.53711e-05
-6.85543e-05
-7.3671e-05
-8.53409e-05
-0.000103367
-0.000110834
-0.000106091
-9.91363e-05
-0.00010141
-0.00011393
-0.000137458
-0.000126066
-0.000112661
-8.23642e-05
-3.46147e-05
-2.76243e-06
-1.97545e-05
-6.12944e-05
-7.95574e-05
-5.07e-05
-2.05833e-05
3.72759e-05
5.74766e-05
1.73573e-05
-6.24018e-05
-0.000122362
-0.000152978
-0.000178965
-0.000111949
-3.95587e-05
1.04362e-05
2.61687e-05
1.12308e-05
-8.72716e-06
-3.00473e-05
-1.40032e-05
-7.50534e-06
-3.71671e-05
-6.99905e-05
-9.23838e-05
-9.23318e-05
-7.70787e-05
-6.81182e-05
-8.13012e-05
-0.000101256
-0.000108518
-0.000105755
-0.000103221
-0.000105089
-0.000114806
-0.000130076
-0.000131619
-0.000125926
-8.99882e-05
-3.92241e-05
5.36724e-06
1.15657e-06
-4.69948e-05
-7.91838e-05
-6.45165e-05
-5.36225e-05
4.31078e-05
8.37883e-05
4.48545e-05
-5.07733e-05
-0.00014535
-0.000204941
-0.000162804
-0.000127194
-7.73947e-05
-2.78137e-05
3.56742e-06
5.68578e-06
-1.3578e-05
-3.48659e-05
-3.66868e-05
-1.80013e-05
-1.39054e-05
-2.32674e-05
-4.70189e-05
-6.87681e-05
-7.85136e-05
-8.59452e-05
-9.94146e-05
-0.000109233
-0.000106619
-0.00010216
-0.000103592
-0.00010409
-9.67463e-05
-9.36531e-05
-9.47608e-05
-9.51274e-05
-8.14302e-05
-4.75336e-05
-2.81716e-06
1.27556e-05
-2.06049e-05
-5.65831e-05
-5.53332e-05
-3.68132e-05
1.1203e-05
5.95785e-05
5.52106e-05
-1.38568e-05
-0.000100219
-0.000155977
-0.000136666
-0.000127802
-9.96686e-05
-6.2375e-05
-3.01042e-05
-1.46569e-05
-1.38187e-05
-4.34271e-07
-1.11623e-05
-4.80274e-06
-1.24467e-05
-3.9853e-05
-7.23186e-05
-9.67286e-05
-0.000113535
-0.00011545
-0.00011359
-0.000104473
-8.48843e-05
-6.8205e-05
-7.21814e-05
-8.66366e-05
-0.000100194
-0.000102598
-0.000101167
-8.49832e-05
-5.75425e-05
-3.60264e-05
8.80448e-08
2.08686e-05
3.02188e-06
-3.87517e-05
-6.60222e-05
-6.90173e-05
-4.63951e-05
-6.31351e-06
1.17832e-05
-1.35676e-05
-6.71476e-05
-0.000114661
-0.000108025
-0.00012329
-0.000113797
-8.77221e-05
-6.07714e-05
-3.705e-05
-2.67275e-05
-3.03626e-05
-2.09015e-05
-1.28658e-05
-1.4565e-05
-3.78098e-05
-7.41373e-05
-0.000103521
-0.000124353
-0.000133046
-0.000135366
-0.000127653
-0.000105826
-8.28077e-05
-7.89385e-05
-9.2146e-05
-9.6476e-05
-8.12193e-05
-7.39861e-05
-6.81738e-05
-4.44501e-05
-4.40284e-06
2.59456e-05
4.13144e-05
1.3995e-05
-5.04159e-05
-0.000104164
-0.000119481
-0.000103935
-6.95989e-05
-3.91535e-05
-3.0421e-05
-5.16825e-05
-8.33198e-05
6.3005e-05
-1.14563e-08
-2.05373e-05
7.82447e-06
5.17468e-05
7.39233e-05
5.89318e-05
6.10824e-06
-6.4913e-05
-0.000128764
-0.000169193
-0.000187127
-0.000189594
-0.000182398
-0.000172306
-0.000165603
-0.000161392
-0.000145334
-0.00010858
-6.47037e-05
-3.5097e-05
-2.15956e-05
-1.84903e-05
-2.51007e-05
-3.81612e-05
-7.68834e-05
-0.00013936
-0.000211329
-0.00026004
-0.000215737
-6.85789e-05
7.14239e-05
0.000111492
8.41767e-05
6.84041e-05
6.7082e-05
7.30365e-05
0.00010096
0.000132891
0.000122848
6.31572e-05
-1.16474e-07
-2.09396e-05
7.92564e-06
5.22937e-05
7.53693e-05
6.14773e-05
9.03783e-06
-6.22139e-05
-0.000126773
-0.00016801
-0.000186572
-0.000189373
-0.000182418
-0.000172549
-0.00016604
-0.000161994
-0.00014614
-0.000109576
-6.57234e-05
-3.59413e-05
-2.21547e-05
-1.88218e-05
-2.50964e-05
-3.7945e-05
-7.64108e-05
-0.000138807
-0.000211539
-0.00026213
-0.000220103
-7.38807e-05
6.71895e-05
0.000108519
8.162e-05
6.57925e-05
6.45049e-05
7.02074e-05
9.80691e-05
0.000130938
0.00012231
6.35889e-05
-3.43811e-07
-2.14959e-05
8.66201e-06
5.40134e-05
7.83046e-05
6.48552e-05
1.16594e-05
-6.11531e-05
-0.000127251
-0.000169305
-0.000188005
-0.000190518
-0.000183365
-0.000173507
-0.000167093
-0.000163266
-0.000147702
-0.000111393
-6.73843e-05
-3.70997e-05
-2.27227e-05
-1.90368e-05
-2.44241e-05
-3.76221e-05
-7.57401e-05
-0.000138194
-0.000212242
-0.000264776
-0.000225316
-7.89983e-05
6.43134e-05
0.000106838
7.92455e-05
6.29458e-05
6.20708e-05
6.75363e-05
9.48559e-05
0.000128655
0.000121923
6.37411e-05
-1.14582e-06
-2.24605e-05
1.02735e-05
5.70935e-05
8.28824e-05
6.86534e-05
1.26134e-05
-6.37297e-05
-0.00013224
-0.000174657
-0.000192437
-0.000193595
-0.000185483
-0.000175194
-0.000168678
-0.000165104
-0.00014991
-0.000113895
-6.95548e-05
-3.8405e-05
-2.29952e-05
-1.87505e-05
-2.31222e-05
-3.70569e-05
-7.48371e-05
-0.000137662
-0.00021302
-0.000267933
-0.000230556
-8.28811e-05
6.40486e-05
0.000106797
7.72564e-05
5.96485e-05
5.96035e-05
6.51926e-05
9.1765e-05
0.000126275
0.000121404
6.28414e-05
-3.55947e-06
-2.50237e-05
1.16913e-05
6.25064e-05
8.92174e-05
7.32526e-05
1.15904e-05
-7.0913e-05
-0.00014287
-0.000184871
-0.000200299
-0.000198821
-0.000188846
-0.000177489
-0.000170516
-0.000167066
-0.000152285
-0.000116668
-7.20355e-05
-3.99239e-05
-2.30757e-05
-1.78573e-05
-2.13118e-05
-3.56203e-05
-7.3586e-05
-0.000137108
-0.000213834
-0.000272133
-0.000238161
-8.90822e-05
6.37175e-05
0.000107967
7.52227e-05
5.53923e-05
5.64887e-05
6.30663e-05
8.92931e-05
0.00012414
0.000120494
6.10154e-05
-7.74621e-06
-3.03797e-05
1.08065e-05
6.86389e-05
9.92231e-05
8.0062e-05
1.02464e-05
-8.20855e-05
-0.000159334
-0.000200345
-0.00021183
-0.000206385
-0.000193676
-0.00018047
-0.000172398
-0.000168707
-0.00015413
-0.000118877
-7.41084e-05
-4.14013e-05
-2.32661e-05
-1.66991e-05
-1.89301e-05
-3.35809e-05
-7.19385e-05
-0.000136382
-0.000214964
-0.000279053
-0.000252992
-0.000105285
5.49755e-05
0.00010414
7.01209e-05
4.88989e-05
5.16308e-05
6.02863e-05
8.7372e-05
0.00012248
0.00011939
5.96098e-05
-1.17572e-05
-3.70126e-05
6.84063e-06
7.39069e-05
0.000113153
9.18302e-05
1.37903e-05
-9.36267e-05
-0.000180119
-0.000220805
-0.000227047
-0.000216315
-0.00020011
-0.000184347
-0.000174454
-0.000169996
-0.000155333
-0.000119896
-7.46136e-05
-4.17182e-05
-2.32216e-05
-1.58809e-05
-1.64583e-05
-3.08171e-05
-6.97185e-05
-0.000135466
-0.000216823
-0.000288889
-0.000275433
-0.000134015
3.26502e-05
8.98175e-05
5.56217e-05
3.51207e-05
4.158e-05
5.34583e-05
8.36167e-05
0.00012023
0.000118148
6.05966e-05
-9.42834e-06
-3.79624e-05
3.18299e-06
7.86133e-05
0.000130538
0.000116516
3.05292e-05
-9.48416e-05
-0.000199741
-0.000245004
-0.000246377
-0.000229167
-0.000208127
-0.000188663
-0.000176664
-0.000171634
-0.000156821
-0.00012027
-7.32376e-05
-3.94285e-05
-2.14392e-05
-1.51089e-05
-1.47285e-05
-2.78192e-05
-6.71437e-05
-0.000134877
-0.000221331
-0.000296978
-0.000293897
-0.000162918
3.45739e-06
7.01053e-05
3.54252e-05
1.18863e-05
2.29314e-05
3.85068e-05
7.09127e-05
0.000111708
0.000115168
6.01492e-05
1.85288e-06
-2.49007e-05
7.51142e-06
8.47562e-05
0.00015053
0.000152306
6.66061e-05
-7.70988e-05
-0.000204257
-0.000268754
-0.000269504
-0.000246042
-0.000219421
-0.000194328
-0.00017835
-0.000172638
-0.000158891
-0.000122763
-7.32858e-05
-3.59469e-05
-1.70639e-05
-1.26711e-05
-1.38365e-05
-2.58104e-05
-6.52396e-05
-0.000135354
-0.000224149
-0.000299309
-0.00029419
-0.000169242
-1.56726e-05
5.16323e-05
1.88608e-05
-1.652e-05
-3.46247e-06
1.73214e-05
5.13235e-05
9.2071e-05
0.000102382
5.72958e-05
1.10095e-05
-7.2014e-06
2.123e-05
9.33141e-05
0.000167411
0.000193694
0.000123049
-3.38615e-05
-0.000189003
-0.000276622
-0.000294951
-0.000268001
-0.000233482
-0.000201746
-0.000182228
-0.000174615
-0.000159872
-0.000124864
-7.61477e-05
-3.77671e-05
-1.49455e-05
-8.86998e-06
-1.29757e-05
-2.61658e-05
-6.53784e-05
-0.000137026
-0.000229285
-0.000299032
-0.000283487
-0.000154469
-1.27772e-05
4.18403e-05
8.41869e-06
-3.8586e-05
-3.69602e-05
-1.42998e-05
2.6679e-05
7.36421e-05
9.10215e-05
6.12795e-05
2.27016e-05
1.0661e-05
3.25672e-05
9.71782e-05
0.000170536
0.000223123
0.000187861
3.40873e-05
-0.000146933
-0.000265826
-0.000309513
-0.00029517
-0.000251365
-0.000208008
-0.000185064
-0.000177759
-0.000162112
-0.000126011
-7.82005e-05
-4.09069e-05
-1.8655e-05
-1.08773e-05
-1.53294e-05
-3.11693e-05
-6.95587e-05
-0.000139726
-0.000234143
-0.000298823
-0.000272984
-0.000140834
-1.77456e-06
4.61787e-05
7.28074e-06
-5.00444e-05
-6.58253e-05
-4.93511e-05
-6.3633e-06
5.0744e-05
8.43784e-05
5.40924e-05
2.91719e-05
2.91737e-05
4.64848e-05
8.8692e-05
0.000154973
0.00022498
0.000236103
0.000109957
-8.09992e-05
-0.000227339
-0.000306264
-0.000315938
-0.000275356
-0.000216684
-0.000186561
-0.000179853
-0.000164045
-0.000126832
-8.12159e-05
-4.83256e-05
-2.80974e-05
-2.16673e-05
-2.92869e-05
-4.50183e-05
-7.88667e-05
-0.000142231
-0.000232916
-0.000296713
-0.000267842
-0.00014238
-2.76695e-06
4.94649e-05
1.97506e-05
-4.43397e-05
-7.81258e-05
-6.30707e-05
-4.02966e-05
1.85748e-05
6.56555e-05
3.58371e-05
2.84402e-05
4.21926e-05
5.91509e-05
8.38786e-05
0.00011991
0.000197246
0.000253763
0.000165112
-1.20338e-05
-0.000165913
-0.000273094
-0.000323953
-0.000300923
-0.000233238
-0.000190225
-0.000180617
-0.000166646
-0.000129624
-8.79644e-05
-6.19884e-05
-4.44391e-05
-4.03803e-05
-5.49267e-05
-7.15436e-05
-9.72841e-05
-0.000142847
-0.000216583
-0.000287538
-0.000258085
-0.000151775
-2.91517e-05
2.92272e-05
3.54225e-05
-2.29867e-05
-6.73246e-05
-6.74616e-05
-6.33266e-05
-1.82985e-05
3.36624e-05
9.02091e-06
1.85343e-05
4.27976e-05
6.89915e-05
8.04018e-05
9.58208e-05
0.000167308
0.000247165
0.000190888
3.80187e-05
-0.000104669
-0.000216053
-0.000302737
-0.000317345
-0.00025613
-0.00019822
-0.000179716
-0.000168622
-0.000138634
-9.71668e-05
-6.94919e-05
-5.07774e-05
-4.94146e-05
-7.34662e-05
-9.64206e-05
-0.000112211
-0.000133816
-0.000183733
-0.000271858
-0.000230577
-0.000146128
-5.73605e-05
-1.49899e-05
3.83906e-05
3.92803e-06
-3.95532e-05
-4.93544e-05
-6.42014e-05
-4.49783e-05
-1.74274e-05
-1.34922e-05
2.27493e-06
2.62978e-05
6.1593e-05
7.3856e-05
7.88479e-05
0.000132476
0.000211211
0.000188951
6.24322e-05
-6.1787e-05
-0.000157893
-0.000254082
-0.000310828
-0.000275141
-0.00020838
-0.000176872
-0.00017277
-0.000152066
-0.000107215
-6.99602e-05
-4.51737e-05
-4.15982e-05
-6.51335e-05
-9.38387e-05
-0.000106193
-0.000118007
-0.000154531
-0.000219316
-0.000197764
-0.000128996
-7.13234e-05
-2.85573e-05
2.76706e-05
2.32048e-05
-9.12135e-06
-2.65165e-05
-5.16669e-05
-5.5318e-05
-3.92607e-05
-3.42883e-05
-1.24532e-05
1.33332e-05
5.47004e-05
7.12787e-05
7.15472e-05
9.69038e-05
0.000160866
0.000167382
7.43257e-05
-3.27627e-05
-0.000113013
-0.000194336
-0.000272735
-0.000275032
-0.000215645
-0.000172246
-0.00016629
-0.00015696
-0.000121933
-7.24385e-05
-3.44709e-05
-3.1322e-05
-5.66192e-05
-8.71879e-05
-0.000103486
-0.000109256
-0.000147717
-0.000182712
-0.000166044
-0.000107351
-7.34291e-05
-5.97495e-05
1.2753e-05
3.61012e-05
1.57602e-05
-9.0939e-06
-3.30952e-05
-5.64969e-05
-5.52387e-05
-5.05546e-05
-2.16773e-05
1.24937e-05
5.13245e-05
7.27414e-05
6.50482e-05
6.21129e-05
9.79053e-05
0.000117951
6.23925e-05
-2.34163e-05
-8.53466e-05
-0.000131153
-0.000202859
-0.000241074
-0.000217221
-0.000179505
-0.000165084
-0.000156272
-0.000124478
-8.14702e-05
-2.9741e-05
-2.51266e-05
-4.97171e-05
-8.31441e-05
-0.00010524
-0.000108741
-0.00012026
-0.000151417
-0.000144465
-9.30769e-05
-6.04934e-05
-4.94636e-05
1.48201e-06
3.96463e-05
3.66354e-05
8.68762e-06
-2.26853e-05
-5.19655e-05
-6.46234e-05
-5.68572e-05
-2.67362e-05
1.13672e-05
4.76544e-05
7.16789e-05
6.23177e-05
4.01776e-05
4.29848e-05
4.86772e-05
1.25701e-05
-2.95585e-05
-4.10974e-05
-6.00688e-05
-0.000111831
-0.000176418
-0.000199072
-0.00018753
-0.000178897
-0.000167552
-0.000129236
-5.35488e-05
-2.22547e-05
-2.09254e-05
-4.61286e-05
-8.1344e-05
-0.000117888
-0.000111733
-0.000104022
-0.000120316
-0.00012919
-9.28688e-05
-5.10837e-05
-3.20106e-05
1.80401e-07
3.38353e-05
4.25627e-05
1.61736e-05
-1.28517e-05
-4.36774e-05
-6.47287e-05
-5.47063e-05
-2.65012e-05
9.25071e-06
4.14754e-05
5.79855e-05
4.66932e-05
1.43543e-05
1.32847e-06
8.7112e-06
-4.09082e-06
-4.0227e-05
-5.39521e-05
-1.36748e-05
-9.12415e-06
-7.27633e-05
-0.00014044
-0.000174198
-0.000177255
-0.000162852
-0.000130488
-8.77731e-05
-5.80941e-05
-4.7569e-05
-4.91471e-05
-7.22087e-05
-0.000123869
-0.000114964
-9.00538e-05
-8.13566e-05
-9.48683e-05
-8.92077e-05
-5.11282e-05
-3.1396e-05
1.43473e-07
3.19339e-05
3.00304e-05
1.84521e-06
-2.69938e-05
-4.26522e-05
-5.6773e-05
-3.86939e-05
-6.0153e-06
1.5789e-05
2.70255e-05
3.06232e-05
2.01001e-05
-2.84083e-06
-2.06522e-05
-2.49598e-05
-2.95483e-05
-2.73124e-05
-3.01296e-05
-9.05561e-06
-7.91085e-06
-3.27212e-05
-7.47256e-05
-0.000110993
-0.000134791
-0.000141364
-0.00012862
-0.000101056
-8.42524e-05
-8.61153e-05
-9.41998e-05
-9.53601e-05
-8.0251e-05
-9.36527e-05
-7.58063e-05
-6.11093e-05
-6.59311e-05
-7.9807e-05
-8.66442e-05
-4.94977e-05
-8.58141e-06
2.67084e-05
3.3419e-05
-8.71658e-06
-5.16636e-05
-6.7371e-05
-6.19363e-05
-7.34819e-05
-2.19864e-05
1.86241e-05
3.58088e-05
3.81493e-05
2.09152e-05
-4.42779e-06
-1.8932e-05
-2.21039e-05
-3.87873e-05
-6.10483e-05
-6.22141e-05
-4.15977e-05
-2.33826e-05
-2.1109e-05
-5.07922e-05
-7.95125e-05
-0.000103942
-0.00011831
-0.000120173
-0.000116244
-0.000112606
-0.000116241
-0.000122098
-0.000127846
-0.000113915
-9.70639e-05
-7.34264e-05
-5.83552e-05
-6.36995e-05
-8.27346e-05
-7.90002e-05
-4.41006e-05
6.24893e-06
3.91054e-05
3.61323e-05
-1.10403e-05
-7.62603e-05
-0.000113722
-0.000108437
-0.000111038
-5.8928e-05
-5.83027e-06
2.91228e-05
3.25588e-05
1.22511e-05
-1.61593e-05
-2.6782e-05
-1.23361e-06
-2.38634e-06
-2.38489e-05
-4.46016e-05
-5.3874e-05
-4.99091e-05
-5.33928e-05
-4.7265e-05
-6.70088e-05
-9.49145e-05
-0.000112163
-0.00011542
-0.00011264
-0.000113865
-0.000120788
-0.000140371
-0.000159484
-0.000173426
-0.000134986
-9.35951e-05
-5.31545e-05
-4.24515e-05
-6.26951e-05
-7.26294e-05
-4.8983e-05
-1.89878e-06
3.74507e-05
5.19659e-05
1.11061e-05
-6.32904e-05
-0.00012343
-0.000132815
-0.000122148
-9.09722e-05
-5.13279e-05
-1.43212e-05
9.22315e-06
7.02291e-06
-1.19209e-05
-3.13893e-05
-3.84529e-05
-1.7e-05
-1.54705e-05
-2.17253e-05
-3.42271e-05
-4.52824e-05
-4.99344e-05
-5.01263e-05
-7.07204e-05
-9.6319e-05
-0.000108881
-0.000108343
-0.000103587
-9.26102e-05
-8.61943e-05
-9.04779e-05
-0.000104042
-0.000116799
-0.000109224
-8.34351e-05
-4.59475e-05
-3.31828e-05
-5.65943e-05
-7.89961e-05
-6.6553e-05
-3.22685e-05
2.29714e-06
2.56033e-05
1.78182e-05
-2.91466e-05
-8.47535e-05
-0.000119499
-0.000118775
-0.000103227
-7.63099e-05
-4.47351e-05
-1.8733e-05
-9.38382e-06
-1.23664e-05
4.1853e-06
-1.09967e-05
-3.73799e-06
-6.4846e-06
-2.57399e-05
-5.04e-05
-7.00408e-05
-8.17224e-05
-8.84057e-05
-9.5665e-05
-0.00010033
-9.33385e-05
-7.95101e-05
-7.72349e-05
-8.66457e-05
-9.12499e-05
-9.48789e-05
-9.55225e-05
-8.95709e-05
-7.2859e-05
-5.2493e-05
-2.68435e-05
-1.14033e-05
-2.17299e-05
-5.00838e-05
-6.59634e-05
-5.88981e-05
-3.95723e-05
-1.57702e-05
-7.29585e-06
-2.61606e-05
-6.6662e-05
-0.000104747
-9.48946e-05
-9.9215e-05
-9.21939e-05
-7.10947e-05
-4.92469e-05
-3.36628e-05
-2.525e-05
-3.10925e-05
-1.35563e-05
-7.69453e-06
-1.15175e-05
-3.28962e-05
-6.30849e-05
-8.55383e-05
-0.000103171
-0.00011807
-0.000133236
-0.000133445
-0.000114738
-8.89147e-05
-7.60257e-05
-7.99175e-05
-8.21511e-05
-7.70343e-05
-7.65236e-05
-7.42547e-05
-5.44404e-05
-1.81052e-05
1.13368e-05
2.15822e-05
1.02187e-06
-4.88912e-05
-9.12748e-05
-9.72614e-05
-8.45328e-05
-6.64302e-05
-4.2496e-05
-3.52762e-05
-4.91696e-05
-7.51816e-05
8.93853e-05
7.8317e-05
7.77247e-05
5.78719e-05
3.56345e-05
3.00384e-05
2.9884e-05
1.19001e-05
-2.13233e-05
-5.91211e-05
-9.55996e-05
-0.000125606
-0.000146132
-0.000151426
-0.000155929
-0.00017128
-0.000185483
-0.000169635
-0.000120517
-6.95173e-05
-3.62983e-05
-1.93123e-05
-1.46592e-05
-1.38231e-05
-2.52537e-05
-6.11983e-05
-0.00011547
-0.00017276
-0.000225198
-0.000222855
-0.000139953
-2.6887e-05
3.76072e-05
7.9052e-05
0.000124901
0.000150686
0.000143394
0.000130136
0.000125596
0.000114044
8.74111e-05
7.71194e-05
7.80678e-05
5.92004e-05
3.82325e-05
3.26287e-05
3.30976e-05
1.53232e-05
-1.81182e-05
-5.65088e-05
-9.38464e-05
-0.000124699
-0.000145602
-0.000151449
-0.000155924
-0.000171232
-0.000185897
-0.000170659
-0.000121817
-7.07552e-05
-3.74936e-05
-2.04337e-05
-1.56462e-05
-1.46439e-05
-2.55171e-05
-6.10346e-05
-0.000115008
-0.000172222
-0.000224937
-0.000223946
-0.000142189
-2.92672e-05
3.52834e-05
7.60676e-05
0.000121733
0.000147469
0.000139745
0.000125949
0.000121676
0.000111108
8.50938e-05
7.64631e-05
8.03331e-05
6.28239e-05
4.14769e-05
3.54658e-05
3.59124e-05
1.76754e-05
-1.657e-05
-5.5713e-05
-9.38038e-05
-0.000125166
-0.000146258
-0.000152218
-0.000156367
-0.000171704
-0.00018726
-0.000172859
-0.000123866
-7.22793e-05
-3.87724e-05
-2.15034e-05
-1.64938e-05
-1.57612e-05
-2.56281e-05
-6.0447e-05
-0.000114585
-0.000172001
-0.000225548
-0.000226365
-0.000145463
-3.16175e-05
3.32934e-05
7.31575e-05
0.000119023
0.00014552
0.000137473
0.000122201
0.000117039
0.000107254
8.19756e-05
7.60646e-05
8.4738e-05
6.86407e-05
4.62271e-05
3.83843e-05
3.75778e-05
1.76883e-05
-1.81845e-05
-5.80259e-05
-9.64372e-05
-0.000127421
-0.000148372
-0.00015391
-0.000157471
-0.000172963
-0.000189844
-0.000176531
-0.000126965
-7.43658e-05
-4.03109e-05
-2.25898e-05
-1.72499e-05
-1.65027e-05
-2.50237e-05
-5.94613e-05
-0.000114363
-0.000172459
-0.000227373
-0.000230343
-0.000149728
-3.34042e-05
3.30069e-05
7.11142e-05
0.000117483
0.000145448
0.000137443
0.000120076
0.00011266
0.000102693
7.73304e-05
7.51737e-05
9.0272e-05
7.75444e-05
5.30969e-05
4.18333e-05
3.78466e-05
1.46684e-05
-2.37913e-05
-6.39879e-05
-0.000101163
-0.000131308
-0.000151618
-0.000156297
-0.000159111
-0.000174793
-0.000193306
-0.000181242
-0.000130985
-7.73143e-05
-4.26696e-05
-2.42554e-05
-1.84242e-05
-1.75185e-05
-2.47912e-05
-5.86321e-05
-0.000114617
-0.000174041
-0.000230008
-0.000236751
-0.000156527
-3.59522e-05
3.32364e-05
7.00904e-05
0.000116971
0.000146608
0.000139413
0.000120342
0.000109702
9.79205e-05
7.15352e-05
7.30312e-05
9.58771e-05
9.03453e-05
6.3467e-05
4.71056e-05
3.77408e-05
8.80355e-06
-3.3654e-05
-7.37928e-05
-0.000108216
-0.000136428
-0.000155481
-0.00015899
-0.000161006
-0.000176607
-0.00019662
-0.000185726
-0.000134884
-8.04227e-05
-4.5624e-05
-2.68146e-05
-2.0556e-05
-1.94886e-05
-2.51593e-05
-5.79995e-05
-0.000115643
-0.000177464
-0.000236074
-0.000247854
-0.000170457
-4.45253e-05
3.03784e-05
6.85644e-05
0.000116632
0.000147345
0.000141771
0.000122633
0.000109173
9.41443e-05
6.60524e-05
6.88692e-05
9.87985e-05
0.000106769
7.90762e-05
5.70622e-05
4.04204e-05
2.04127e-06
-4.70909e-05
-8.70814e-05
-0.00011715
-0.000142301
-0.000159393
-0.000161461
-0.00016276
-0.000177712
-0.000198311
-0.000188749
-0.000138081
-8.28606e-05
-4.75663e-05
-2.90087e-05
-2.34875e-05
-2.28336e-05
-2.6556e-05
-5.77371e-05
-0.000117567
-0.000182763
-0.000244579
-0.000264359
-0.000195094
-6.67415e-05
1.50793e-05
5.86601e-05
0.0001123
0.000144503
0.000140083
0.000123651
0.000110418
9.26091e-05
6.29902e-05
6.39473e-05
0.000101059
0.00012347
9.86107e-05
7.38871e-05
5.10519e-05
-1.29577e-07
-6.17086e-05
-0.000102685
-0.000127054
-0.000148349
-0.000163089
-0.000163636
-0.000164349
-0.000177142
-0.000196802
-0.000188036
-0.000140432
-8.79135e-05
-5.20499e-05
-3.12597e-05
-2.66123e-05
-2.77354e-05
-2.92717e-05
-5.79009e-05
-0.00012051