/*--------------------------------*- C++ -*----------------------------------*\
| =========                 |                                                 |
| \\      /  F ield         | OpenFOAM: The Open Source CFD Toolbox           |
|  \\    /   O peration     | Version:  2306                                  |
|   \\  /    A nd           | Website:  www.openfoam.com                      |
|    \\/     M anipulation  |                                                 |
\*---------------------------------------------------------------------------*/
FoamFile
{
    version     2.0;
    format      ascii;
    arch        "LSB;label=32;scalar=64";
    class       volScalarField;
    location    "9.5";
    object      pPrime2Mean;
}
// * * * * * * * * * * * * * * * * * * * * * * * * * * * * * * * * * * * * * //

dimensions      [0 4 -4 0 0 0 0];

internalField   nonuniform List<scalar> 
60000
(
3.64384e-09
7.02022e-09
1.4061e-08
2.10066e-08
2.55647e-08
2.73091e-08
2.66249e-08
2.41108e-08
2.10604e-08
2.05119e-08
2.50551e-08
3.29144e-08
3.90842e-08
3.97929e-08
3.45359e-08
2.53271e-08
1.56921e-08
8.77103e-09
5.31493e-09
4.17415e-09
5.36876e-09
1.12182e-08
2.18624e-08
3.32698e-08
4.09655e-08
4.26849e-08
3.91452e-08
3.38201e-08
2.9508e-08
2.76923e-08
2.901e-08
3.02738e-08
2.84323e-08
2.42191e-08
1.886e-08
1.35823e-08
1.02029e-08
9.45424e-09
8.47162e-09
5.3341e-09
3.48233e-09
6.73303e-09
1.37899e-08
2.08585e-08
2.55263e-08
2.72972e-08
2.65648e-08
2.39808e-08
2.08703e-08
2.02855e-08
2.4866e-08
3.28286e-08
3.91054e-08
3.99027e-08
3.47096e-08
2.55246e-08
1.58648e-08
8.88252e-09
5.36127e-09
4.16345e-09
5.3093e-09
1.11303e-08
2.17742e-08
3.31768e-08
4.08484e-08
4.25537e-08
3.90518e-08
3.3814e-08
2.95953e-08
2.78181e-08
2.91799e-08
3.05429e-08
2.87979e-08
2.46218e-08
1.92289e-08
1.3852e-08
1.03435e-08
9.51415e-09
8.52223e-09
5.32653e-09
3.26359e-09
6.43786e-09
1.36109e-08
2.09043e-08
2.57643e-08
2.76119e-08
2.68303e-08
2.41137e-08
2.08311e-08
2.00673e-08
2.46002e-08
3.26934e-08
3.91683e-08
4.01466e-08
3.50694e-08
2.58953e-08
1.61411e-08
9.01321e-09
5.37052e-09
4.09766e-09
5.20775e-09
1.10535e-08
2.17702e-08
3.32236e-08
4.08875e-08
4.25396e-08
3.89641e-08
3.36957e-08
2.95251e-08
2.78088e-08
2.93093e-08
3.0873e-08
2.92878e-08
2.51688e-08
1.96998e-08
1.4138e-08
1.04296e-08
9.51643e-09
8.54419e-09
5.27998e-09
2.98552e-09
6.13951e-09
1.35478e-08
2.11873e-08
2.63383e-08
2.83384e-08
2.75248e-08
2.46249e-08
2.10633e-08
1.99607e-08
2.43078e-08
3.25176e-08
3.92722e-08
4.05282e-08
3.56287e-08
2.64584e-08
1.65378e-08
9.17108e-09
5.33687e-09
3.96157e-09
5.06956e-09
1.10303e-08
2.19213e-08
3.34842e-08
4.11373e-08
4.2663e-08
3.88784e-08
3.34666e-08
2.93105e-08
2.76955e-08
2.94291e-08
3.12806e-08
2.99166e-08
2.58839e-08
2.03021e-08
1.44529e-08
1.04594e-08
9.46289e-09
8.54268e-09
5.19489e-09
2.66005e-09
5.78551e-09
1.3486e-08
2.15685e-08
2.71185e-08
2.93795e-08
2.86283e-08
2.55918e-08
2.17453e-08
2.01874e-08
2.41224e-08
3.2278e-08
3.92843e-08
4.08801e-08
3.62538e-08
2.71541e-08
1.70559e-08
9.38026e-09
5.28441e-09
3.76503e-09
4.87653e-09
1.1015e-08
2.21395e-08
3.38428e-08
4.15457e-08
4.30182e-08
3.90219e-08
3.34533e-08
2.93516e-08
2.78441e-08
2.9738e-08
3.18196e-08
3.0668e-08
2.67778e-08
2.11153e-08
1.49283e-08
1.05528e-08
9.44458e-09
8.56975e-09
5.10874e-09
2.30372e-09
5.35699e-09
1.33638e-08
2.19571e-08
2.80086e-08
3.06224e-08
3.00054e-08
2.6952e-08
2.29423e-08
2.09847e-08
2.43551e-08
3.21529e-08
3.91918e-08
4.10455e-08
3.67416e-08
2.78321e-08
1.76441e-08
9.65597e-09
5.22448e-09
3.47384e-09
4.55599e-09
1.09127e-08
2.22695e-08
3.39478e-08
4.15786e-08
4.31499e-08
3.92769e-08
3.3914e-08
3.02133e-08
2.89048e-08
3.07562e-08
3.28036e-08
3.16877e-08
2.79002e-08
2.22077e-08
1.56999e-08
1.08964e-08
9.65355e-09
8.78822e-09
5.10362e-09
2.06685e-09
4.62335e-09
1.2826e-08
2.2082e-08
2.90079e-08
3.23922e-08
3.20391e-08
2.87655e-08
2.4588e-08
2.24158e-08
2.53088e-08
3.25401e-08
3.92704e-08
4.11108e-08
3.7009e-08
2.83459e-08
1.81994e-08
9.97138e-09
5.17941e-09
3.08564e-09
4.01107e-09
1.06338e-08
2.24696e-08
3.42102e-08
4.13936e-08
4.26154e-08
3.87713e-08
3.39624e-08
3.13454e-08
3.09341e-08
3.31121e-08
3.50252e-08
3.35994e-08
2.9544e-08
2.36021e-08
1.67674e-08
1.15631e-08
1.02232e-08
9.55641e-09
5.63914e-09
2.21415e-09
3.65316e-09
1.1694e-08
2.16077e-08
2.95797e-08
3.41611e-08
3.46144e-08
3.14205e-08
2.69146e-08
2.43007e-08
2.69112e-08
3.38471e-08
4.0091e-08
4.1512e-08
3.72841e-08
2.87475e-08
1.86762e-08
1.02827e-08
5.15868e-09
2.6574e-09
3.33371e-09
1.03767e-08
2.31242e-08
3.52122e-08
4.16375e-08
4.15645e-08
3.66753e-08
3.17533e-08
3.03669e-08
3.17386e-08
3.52976e-08
3.80881e-08
3.69569e-08
3.25429e-08
2.57539e-08
1.7991e-08
1.21737e-08
1.08261e-08
1.0759e-08
6.88354e-09
2.8671e-09
2.69192e-09
1.01586e-08
2.07252e-08
2.99192e-08
3.58826e-08
3.74655e-08
3.46147e-08
2.99602e-08
2.68256e-08
2.85317e-08
3.51784e-08
4.1598e-08
4.28489e-08
3.82276e-08
2.94861e-08
1.93279e-08
1.06528e-08
5.12015e-09
2.26504e-09
2.83984e-09
1.06265e-08
2.48385e-08
3.76232e-08
4.29835e-08
4.06303e-08
3.32844e-08
2.69811e-08
2.6365e-08
3.02888e-08
3.65128e-08
4.06718e-08
3.99409e-08
3.55045e-08
2.82514e-08
1.95864e-08
1.29892e-08
1.14866e-08
1.19944e-08
8.57318e-09
4.08254e-09
1.90915e-09
8.27283e-09
1.93372e-08
2.99638e-08
3.7585e-08
4.06108e-08
3.83092e-08
3.34582e-08
2.99068e-08
3.04363e-08
3.56454e-08
4.153e-08
4.33155e-08
3.92726e-08
3.08886e-08
2.07439e-08
1.15642e-08
5.24399e-09
1.91069e-09
2.69384e-09
1.1888e-08
2.84241e-08
4.26383e-08
4.7296e-08
4.22743e-08
3.13091e-08
2.20983e-08
2.10111e-08
2.72735e-08
3.6814e-08
4.30732e-08
4.29223e-08
3.8502e-08
3.10298e-08
2.15678e-08
1.40758e-08
1.23727e-08
1.34125e-08
1.06149e-08
5.72742e-09
1.55707e-09
6.06348e-09
1.68559e-08
2.87884e-08
3.84892e-08
4.35745e-08
4.2415e-08
3.73354e-08
3.31894e-08
3.26156e-08
3.59098e-08
3.99522e-08
4.12925e-08
3.81845e-08
3.12892e-08
2.23848e-08
1.32905e-08
5.99828e-09
1.74165e-09
2.78974e-09
1.40577e-08
3.40999e-08
5.11545e-08
5.62892e-08
4.92136e-08
3.44447e-08
2.08435e-08
1.70887e-08
2.3683e-08
3.55363e-08
4.41182e-08
4.52345e-08
4.16952e-08
3.49313e-08
2.50621e-08
1.62599e-08
1.35076e-08
1.45075e-08
1.24362e-08
6.84558e-09
1.63559e-09
4.01091e-09
1.34316e-08
2.55113e-08
3.69537e-08
4.47016e-08
4.57334e-08
4.09752e-08
3.62612e-08
3.5161e-08
3.70439e-08
3.84375e-08
3.76865e-08
3.41817e-08
2.86942e-08
2.20213e-08
1.45759e-08
7.39347e-09
2.39853e-09
3.22366e-09
1.58294e-08
3.90519e-08
5.96525e-08
6.67287e-08
5.92257e-08
4.17606e-08
2.35463e-08
1.51079e-08
1.92577e-08
3.10471e-08
4.17918e-08
4.54202e-08
4.37794e-08
3.8659e-08
2.95902e-08
2.00537e-08
1.54694e-08
1.5216e-08
1.32055e-08
7.42292e-09
1.84123e-09
2.46048e-09
9.86062e-09
2.06236e-08
3.24112e-08
4.24269e-08
4.64358e-08
4.29396e-08
3.77173e-08
3.65773e-08
3.86356e-08
3.86086e-08
3.4997e-08
2.95138e-08
2.39903e-08
1.91321e-08
1.40475e-08
8.66492e-09
4.51507e-09
5.18606e-09
1.66723e-08
3.95424e-08
6.19287e-08
7.12689e-08
6.48874e-08
4.72087e-08
2.68919e-08
1.40464e-08
1.40043e-08
2.33883e-08
3.49608e-08
4.19093e-08
4.32453e-08
4.01804e-08
3.32541e-08
2.44676e-08
1.85479e-08
1.63419e-08
1.34815e-08
7.75249e-09
2.24213e-09
1.51116e-09
6.46539e-09
1.49859e-08
2.57762e-08
3.67991e-08
4.34437e-08
4.19668e-08
3.68723e-08
3.5681e-08
3.87322e-08
3.96348e-08
3.49456e-08
2.76785e-08
2.13257e-08
1.67865e-08
1.2975e-08
9.28846e-09
6.7958e-09
7.92927e-09
1.72377e-08
3.68335e-08
5.87729e-08
6.99058e-08
6.56435e-08
4.9765e-08
2.97926e-08
1.44371e-08
9.99175e-09
1.58051e-08
2.64886e-08
3.5886e-08
3.9918e-08
3.88346e-08
3.42213e-08
2.7249e-08
2.12025e-08
1.74667e-08
1.36364e-08
8.70497e-09
3.71952e-09
1.71494e-09
3.79094e-09
9.63255e-09
1.87958e-08
2.95502e-08
3.75406e-08
3.81316e-08
3.38887e-08
3.25292e-08
3.62338e-08
3.92744e-08
3.62533e-08
2.93495e-08
2.26773e-08
1.76519e-08
1.35946e-08
9.6577e-09
7.36953e-09
8.67659e-09
1.60429e-08
3.16908e-08
5.15736e-08
6.441e-08
6.30942e-08
4.99819e-08
3.16451e-08
1.55692e-08
8.32646e-09
1.12098e-08
1.99687e-08
2.94801e-08
3.57031e-08
3.65832e-08
3.37044e-08
2.83453e-08
2.2671e-08
1.83767e-08
1.41785e-08
1.02555e-08
6.02397e-09
3.51215e-09
3.15948e-09
6.07416e-09
1.29331e-08
2.21905e-08
2.98506e-08
3.17959e-08
2.90128e-08
2.80139e-08
3.18352e-08
3.6374e-08
3.59999e-08
3.10956e-08
2.51918e-08
1.99611e-08
1.52787e-08
1.04182e-08
7.43942e-09
9.01413e-09
1.53842e-08
2.70784e-08
4.28432e-08
5.51778e-08
5.64288e-08
4.69521e-08
3.18536e-08
1.68408e-08
8.0818e-09
8.71699e-09
1.54087e-08
2.3908e-08
3.11052e-08
3.45485e-08
3.39056e-08
2.96878e-08
2.40634e-08
1.95691e-08
1.53076e-08
1.18599e-08
8.22337e-09
5.9115e-09
4.66196e-09
5.62124e-09
9.74599e-09
1.61262e-08
2.17176e-08
2.38388e-08
2.26034e-08
2.25996e-08
2.67209e-08
3.24572e-08
3.46817e-08
3.1778e-08
2.65906e-08
2.14494e-08
1.67222e-08
1.1676e-08
8.58307e-09
1.07223e-08
1.68826e-08
2.518e-08
3.57294e-08
4.49703e-08
4.71162e-08
4.07644e-08
2.98765e-08
1.78768e-08
9.23464e-09
7.66528e-09
1.25721e-08
2.02881e-08
2.74884e-08
3.19996e-08
3.30325e-08
3.02817e-08
2.53921e-08
2.09193e-08
1.66307e-08
1.112e-08
9.25777e-09
8.514e-09
7.7908e-09
7.67616e-09
9.11765e-09
1.19338e-08
1.44232e-08
1.54126e-08
1.5499e-08
1.71318e-08
2.18879e-08
2.86853e-08
3.33114e-08
3.26067e-08
2.79274e-08
2.24071e-08
1.7298e-08
1.22449e-08
9.35617e-09
1.18032e-08
1.7939e-08
2.47884e-08
3.22097e-08
3.88967e-08
4.04253e-08
3.56971e-08
2.68657e-08
1.72472e-08
1.0079e-08
8.41183e-09
1.27323e-08
2.02692e-08
2.76615e-08
3.24083e-08
3.28946e-08
2.92153e-08
2.35667e-08
1.86346e-08
1.46418e-08
9.42723e-09
9.25648e-09
1.02378e-08
1.08993e-08
1.14595e-08
1.19901e-08
1.20286e-08
1.12529e-08
9.95425e-09
9.45011e-09
1.14124e-08
1.65544e-08
2.38815e-08
3.05067e-08
3.30442e-08
3.10383e-08
2.66653e-08
2.16096e-08
1.6388e-08
1.23625e-08
1.25719e-08
1.64107e-08
2.12167e-08
2.71137e-08
3.34624e-08
3.60426e-08
3.20118e-08
2.42074e-08
1.58409e-08
9.86386e-09
8.69794e-09
1.28972e-08
2.0551e-08
2.81625e-08
3.28147e-08
3.2967e-08
2.88541e-08
2.21842e-08
1.58428e-08
1.16461e-08
8.3239e-09
8.88688e-09
1.07224e-08
1.23754e-08
1.35665e-08
1.4267e-08
1.39572e-08
1.24946e-08
1.05177e-08
9.05446e-09
9.23669e-09
1.16346e-08
1.63093e-08
2.20789e-08
2.64494e-08
2.76925e-08
2.67383e-08
2.5477e-08
2.33875e-08
1.97784e-08
1.7054e-08
1.70499e-08
1.87562e-08
2.28464e-08
2.89496e-08
3.27365e-08
3.03395e-08
2.34611e-08
1.56858e-08
1.01095e-08
8.58372e-09
1.18931e-08
1.91051e-08
2.68106e-08
3.16932e-08
3.21019e-08
2.81787e-08
2.16985e-08
1.49477e-08
1.01916e-08
8.13198e-09
7.14112e-09
9.31628e-09
1.27021e-08
1.59898e-08
1.79988e-08
1.75915e-08
1.51994e-08
1.2431e-08
1.03879e-08
9.81581e-09
1.07771e-08
1.30596e-08
1.6557e-08
2.06585e-08
2.38487e-08
2.53255e-08
2.59886e-08
2.59082e-08
2.38114e-08
2.04081e-08
1.84319e-08
1.89899e-08
2.26353e-08
2.88311e-08
3.32996e-08
3.11912e-08
2.33315e-08
1.42117e-08
7.70703e-09
6.49278e-09
1.12609e-08
2.05136e-08
3.02408e-08
3.66559e-08
3.76334e-08
3.40466e-08
2.79145e-08
2.05982e-08
1.31747e-08
1.43889e-08
9.81574e-09
8.57022e-09
9.54995e-09
1.1709e-08
1.4062e-08
1.52609e-08
1.46595e-08
1.29697e-08
1.1346e-08
1.07024e-08
1.13313e-08
1.29205e-08
1.49186e-08
1.73195e-08
2.01033e-08
2.25726e-08
2.47144e-08
2.62104e-08
2.57523e-08
2.3316e-08
2.09984e-08
2.05022e-08
2.26191e-08
2.73466e-08
3.17947e-08
3.14559e-08
2.49672e-08
1.55255e-08
7.3848e-09
4.82733e-09
9.65331e-09
2.03061e-08
3.27146e-08
4.15819e-08
4.39963e-08
4.07144e-08
3.53116e-08
2.92799e-08
2.1749e-08
1.74702e-08
1.31069e-08
1.06422e-08
9.84428e-09
9.82171e-09
1.05824e-08
1.17058e-08
1.2394e-08
1.24374e-08
1.23706e-08
1.25792e-08
1.33827e-08
1.4793e-08
1.64631e-08
1.82035e-08
1.99041e-08
2.15672e-08
2.28983e-08
2.38084e-08
2.38555e-08
2.25388e-08
2.06225e-08
1.96334e-08
2.05598e-08
2.34754e-08
2.66514e-08
2.66582e-08
2.18721e-08
1.46016e-08
8.30774e-09
5.65758e-09
8.27041e-09
1.56405e-08
2.49936e-08
3.2463e-08
3.55819e-08
3.44521e-08
3.16694e-08
2.79385e-08
2.29722e-08
1.87534e-08
1.29995e-08
8.92328e-09
7.33313e-09
7.96083e-09
1.02323e-08
1.33203e-08
1.60769e-08
1.7553e-08
1.77499e-08
1.73898e-08
1.67744e-08
1.59941e-08
1.56903e-08
1.66489e-08
1.8672e-08
2.11568e-08
2.34218e-08
2.48203e-08
2.50159e-08
2.34945e-08
2.08862e-08
1.85511e-08
1.73136e-08
1.7825e-08
2.00507e-08
2.1822e-08
2.04306e-08
1.61541e-08
1.1445e-08
8.6882e-09
9.46144e-09
1.39189e-08
2.04596e-08
2.64186e-08
2.99094e-08
3.0732e-08
2.99207e-08
2.80477e-08
2.4341e-08
1.99737e-08
1.41445e-08
9.25191e-09
6.69269e-09
6.94706e-09
9.49951e-09
1.33336e-08
1.70885e-08
1.93687e-08
2.01687e-08
2.01049e-08
1.97011e-08
1.95751e-08
1.96347e-08
1.97404e-08
2.06552e-08
2.27379e-08
2.53184e-08
2.7394e-08
2.77863e-08
2.54081e-08
2.08314e-08
1.58942e-08
1.22203e-08
1.12182e-08
1.34556e-08
1.72913e-08
1.98866e-08
1.95888e-08
1.71452e-08
1.47835e-08
1.41794e-08
1.59653e-08
1.96564e-08
2.39136e-08
2.72286e-08
2.90643e-08
2.93373e-08
2.79268e-08
2.47808e-08
3.3688e-09
2.95186e-15
3.66882e-09
1.29544e-08
2.36065e-08
3.15098e-08
3.44561e-08
3.25043e-08
2.79758e-08
2.54187e-08
2.81649e-08
3.40925e-08
3.80014e-08
3.70035e-08
3.16499e-08
2.41557e-08
1.70316e-08
1.18922e-08
8.75935e-09
6.73594e-09
6.37239e-09
1.10146e-08
2.29395e-08
3.92658e-08
5.376e-08
6.11092e-08
5.98668e-08
5.23085e-08
4.06731e-08
2.81682e-08
2.15725e-08
2.19732e-08
2.35009e-08
2.22501e-08
1.7915e-08
1.34775e-08
1.19279e-08
1.33823e-08
1.43345e-08
1.03149e-08
3.51718e-09
3.26409e-12
3.4905e-09
1.26549e-08
2.32901e-08
3.12413e-08
3.42375e-08
3.23025e-08
2.77629e-08
2.52017e-08
2.7997e-08
3.40231e-08
3.80261e-08
3.70856e-08
3.17599e-08
2.42761e-08
1.71477e-08
1.19859e-08
8.81998e-09
6.75223e-09
6.30557e-09
1.07921e-08
2.25173e-08
3.86872e-08
5.31606e-08
6.06555e-08
5.96834e-08
5.2435e-08
4.10363e-08
2.8552e-08
2.18128e-08
2.21508e-08
2.37612e-08
2.26309e-08
1.83457e-08
1.3867e-08
1.22135e-08
1.35621e-08
1.44933e-08
1.05027e-08
3.72924e-09
1.94883e-11
3.39274e-09
1.25828e-08
2.33535e-08
3.14456e-08
3.44863e-08
3.24829e-08
2.77941e-08
2.50877e-08
2.78627e-08
3.39891e-08
3.81097e-08
3.72399e-08
3.19452e-08
2.44661e-08
1.73202e-08
1.21233e-08
8.90669e-09
6.76917e-09
6.2194e-09
1.05708e-08
2.21785e-08
3.83007e-08
5.28261e-08
6.04723e-08
5.97178e-08
5.27126e-08
4.1456e-08
2.88679e-08
2.18832e-08
2.21575e-08
2.39399e-08
2.30424e-08
1.88518e-08
1.43036e-08
1.25191e-08
1.37868e-08
1.47712e-08
1.08352e-08
4.01438e-09
7.29497e-11
3.46305e-09
1.28868e-08
2.39728e-08
3.2289e-08
3.53617e-08
3.32092e-08
2.82269e-08
2.51887e-08
2.77896e-08
3.39676e-08
3.82204e-08
3.7437e-08
3.21769e-08
2.4698e-08
1.75226e-08
1.22811e-08
9.00536e-09
6.78337e-09
6.1356e-09
1.04386e-08
2.20982e-08
3.83385e-08
5.29705e-08
6.06797e-08
5.99766e-08
5.30363e-08
4.1806e-08
2.9031e-08
2.1753e-08
2.19608e-08
2.3955e-08
2.33856e-08
1.93553e-08
1.47545e-08
1.28577e-08
1.41095e-08
1.52407e-08
1.13511e-08
4.46163e-09
2.19502e-10
3.73482e-09
1.35939e-08
2.51614e-08
3.38011e-08
3.69256e-08
3.46137e-08
2.92849e-08
2.5733e-08
2.78981e-08
3.39387e-08
3.82591e-08
3.75597e-08
3.23416e-08
2.48778e-08
1.76989e-08
1.2431e-08
9.09466e-09
6.77786e-09
6.04501e-09
1.03873e-08
2.22489e-08
3.87456e-08
5.35373e-08
6.12683e-08
6.05383e-08
5.35993e-08
4.2389e-08
2.93994e-08
2.17123e-08
2.17069e-08
2.3773e-08
2.34893e-08
1.96727e-08
1.51232e-08
1.3253e-08
1.46417e-08
1.60323e-08
1.21748e-08
5.25524e-09
5.45276e-10
4.18527e-09
1.45849e-08
2.67832e-08
3.58301e-08
3.91016e-08
3.67006e-08
3.11191e-08
2.70548e-08
2.85561e-08
3.41125e-08
3.82647e-08
3.75483e-08
3.23389e-08
2.49038e-08
1.77741e-08
1.25412e-08
9.17595e-09
6.73965e-09
5.8706e-09
1.02179e-08
2.22524e-08
3.89559e-08
5.39234e-08
6.1883e-08
6.15116e-08
5.49777e-08
4.41061e-08
3.09532e-08
2.25355e-08
2.19194e-08
2.36653e-08
2.33374e-08
1.96295e-08
1.52675e-08
1.37165e-08
1.55371e-08
1.7374e-08
1.35402e-08
6.78795e-09
1.20197e-09
4.7405e-09
1.56984e-08
2.86502e-08
3.82012e-08
4.16351e-08
3.92147e-08
3.35112e-08
2.9136e-08
3.0051e-08
3.49169e-08
3.85904e-08
3.7599e-08
3.2228e-08
2.47565e-08
1.77032e-08
1.2571e-08
9.2293e-09
6.64158e-09
5.44946e-09
9.56417e-09
2.16659e-08
3.8594e-08
5.37451e-08
6.1979e-08
6.22496e-08
5.67668e-08
4.705e-08
3.4309e-08
2.51321e-08
2.35281e-08
2.44924e-08
2.35148e-08
1.93887e-08
1.51309e-08
1.42436e-08
1.69536e-08
1.95639e-08
1.58671e-08
9.24884e-09
2.28902e-09
5.11941e-09
1.63754e-08
3.02966e-08
4.07308e-08
4.44741e-08
4.20296e-08
3.62508e-08
3.14222e-08
3.16037e-08
3.59081e-08
3.92888e-08
3.80663e-08
3.23931e-08
2.46889e-08
1.75672e-08
1.24889e-08
9.20008e-09
6.47004e-09
4.75665e-09
8.31678e-09
2.04189e-08
3.78324e-08
5.34143e-08
6.18279e-08
6.22869e-08
5.74884e-08
4.91491e-08
3.7783e-08
2.88703e-08
2.66736e-08
2.68716e-08
2.49844e-08
1.98308e-08
1.51326e-08
1.48797e-08
1.87042e-08
2.23685e-08
1.90636e-08
1.22656e-08
3.83197e-09
5.36849e-09
1.64388e-08
3.12642e-08
4.30914e-08
4.75628e-08
4.50286e-08
3.91877e-08
3.40584e-08
3.31459e-08
3.62404e-08
3.91725e-08
3.81467e-08
3.27125e-08
2.50243e-08
1.7738e-08
1.246e-08
9.08145e-09
6.24712e-09
4.09071e-09
6.93735e-09
1.87582e-08
3.6299e-08
5.18371e-08
5.9814e-08
5.95832e-08
5.4588e-08
4.74111e-08
3.85629e-08
3.1884e-08
3.01431e-08
2.97411e-08
2.72339e-08
2.13859e-08
1.60449e-08
1.59936e-08
2.04523e-08
2.49118e-08
2.23521e-08
1.54506e-08
5.86505e-09
5.73824e-09
1.61488e-08
3.16852e-08
4.52937e-08
5.11049e-08
4.83666e-08
4.19976e-08
3.66636e-08
3.51226e-08
3.67515e-08
3.84457e-08
3.71832e-08
3.23242e-08
2.53592e-08
1.83205e-08
1.27472e-08
8.99741e-09
6.02376e-09
3.7488e-09
6.22797e-09
1.77542e-08
3.50767e-08
4.97801e-08
5.639e-08
5.45327e-08
4.82522e-08
4.18088e-08
3.62088e-08
3.35124e-08
3.39129e-08
3.35357e-08
3.04027e-08
2.39592e-08
1.78939e-08
1.77937e-08
2.23751e-08
2.71297e-08
2.53824e-08
1.84045e-08
8.14275e-09
6.03531e-09
1.49022e-08
3.06547e-08
4.64889e-08
5.48616e-08
5.2329e-08
4.4773e-08
3.87871e-08
3.69616e-08
3.76305e-08
3.76989e-08
3.52967e-08
3.05929e-08
2.4727e-08
1.86888e-08
1.32518e-08
9.13512e-09
5.93305e-09
3.78255e-09
6.53411e-09
1.83678e-08
3.563e-08
4.91592e-08
5.36862e-08
4.96223e-08
4.15285e-08
3.49406e-08
3.2036e-08
3.37267e-08
3.718e-08
3.80805e-08
3.54922e-08
2.9034e-08
2.19021e-08
2.06057e-08
2.41053e-08
2.82644e-08
2.73823e-08
2.01614e-08
9.84473e-09
5.71169e-09
1.1939e-08
2.65902e-08
4.42244e-08
5.63254e-08
5.60676e-08
4.72167e-08
3.9902e-08
3.77814e-08
3.84247e-08
3.76123e-08
3.3589e-08
2.82083e-08
2.30618e-08
1.8264e-08
1.35664e-08
9.49306e-09
6.2745e-09
4.51559e-09
8.04477e-09
2.07249e-08
3.85736e-08
5.13828e-08
5.40394e-08
4.81149e-08
3.8216e-08
3.003e-08
2.72955e-08
3.14808e-08
3.75921e-08
4.05525e-08
3.96714e-08
3.47154e-08
2.78545e-08
2.54546e-08
2.71881e-08
2.93362e-08
2.80854e-08
2.04309e-08
1.05154e-08
4.82854e-09
8.02469e-09
2.02236e-08
3.77787e-08
5.28412e-08
5.61633e-08
4.82761e-08
3.98504e-08
3.73761e-08
3.91051e-08
3.87673e-08
3.36071e-08
2.65755e-08
2.11303e-08
1.73036e-08
1.3663e-08
1.01055e-08
7.23827e-09
6.15964e-09
1.02502e-08
2.30669e-08
4.10677e-08
5.38259e-08
5.54233e-08
4.84675e-08
3.77019e-08
2.77838e-08
2.30251e-08
2.67186e-08
3.38565e-08
3.89999e-08
4.05949e-08
3.83947e-08
3.31705e-08
3.0463e-08
3.08991e-08
3.07746e-08
2.79076e-08
1.94906e-08
1.02208e-08
3.67206e-09
4.11715e-09
1.30927e-08
2.89133e-08
4.50787e-08
5.19342e-08
4.65821e-08
3.86623e-08
3.63391e-08
3.91313e-08
4.04801e-08
3.54612e-08
2.71581e-08
2.06717e-08
1.69878e-08
1.4111e-08
1.11023e-08
8.62548e-09
7.9917e-09
1.15059e-08
2.23638e-08
3.8714e-08
5.1502e-08
5.35795e-08
4.69927e-08
3.66423e-08
2.60643e-08
1.97321e-08
2.13504e-08
2.74103e-08
3.34037e-08
3.72542e-08
3.8267e-08
3.57181e-08
3.31863e-08
3.26504e-08
3.11823e-08
2.69005e-08
1.83954e-08
9.99379e-09
3.03511e-09
1.21968e-09
6.80297e-09
1.96662e-08
3.50592e-08
4.45125e-08
4.25715e-08
3.66316e-08
3.49562e-08
3.80945e-08
4.09723e-08
3.80525e-08
3.03651e-08
2.33423e-08
1.85444e-08
1.46039e-08
1.07009e-08
8.14047e-09
8.24461e-09
1.16296e-08
2.03521e-08
3.45286e-08
4.73644e-08
5.12328e-08
4.56657e-08
3.54404e-08
2.45354e-08
1.73458e-08
1.71774e-08
2.19281e-08
2.76827e-08
3.25937e-08
3.55785e-08
3.52185e-08
3.31364e-08
3.18266e-08
2.98834e-08
2.54086e-08
1.67177e-08
9.77102e-09
3.50084e-09
2.14527e-10
2.3866e-09
1.11294e-08
2.38276e-08
3.40416e-08
3.57725e-08
3.28284e-08
3.23856e-08
3.59702e-08
3.99985e-08
3.95061e-08
3.33239e-08
2.60516e-08
2.00571e-08
1.47405e-08
9.81274e-09
7.11397e-09
8.46714e-09
1.29123e-08
2.04985e-08
3.21355e-08
4.41842e-08
4.94181e-08
4.49763e-08
3.48138e-08
2.35121e-08
1.5554e-08
1.43672e-08
1.85132e-08
2.41288e-08
2.96908e-08
3.42094e-08
3.53868e-08
3.31067e-08
3.00911e-08
2.73245e-08
2.2977e-08
1.57672e-08
1.00122e-08
4.83064e-09
1.63667e-09
1.88863e-09
6.02072e-09
1.30619e-08
2.01729e-08
2.36635e-08
2.43505e-08
2.67086e-08
3.21903e-08
3.80386e-08
3.99556e-08
3.58223e-08
2.85981e-08
2.16164e-08
1.56621e-08
1.03492e-08
7.32928e-09
9.03368e-09
1.43939e-08
2.15149e-08
3.05076e-08
4.01904e-08
4.51028e-08
4.14182e-08
3.22182e-08
2.22556e-08
1.47039e-08
1.26995e-08
1.62799e-08
2.20233e-08
2.78538e-08
3.28108e-08
3.48852e-08
3.28953e-08
2.8939e-08
2.54392e-08
2.13031e-08
1.46905e-08
1.10382e-08
7.778e-09
5.5354e-09
5.25021e-09
6.57758e-09
8.66182e-09
1.05653e-08
1.18675e-08
1.40148e-08
1.90582e-08
2.7038e-08
3.51818e-08
3.95497e-08
3.80421e-08
3.15449e-08
2.35626e-08
1.68454e-08
1.138e-08
8.13093e-09
9.59565e-09
1.50674e-08
2.20013e-08
2.98793e-08
3.79745e-08
4.20927e-08
3.86327e-08
2.98644e-08
2.06169e-08
1.38544e-08
1.17604e-08
1.48729e-08
2.07857e-08
2.68366e-08
3.16509e-08
3.33564e-08
3.07577e-08
2.59343e-08
2.17499e-08
1.83319e-08
1.33041e-08
1.21247e-08
1.10901e-08
1.0478e-08
1.09213e-08
1.14589e-08
1.04853e-08
8.28887e-09
6.46508e-09
6.71967e-09
1.05584e-08
1.80255e-08
2.73082e-08
3.46492e-08
3.69515e-08
3.3691e-08
2.69658e-08
2.0125e-08
1.44031e-08
1.04085e-08
1.0265e-08
1.42969e-08
2.03755e-08
2.76157e-08
3.53426e-08
3.96339e-08
3.6347e-08
2.78859e-08
1.90988e-08
1.31753e-08
1.13407e-08
1.38994e-08
1.9565e-08
2.58371e-08
3.03859e-08
3.15535e-08
2.86501e-08
2.30222e-08
1.78346e-08
1.49292e-08
1.13137e-08
1.192e-08
1.2907e-08
1.33808e-08
1.3421e-08
1.30828e-08
1.18678e-08
9.6356e-09
7.29958e-09
6.00787e-09
6.95554e-09
1.08402e-08
1.71868e-08
2.38947e-08
2.85409e-08
2.95509e-08
2.74462e-08
2.42356e-08
2.06181e-08
1.62338e-08
1.29973e-08
1.31532e-08
1.67629e-08
2.29523e-08
3.06252e-08
3.58517e-08
3.44234e-08
2.71905e-08
1.90365e-08
1.37149e-08
1.22515e-08
1.44605e-08
1.93694e-08
2.48159e-08
2.83943e-08
2.88425e-08
2.60727e-08
2.08672e-08
1.54122e-08
1.22201e-08
9.86971e-09
1.00915e-08
1.18536e-08
1.39575e-08
1.58683e-08
1.67237e-08
1.52741e-08
1.21039e-08
8.91672e-09
6.73396e-09
6.16821e-09
7.74235e-09
1.13052e-08
1.61584e-08
2.10245e-08
2.46863e-08
2.66231e-08
2.71136e-08
2.60422e-08
2.26886e-08
1.8289e-08
1.62973e-08
1.83053e-08
2.31955e-08
2.92831e-08
3.3287e-08
3.14787e-08
2.43829e-08
1.64121e-08
1.11227e-08
1.0424e-08
1.42217e-08
2.07576e-08
2.72193e-08
3.0848e-08
3.1051e-08
2.86131e-08
2.3983e-08
1.76921e-08
1.24171e-08
1.3885e-08
1.19202e-08
1.15239e-08
1.22135e-08
1.3422e-08
1.43122e-08
1.38647e-08
1.19747e-08
9.78813e-09
8.27918e-09
7.84556e-09
8.54687e-09
1.01314e-08
1.22228e-08
1.48218e-08
1.78794e-08
2.12396e-08
2.43362e-08
2.64623e-08
2.65871e-08
2.48136e-08
2.33602e-08
2.40628e-08
2.65879e-08
2.9982e-08
3.19371e-08
2.96012e-08
2.31361e-08
1.51507e-08
9.21634e-09
7.94805e-09
1.19732e-08
1.95145e-08
2.74802e-08
3.26382e-08
3.33085e-08
3.10255e-08
2.75203e-08
2.27995e-08
1.77252e-08
1.64369e-08
1.3664e-08
1.23838e-08
1.18521e-08
1.18066e-08
1.20479e-08
1.20039e-08
1.13342e-08
1.02689e-08
9.71428e-09
1.03318e-08
1.19617e-08
1.39043e-08
1.53743e-08
1.6074e-08
1.65138e-08
1.7386e-08
1.87714e-08
2.02321e-08
2.10281e-08
2.06965e-08
2.0084e-08
2.06049e-08
2.28051e-08
2.59437e-08
2.82751e-08
2.75446e-08
2.27339e-08
1.59019e-08
1.03705e-08
8.51219e-09
1.10198e-08
1.68815e-08
2.38575e-08
2.89447e-08
3.0529e-08
2.94146e-08
2.72843e-08
2.44112e-08
2.04064e-08
1.80207e-08
1.36985e-08
1.06926e-08
9.1653e-09
9.05406e-09
9.98799e-09
1.15671e-08
1.31889e-08
1.42441e-08
1.46765e-08
1.48144e-08
1.48786e-08
1.50924e-08
1.55209e-08
1.6541e-08
1.81069e-08
1.98292e-08
2.12436e-08
2.19021e-08
2.1665e-08
2.05326e-08
1.88974e-08
1.79085e-08
1.81375e-08
1.93904e-08
2.10584e-08
2.19107e-08
2.01636e-08
1.59954e-08
1.18407e-08
9.99682e-09
1.13351e-08
1.5483e-08
2.11024e-08
2.59078e-08
2.82985e-08
2.84793e-08
2.76144e-08
2.59421e-08
2.2693e-08
1.92952e-08
1.38418e-08
9.1383e-09
6.57232e-09
6.55643e-09
8.6571e-09
1.20466e-08
1.56519e-08
1.81574e-08
1.92461e-08
1.94286e-08
1.93144e-08
1.93258e-08
1.94777e-08
1.9771e-08
2.06624e-08
2.2382e-08
2.42265e-08
2.53933e-08
2.52081e-08
2.30023e-08
1.91058e-08
1.52904e-08
1.30511e-08
1.28695e-08
1.47177e-08
1.75067e-08
1.89968e-08
1.83285e-08
1.64679e-08
1.49878e-08
1.49456e-08
1.64248e-08
1.92813e-08
2.24032e-08
2.4931e-08
2.65119e-08
2.71787e-08
2.64726e-08
2.3896e-08
4.34819e-09
2.53287e-09
2.36734e-09
4.84724e-09
1.03662e-08
1.78046e-08
2.41464e-08
2.64703e-08
2.42464e-08
2.07113e-08
2.03034e-08
2.36733e-08
2.73856e-08
2.833e-08
2.6242e-08
2.23486e-08
1.79009e-08
1.39106e-08
1.10234e-08
9.22183e-09
9.10164e-09
1.29522e-08
2.23171e-08
3.49366e-08
4.6339e-08
5.32815e-08
5.48074e-08
5.18331e-08
4.52301e-08
3.63639e-08
2.96197e-08
2.81852e-08
2.80755e-08
2.53184e-08
2.05156e-08
1.56837e-08
1.22795e-08
1.03756e-08
8.73771e-09
6.66671e-09
4.389e-09
2.49773e-09
2.2822e-09
4.72543e-09
1.02172e-08
1.76495e-08
2.40231e-08
2.64052e-08
2.4237e-08
2.07305e-08
2.03307e-08
2.37105e-08
2.74347e-08
2.83792e-08
2.62755e-08
2.23813e-08
1.79395e-08
1.39454e-08
1.10392e-08
9.21147e-09
9.05117e-09
1.28379e-08
2.21214e-08
3.46448e-08
4.59584e-08
5.28452e-08
5.43438e-08
5.13609e-08
4.47775e-08
3.597e-08
2.92966e-08
2.8046e-08
2.82449e-08
2.5755e-08
2.10714e-08
1.6234e-08
1.27428e-08
1.07156e-08
8.95989e-09
6.79241e-09
4.37328e-09
2.44708e-09
2.22608e-09
4.66409e-09
1.01708e-08
1.7655e-08
2.41131e-08
2.65661e-08
2.44024e-08
2.08253e-08
2.0352e-08
2.37175e-08
2.74716e-08
2.84408e-08
2.63561e-08
2.24878e-08
1.80655e-08
1.40467e-08
1.10889e-08
9.20686e-09
8.97975e-09
1.26899e-08
2.19263e-08
3.44422e-08
4.57549e-08
5.26557e-08
5.41624e-08
5.11444e-08
4.44751e-08
3.55298e-08
2.87305e-08
2.76463e-08
2.83251e-08
2.62893e-08
2.18478e-08
1.70255e-08
1.33869e-08
1.11423e-08
9.17711e-09
6.85995e-09
4.28277e-09
2.37441e-09
2.21908e-09
4.70687e-09
1.02735e-08
1.78703e-08
2.44685e-08
2.6992e-08
2.47459e-08
2.09596e-08
2.03042e-08
2.36342e-08
2.74523e-08
2.84899e-08
2.64753e-08
2.26984e-08
1.83376e-08
1.4274e-08
1.12132e-08
9.23127e-09
8.92011e-09
1.25846e-08
2.18702e-08
3.45101e-08
4.59188e-08
5.28839e-08
5.44104e-08
5.13272e-08
4.44922e-08
3.51985e-08
2.7984e-08
2.69236e-08
2.81787e-08
2.67833e-08
2.27477e-08
1.80332e-08
1.42471e-08
1.17154e-08
9.43055e-09
6.86909e-09
4.13312e-09
2.29352e-09
2.30347e-09
4.88462e-09
1.05246e-08
1.82616e-08
2.5045e-08
2.76427e-08
2.52354e-08
2.10901e-08
2.0109e-08
2.33379e-08
2.72306e-08
2.83761e-08
2.65169e-08
2.29309e-08
1.87316e-08
1.46535e-08
1.14522e-08
9.30472e-09
8.87848e-09
1.2554e-08
2.20335e-08
3.49566e-08
4.65926e-08
5.36621e-08
5.51862e-08
5.2034e-08
4.50792e-08
3.53763e-08
2.7416e-08
2.60128e-08
2.77123e-08
2.70479e-08
2.3599e-08
1.91902e-08
1.53745e-08
1.25466e-08
9.82583e-09
6.8762e-09
3.96971e-09
2.22156e-09
2.5292e-09
5.25659e-09
1.09341e-08
1.88039e-08
2.57991e-08
2.84971e-08
2.58927e-08
2.12623e-08
1.97767e-08
2.27369e-08
2.66143e-08
2.78713e-08
2.61922e-08
2.2944e-08
1.90897e-08
1.51401e-08
1.18176e-08
9.43972e-09
8.78727e-09
1.23751e-08
2.2075e-08
3.54996e-08
4.76772e-08
5.51136e-08
5.67748e-08
5.36011e-08
4.67365e-08
3.68168e-08
2.7839e-08
2.54705e-08
2.71194e-08
2.7003e-08
2.42359e-08
2.04091e-08
1.68187e-08
1.37884e-08
1.0533e-08
6.99757e-09
3.89636e-09
2.17238e-09
2.91035e-09
5.90454e-09
1.15293e-08
1.93968e-08
2.66021e-08
2.95062e-08
2.67994e-08
2.16611e-08
1.95374e-08
2.19769e-08
2.55531e-08
2.67072e-08
2.52079e-08
2.24677e-08
1.92406e-08
1.56628e-08
1.23097e-08
9.65105e-09
8.5798e-09
1.17113e-08
2.12535e-08
3.50715e-08
4.8179e-08
5.67543e-08
5.92632e-08
5.64106e-08
4.99039e-08
4.02298e-08
3.03318e-08
2.64182e-08
2.72309e-08
2.70223e-08
2.47096e-08
2.17164e-08
1.87474e-08
1.5696e-08
1.18261e-08
7.45916e-09
4.14384e-09
2.18012e-09
3.31982e-09
6.78172e-09
1.23795e-08
1.99852e-08
2.71525e-08
3.02741e-08
2.77403e-08
2.23767e-08
1.96352e-08
2.13889e-08
2.44486e-08
2.53062e-08
2.38114e-08
2.1637e-08
1.92361e-08
1.62577e-08
1.29749e-08
9.96006e-09
8.23221e-09
1.04548e-08
1.93576e-08
3.33448e-08
4.74899e-08
5.77132e-08
6.17644e-08
5.97925e-08
5.38096e-08
4.44821e-08
3.42983e-08
2.90797e-08
2.891e-08
2.81607e-08
2.57529e-08
2.35574e-08
2.1561e-08
1.86942e-08
1.4113e-08
8.62108e-09
5.03675e-09
2.2984e-09
3.51275e-09
7.49493e-09
1.33776e-08
2.07331e-08
2.75357e-08
3.05219e-08
2.82268e-08
2.29026e-08
1.97059e-08
2.06352e-08
2.29611e-08
2.35114e-08
2.22457e-08
2.08147e-08
1.95741e-08
1.7408e-08
1.41888e-08
1.06226e-08
7.9273e-09
8.80338e-09
1.66568e-08
3.06179e-08
4.5672e-08
5.72188e-08
6.25156e-08
6.13304e-08
5.58359e-08
4.6986e-08
3.69532e-08
3.1037e-08
3.05911e-08
3.01356e-08
2.79868e-08
2.67137e-08
2.60029e-08
2.3407e-08
1.79141e-08
1.09184e-08
6.9757e-09
2.72455e-09
3.25323e-09
7.36691e-09
1.38028e-08
2.1426e-08
2.79653e-08
3.03794e-08
2.79806e-08
2.27702e-08
1.93103e-08
1.94215e-08
2.08044e-08
2.09911e-08
2.01269e-08
2.00029e-08
2.0353e-08
1.9367e-08
1.63714e-08
1.21819e-08
8.37479e-09
7.60072e-09
1.38056e-08
2.71381e-08
4.25917e-08
5.49217e-08
6.0733e-08
5.97064e-08
5.44103e-08
4.64433e-08
3.73285e-08
3.09373e-08
3.03369e-08
3.09374e-08
3.01746e-08
3.06247e-08
3.19358e-08
2.99701e-08
2.34727e-08
1.4734e-08
9.98575e-09
3.74164e-09
2.65512e-09
6.06605e-09
1.26736e-08
2.13947e-08
2.85746e-08
3.04703e-08
2.73041e-08
2.18499e-08
1.8124e-08
1.77607e-08
1.87473e-08
1.89487e-08
1.85381e-08
1.93478e-08
2.10136e-08
2.10838e-08
1.85208e-08
1.41719e-08
9.82396e-09
7.77429e-09
1.1953e-08
2.37077e-08
3.86587e-08
5.1221e-08
5.70918e-08
5.55296e-08
4.97451e-08
4.2907e-08
3.58475e-08
2.97576e-08
2.8319e-08
2.98163e-08
3.09141e-08
3.34798e-08
3.73218e-08
3.66612e-08
2.94897e-08
1.93937e-08
1.31597e-08
5.29926e-09
2.20387e-09
4.30175e-09
1.05286e-08
1.99e-08
2.85761e-08