/*--------------------------------*- C++ -*----------------------------------*\
| =========                 |                                                 |
| \\      /  F ield         | OpenFOAM: The Open Source CFD Toolbox           |
|  \\    /   O peration     | Version:  2306                                  |
|   \\  /    A nd           | Website:  www.openfoam.com                      |
|    \\/     M anipulation  |                                                 |
\*---------------------------------------------------------------------------*/
FoamFile
{
    version     2.0;
    format      ascii;
    arch        "LSB;label=32;scalar=64";
    class       volVectorField;
    location    "9.5";
    object      U;
}
// * * * * * * * * * * * * * * * * * * * * * * * * * * * * * * * * * * * * * //

dimensions      [0 1 -1 0 0 0 0];

internalField   nonuniform List<vector> 
60000
(
(0.00629833 1.66217e-05 -0.000647752)
(0.00654934 2.36602e-05 -0.000346749)
(0.00686025 2.82831e-05 -0.000193641)
(0.00730097 2.61501e-05 -2.15156e-05)
(0.00785136 2.07195e-05 0.000349507)
(0.00841374 1.96575e-05 0.000929706)
(0.0087885 2.20303e-05 0.00160472)
(0.00879294 2.72265e-05 0.00221348)
(0.00846136 3.10825e-05 0.00256927)
(0.0080295 3.00114e-05 0.00258408)
(0.00769424 2.66114e-05 0.00232577)
(0.00746626 2.18583e-05 0.00194481)
(0.00726752 1.51525e-05 0.00160711)
(0.00703901 6.35177e-06 0.00140292)
(0.00674463 -1.11458e-06 0.00131499)
(0.00635123 -5.98967e-06 0.00129049)
(0.00588119 -4.48506e-06 0.00128937)
(0.00546843 -2.57817e-06 0.00125474)
(0.00526524 -1.44856e-06 0.00114537)
(0.00526715 -7.54337e-08 0.000905003)
(0.00535409 -1.37945e-06 0.000562982)
(0.00548662 -1.04024e-05 0.000248426)
(0.00572679 -1.44581e-05 2.55601e-05)
(0.00606736 -1.33739e-05 -0.000158685)
(0.00642119 -3.3471e-06 -0.000289224)
(0.00674567 1.50601e-05 -0.000266931)
(0.00705483 2.47295e-05 -0.000170613)
(0.00732896 2.45971e-05 -0.000212175)
(0.0075558 9.48058e-06 -0.000572299)
(0.00780613 -1.97049e-05 -0.00126125)
(0.00809867 -3.96387e-05 -0.00197228)
(0.00826088 -3.65278e-05 -0.00235034)
(0.00814117 -2.29756e-05 -0.00237319)
(0.00777441 -7.71176e-06 -0.00233119)
(0.00725172 7.6007e-06 -0.00235561)
(0.00664551 1.60064e-05 -0.00231167)
(0.00607968 1.23458e-05 -0.00215462)
(0.00575623 5.97875e-06 -0.00192393)
(0.00578312 3.10207e-06 -0.00157716)
(0.00602901 6.90595e-06 -0.00110692)
(0.0186346 9.06662e-05 -0.00173552)
(0.0194826 0.000117452 -0.000986401)
(0.0206312 0.000103272 -0.000540545)
(0.0221283 7.1795e-05 3.40679e-05)
(0.0238525 5.43959e-05 0.00112631)
(0.0255469 8.06684e-05 0.002702)
(0.0266881 0.000150987 0.00445553)
(0.0267717 0.000234784 0.00597395)
(0.0258382 0.000278511 0.00681735)
(0.0245317 0.00025635 0.00677866)
(0.023478 0.000199943 0.00604388)
(0.0227926 0.000142115 0.00503729)
(0.0222638 9.20835e-05 0.0041677)
(0.0216576 4.61951e-05 0.00361776)
(0.0208045 6.46643e-06 0.00335152)
(0.0196361 -2.2084e-05 0.00328199)
(0.0182918 -4.61018e-05 0.00329018)
(0.0171159 -8.16802e-05 0.00318812)
(0.0164298 -0.000112073 0.00284421)
(0.0162385 -0.000116836 0.00219792)
(0.0163368 -0.000115387 0.00139569)
(0.0166462 -0.000134126 0.000692892)
(0.0172327 -0.000126631 0.000159204)
(0.018039 -7.97815e-05 -0.0002838)
(0.0189283 2.762e-07 -0.000538099)
(0.0198735 6.78075e-05 -0.000463123)
(0.0209241 7.04074e-05 -0.000296956)
(0.0220398 -3.76329e-06 -0.000522927)
(0.0231855 -0.00015424 -0.00152275)
(0.0243719 -0.000323567 -0.00323437)
(0.025354 -0.000366268 -0.00496202)
(0.0256304 -0.000245062 -0.00594094)
(0.0250043 -7.3018e-05 -0.00614812)
(0.0237777 6.79328e-05 -0.00613634)
(0.0222994 0.000140355 -0.00609695)
(0.0207385 0.000129306 -0.0058859)
(0.0192292 5.23549e-05 -0.0055244)
(0.0180947 -1.70473e-05 -0.0049887)
(0.017707 -2.57937e-05 -0.00409037)
(0.0180006 2.51794e-05 -0.00287649)
(0.0308758 0.00020509 -0.00312246)
(0.0322589 0.000241752 -0.00202423)
(0.0342766 0.000173224 -0.0013651)
(0.0368861 7.42302e-05 -0.000507449)
(0.0398634 3.24201e-05 0.00113664)
(0.042859 0.000100524 0.00353762)
(0.0451123 0.000274145 0.00622858)
(0.0457441 0.000484701 0.00859356)
(0.0445445 0.000610288 0.0100204)
(0.0423674 0.000580154 0.010167)
(0.0403886 0.000452936 0.00922196)
(0.0390837 0.000311687 0.00779574)
(0.0382111 0.000190776 0.00649559)
(0.037327 8.62786e-05 0.00557409)
(0.0360734 -4.2161e-06 0.00501754)
(0.0343101 -7.0571e-05 0.00480201)
(0.0322121 -0.000140362 0.00481215)
(0.0301943 -0.000238733 0.00473039)
(0.0287115 -0.000321624 0.00428077)
(0.0279331 -0.000339736 0.00338705)
(0.0277333 -0.00033202 0.0022953)
(0.0280103 -0.00034739 0.00134135)
(0.0287708 -0.000298521 0.000585262)
(0.0298919 -0.000149043 -5.40086e-05)
(0.0312267 4.15384e-05 -0.000395857)
(0.0327978 0.000145871 -0.000253594)
(0.0347037 6.55349e-05 5.84047e-05)
(0.0368607 -0.000198043 -0.000118411)
(0.0391597 -0.000625076 -0.00135597)
(0.0415361 -0.00102402 -0.00370072)
(0.0434731 -0.00106846 -0.00633644)
(0.0440797 -0.000707088 -0.00814284)
(0.043092 -0.000234014 -0.00886665)
(0.0411341 0.000136248 -0.00905506)
(0.0388843 0.000296785 -0.00896022)
(0.0366007 0.000243541 -0.00859826)
(0.0342356 6.31267e-05 -0.00816016)
(0.0319599 -7.52436e-05 -0.00757491)
(0.0304601 -6.43497e-05 -0.00644792)
(0.030177 6.65302e-05 -0.00476792)
(0.0427989 0.000303868 -0.00510373)
(0.0443404 0.000339965 -0.00384873)
(0.0470111 0.000170773 -0.0031869)
(0.0505983 -6.32952e-05 -0.00234141)
(0.0548115 -0.000198978 -0.000474965)
(0.059278 -8.09176e-05 0.00252674)
(0.0631513 0.000236569 0.00611572)
(0.0651326 0.000628758 0.00946168)
(0.0644226 0.0009104 0.0117815)
(0.0616649 0.000935637 0.0125648)
(0.0585697 0.000757794 0.0118587)
(0.0563543 0.000516449 0.0103352)
(0.0550275 0.000298746 0.00878603)
(0.053966 0.000116863 0.00752973)
(0.0525638 -3.02311e-05 0.00655779)
(0.0505327 -0.000137413 0.00599279)
(0.0479562 -0.000254203 0.0059026)
(0.0451165 -0.000423107 0.00592761)
(0.0424689 -0.000578154 0.00556677)
(0.040491 -0.000635361 0.00460658)
(0.039413 -0.000643565 0.00336259)
(0.039234 -0.000667041 0.00228388)
(0.0398833 -0.000560308 0.00142032)
(0.0411273 -0.000250512 0.000653704)
(0.0427872 8.81256e-05 0.000254122)
(0.0449305 0.00021467 0.000526788)
(0.0477019 -2.63952e-05 0.00119006)
(0.0509006 -0.000615611 0.0014902)
(0.0542401 -0.00149226 0.000652448)
(0.0577508 -0.00225182 -0.00175352)
(0.0610005 -0.00230034 -0.00520149)
(0.0626262 -0.00157236 -0.00825252)
(0.0619313 -0.000634663 -0.0100722)
(0.0597024 0.000105257 -0.0109111)
(0.0570167 0.000435479 -0.0110007)
(0.0543343 0.000350102 -0.0105518)
(0.0513907 4.01292e-05 -0.0100787)
(0.0478948 -0.000173709 -0.00964018)
(0.0445778 -0.000139074 -0.00867731)
(0.0427398 8.13715e-05 -0.00695849)
(0.0547776 0.0003395 -0.00753039)
(0.0555235 0.000353065 -0.00652315)
(0.0581015 3.07968e-05 -0.00626882)
(0.0620506 -0.000454127 -0.0059252)
(0.0670699 -0.000838643 -0.00440718)
(0.072914 -0.000775986 -0.0013019)
(0.0788827 -0.000219691 0.00306823)
(0.0833097 0.000472568 0.00769779)
(0.0844239 0.00101832 0.0114351)
(0.08203 0.00120837 0.0134792)
(0.0779804 0.00105794 0.0136113)
(0.074535 0.000732439 0.0124355)
(0.0724886 0.000399617 0.0109613)
(0.071247 0.000120548 0.009618)
(0.0699292 -8.67528e-05 0.00828177)
(0.0680152 -0.00022229 0.00715415)
(0.0654119 -0.000357218 0.00669481)
(0.0620983 -0.00056026 0.00676149)
(0.0582311 -0.000768896 0.0066397)
(0.0544626 -0.000891295 0.0057889)
(0.0516282 -0.000984172 0.00449565)
(0.0501835 -0.0010926 0.0034072)
(0.0501793 -0.000955796 0.00260277)
(0.0512438 -0.000439997 0.00184684)
(0.0530273 0.000112965 0.00147049)
(0.0555554 0.000270885 0.00197304)
(0.0589971 -0.00019587 0.00318698)
(0.0629441 -0.00128005 0.00433882)
(0.0666106 -0.0028367 0.00457968)
(0.0703064 -0.00422234 0.00308432)
(0.0748595 -0.00441796 -0.000510398)
(0.0788084 -0.00317543 -0.00506018)
(0.0799627 -0.00149746 -0.00884987)
(0.0785824 -0.000186322 -0.0112524)
(0.076122 0.000478346 -0.0121614)
(0.073474 0.000439357 -0.0118607)
(0.0704135 6.57031e-06 -0.0113417)
(0.0661272 -0.000283905 -0.0110721)
(0.0608752 -0.000232415 -0.0104828)
(0.0565486 5.4156e-05 -0.00913509)
(0.0682351 0.000338723 -0.0096085)
(0.0670068 0.000287771 -0.0092371)
(0.0682192 -0.000277536 -0.00988747)
(0.071066 -0.00116666 -0.0106593)
(0.075354 -0.0020208 -0.0102759)
(0.0811947 -0.0023366 -0.00815221)
(0.0887343 -0.00175364 -0.00403885)
(0.0967505 -0.000514145 0.00175968)
(0.101862 0.000692105 0.00768968)
(0.101858 0.00125249 0.0119642)
(0.0979358 0.00126977 0.0137851)
(0.0932862 0.000924306 0.01354)
(0.0901942 0.000474624 0.0125377)
(0.0886243 7.52139e-05 0.0115653)
(0.0874797 -0.000204915 0.0103006)
(0.0859555 -0.000351453 0.00866385)
(0.0838108 -0.000456822 0.00749923)
(0.080738 -0.000619697 0.00729108)
(0.0762921 -0.000798562 0.00737946)
(0.0707759 -0.000943789 0.00676759)
(0.0654309 -0.0011811 0.00547983)
(0.0614853 -0.00153365 0.00440419)
(0.0597239 -0.00149547 0.00380543)
(0.0599759 -0.000772351 0.00326918)
(0.0615047 9.4879e-05 0.00307131)
(0.064051 0.000350833 0.00390776)
(0.0677861 -0.000401438 0.00571985)
(0.0721727 -0.00211775 0.00765346)
(0.075639 -0.00453494 0.00895201)
(0.0777264 -0.00687501 0.00911742)
(0.0812628 -0.00767482 0.00717075)
(0.0878009 -0.00620774 0.00251476)
(0.0935181 -0.00346851 -0.00359762)
(0.0955017 -0.00105339 -0.00891627)
(0.0947507 0.000269524 -0.0118967)
(0.0928746 0.000466193 -0.0124466)
(0.0902315 -1.41224e-05 -0.0120485)
(0.085928 -0.000359264 -0.0119063)
(0.0795118 -0.00028178 -0.0116477)
(0.0727157 4.4455e-05 -0.0107232)
(0.0842493 0.000387675 -0.0106188)
(0.0810573 0.000245911 -0.0105948)
(0.080615 -0.000649179 -0.0120364)
(0.0811264 -0.00210669 -0.0142053)
(0.0822999 -0.00363798 -0.0155707)
(0.0850719 -0.00458459 -0.0153492)
(0.0905032 -0.00445162 -0.0132685)
(0.0996707 -0.00313932 -0.00857688)
(0.11062 -0.00113389 -0.00120228)
(0.117022 0.000555627 0.00638605)
(0.116171 0.00119663 0.0112846)
(0.111437 0.00102941 0.0129004)
(0.10728 0.000497704 0.0127635)
(0.105254 -5.68633e-05 0.0125273)
(0.104284 -0.000447626 0.0120608)
(0.103169 -0.000586483 0.0105767)
(0.101693 -0.000609203 0.00871521)
(0.0996106 -0.00065693 0.00778962)
(0.095866 -0.000694548 0.00778368)
(0.0897991 -0.000724447 0.00741293)
(0.0823086 -0.00102389 0.00616823)
(0.0749919 -0.00173179 0.00501584)
(0.0697804 -0.00203417 0.00459925)
(0.067869 -0.00121898 0.0044097)
(0.068445 3.64033e-05 0.00450304)
(0.0705687 0.000489001 0.0056967)
(0.0742066 -0.000553969 0.008013)
(0.0790734 -0.00288896 0.0103184)
(0.0835078 -0.00597378 0.0116338)
(0.0849771 -0.00912957 0.0124274)
(0.0845055 -0.0110083 0.0131672)
(0.0883071 -0.0102307 0.0116986)
(0.0974304 -0.00708394 0.0060797)
(0.105897 -0.00330494 -0.00213097)
(0.109987 -0.000625889 -0.00879532)
(0.110516 0.000278297 -0.0116555)
(0.108909 -1.65611e-05 -0.0120844)
(0.10528 -0.000340844 -0.012214)
(0.0989552 -0.000245852 -0.0122347)
(0.0909253 0.000113012 -0.011542)
(0.101207 0.000617323 -0.0105784)
(0.0972858 0.000303482 -0.0101415)
(0.0967329 -0.000776766 -0.011417)
(0.096203 -0.00265469 -0.0143871)
(0.0935586 -0.00490507 -0.0176201)
(0.0907718 -0.00670731 -0.0196657)
(0.0908937 -0.00738994 -0.0198741)
(0.0957218 -0.00666928 -0.0177597)
(0.106736 -0.00468732 -0.0122858)
(0.120344 -0.00197793 -0.00350134)
(0.127449 2.33068e-05 0.00506108)
(0.125942 0.000653722 0.00981773)
(0.121714 0.000374365 0.0110966)
(0.119503 -0.000256463 0.0115367)
(0.119106 -0.000841025 0.0122234)
(0.118441 -0.00104747 0.0119664)
(0.117268 -0.000920749 0.0102755)
(0.116318 -0.000749064 0.00859891)
(0.114568 -0.000593853 0.00805612)
(0.110069 -0.000390997 0.00772084)
(0.102473 -0.000535656 0.00651832)
(0.0927048 -0.00145973 0.00521634)
(0.0829547 -0.0022554 0.00484512)
(0.0768228 -0.00161304 0.00495699)
(0.0751655 -2.71314e-05 0.00529718)
(0.0763882 0.000758462 0.00674843)
(0.0796465 -0.000343543 0.00947359)
(0.0847351 -0.00307308 0.0120047)
(0.0909197 -0.00646999 0.0126848)
(0.0951761 -0.00972885 0.0122914)
(0.0939374 -0.0123091 0.0137563)
(0.0909688 -0.0130747 0.0166403)
(0.0953762 -0.0109675 0.0156419)
(0.106706 -0.00689452 0.00833086)
(0.117643 -0.00274718 -0.00148351)
(0.123329 -0.000517673 -0.0081979)
(0.123879 -0.000250878 -0.0108653)
(0.121276 -0.000346694 -0.0118089)
(0.116086 -2.85713e-05 -0.0121964)
(0.108536 0.000420334 -0.0116704)
(0.11389 0.000807559 -0.00910421)
(0.111248 0.00053163 -0.00786836)
(0.112368 -0.000472918 -0.00805094)
(0.113773 -0.00226249 -0.0108324)
(0.110383 -0.00474198 -0.0154257)
(0.102529 -0.00732162 -0.0199292)
(0.0961141 -0.00911615 -0.0226924)
(0.0949273 -0.00954429 -0.022739)
(0.100471 -0.00845878 -0.0196087)
(0.11356 -0.00591423 -0.0127152)
(0.127783 -0.00281432 -0.00307634)
(0.133041 -0.000843228 0.00480544)
(0.130369 -0.000486328 0.0080097)
(0.128091 -0.000871268 0.00861394)
(0.129337 -0.0013692 0.00972968)
(0.130455 -0.0016399 0.0110789)
(0.129211 -0.00154655 0.010903)
(0.128152 -0.00116977 0.00944971)
(0.128609 -0.000649335 0.00838616)
(0.127821 -0.00012627 0.0078264)
(0.123334 -4.90482e-05 0.00658679)
(0.114283 -0.000844934 0.0050639)
(0.101315 -0.00193235 0.00460818)
(0.0894865 -0.00165566 0.0050099)
(0.0834933 9.8784e-06 0.00563784)
(0.0827712 0.00113688 0.0071954)
(0.0854749 0.000181934 0.00985879)
(0.0905685 -0.00271916 0.0121065)
(0.0974021 -0.0063583 0.0121453)
(0.104164 -0.00934679 0.010536)
(0.106581 -0.0114382 0.0110569)
(0.102196 -0.0130529 0.0158401)
(0.0982366 -0.0131316 0.0201216)
(0.104268 -0.0104361 0.0172758)
(0.117877 -0.00595105 0.00789494)
(0.129607 -0.00211397 -0.00197102)
(0.132526 -0.000566125 -0.00795722)
(0.128555 -0.000246283 -0.0102793)
(0.123527 7.253e-05 -0.0107781)
(0.118782 0.00053462 -0.0103094)
(0.113177 0.000641055 -0.00479693)
(0.113917 0.000371979 -0.00269871)
(0.118549 -0.000424468 -0.00140838)
(0.125253 -0.00156334 -0.00353094)
(0.126514 -0.00331379 -0.00930319)
(0.118357 -0.00590606 -0.0162153)
(0.106817 -0.00863422 -0.0220347)
(0.0999715 -0.0103084 -0.0248909)
(0.0997205 -0.0106164 -0.0237721)
(0.106758 -0.00943048 -0.0188732)
(0.120904 -0.00669436 -0.0103905)
(0.133781 -0.00339511 -0.000874649)
(0.136037 -0.00181855 0.00474971)
(0.132169 -0.00221072 0.00557126)
(0.132389 -0.00284863 0.00571601)
(0.136955 -0.00255509 0.00754336)
(0.137966 -0.00182271 0.00918947)
(0.134664 -0.00142797 0.00910738)
(0.133459 -0.00114927 0.00826707)
(0.136157 -0.000539374 0.00765916)
(0.138442 2.12914e-05 0.00653474)
(0.135272 -0.000271556 0.0048038)
(0.12364 -0.00115051 0.00400442)
(0.107463 -0.00104717 0.00463737)
(0.0954235 0.000405236 0.00585888)
(0.0910051 0.00151266 0.00751808)
(0.0925489 0.000542886 0.00948068)
(0.0977256 -0.00253885 0.0105409)
(0.104924 -0.00621767 0.00942845)
(0.112534 -0.00886633 0.00667191)
(0.117465 -0.0100198 0.00631051)
(0.115948 -0.0109048 0.0116419)
(0.108746 -0.0123629 0.0192442)
(0.106085 -0.0124561 0.0211832)
(0.11551 -0.00941033 0.0143978)
(0.129036 -0.00450496 0.00364052)
(0.133616 -0.00066714 -0.00498263)
(0.127102 0.000795173 -0.00861385)
(0.118728 0.000784633 -0.00829229)
(0.114521 0.000611433 -0.0066024)
(0.10956 0.000754464 -0.000741503)
(0.109611 0.000192589 0.00298117)
(0.113407 -0.000730715 0.0065669)
(0.123392 -0.0015133 0.00639643)
(0.133154 -0.0020371 5.58445e-05)
(0.131865 -0.00343208 -0.00939992)
(0.120184 -0.00638016 -0.0180292)
(0.108466 -0.00915047 -0.0241456)
(0.103856 -0.010452 -0.0260534)
(0.105816 -0.0107462 -0.0234071)
(0.113863 -0.00993773 -0.0168257)
(0.127706 -0.00729563 -0.00758438)
(0.139175 -0.00395305 0.000431192)
(0.139827 -0.00294485 0.00345657)
(0.135078 -0.0043013 0.00324978)
(0.135918 -0.00471841 0.00400677)
(0.140915 -0.00272959 0.0061148)
(0.141164 -0.000585186 0.00738525)
(0.137032 -0.000266433 0.00726156)
(0.135472 -0.0010922 0.00677808)
(0.140068 -0.00162857 0.00619108)
(0.146283 -0.00140387 0.0048438)
(0.143452 -0.000731992 0.00353754)
(0.128872 0.000266579 0.00383438)
(0.112273 0.0015503 0.00578909)
(0.102955 0.00202582 0.00824491)
(0.101891 0.000393089 0.00978368)
(0.105831 -0.00330727 0.00935303)
(0.112481 -0.00701562 0.00665687)
(0.120688 -0.00890219 0.00218584)
(0.127283 -0.00878076 -0.000140536)
(0.12802 -0.00828546 0.00468187)
(0.12131 -0.00925008 0.0146322)
(0.112902 -0.0115645 0.020908)
(0.114479 -0.0114425 0.0175001)
(0.124677 -0.00697885 0.00743641)
(0.130125 -0.00106416 -0.00236793)
(0.125102 0.00217191 -0.00737766)
(0.116493 0.00226882 -0.00715103)
(0.11126 0.00126587 -0.00414064)
(0.112958 0.00168273 -0.00191259)
(0.109984 0.000862203 0.00297768)
(0.109564 -0.000685132 0.00870254)
(0.116255 -0.00189819 0.0122828)
(0.129585 -0.00164885 0.0086991)
(0.137752 -0.00118992 -0.00142286)
(0.132686 -0.00302904 -0.0119819)
(0.119976 -0.00646375 -0.0201151)
(0.11036 -0.00887771 -0.0250996)
(0.10899 -0.00999486 -0.0258484)
(0.113183 -0.0107694 -0.0221352)
(0.121887 -0.0106424 -0.0145737)
(0.134801 -0.0082611 -0.00555914)
(0.143991 -0.00509499 0.000543901)
(0.142508 -0.00439979 0.002238)
(0.136925 -0.00544916 0.00237812)
(0.137319 -0.00461201 0.00365191)
(0.141807 -0.00147389 0.00551665)
(0.143197 0.00101556 0.00635614)
(0.140115 0.000506856 0.0059516)
(0.138182 -0.00266896 0.00535747)
(0.143714 -0.00500335 0.00483043)
(0.150857 -0.00315008 0.00368718)
(0.146348 0.000915375 0.003007)
(0.131944 0.00348805 0.00493386)
(0.119749 0.00328216 0.00892113)
(0.114914 0.000516116 0.0112231)
(0.114838 -0.00396838 0.00932582)
(0.117588 -0.00852346 0.00475923)
(0.124761 -0.0105542 -0.00062292)
(0.13392 -0.00902283 -0.00493143)
(0.137636 -0.00632218 -0.00278079)
(0.132619 -0.00570948 0.00751225)
(0.122395 -0.00837916 0.0177027)
(0.11683 -0.0109859 0.0186899)
(0.120608 -0.00847791 0.0108367)
(0.125254 -0.00190581 0.00106034)
(0.124381 0.00287931 -0.0056461)
(0.120252 0.00368083 -0.0076771)
(0.11628 0.002524 -0.00577266)
(0.121272 0.00325519 -0.00597755)
(0.116573 0.00229304 -0.00241042)
(0.112963 -0.000183905 0.00282521)
(0.114702 -0.00261018 0.00867846)
(0.12498 -0.00234098 0.00992366)
(0.137664 -0.000150063 0.00331212)
(0.140952 0.00011658 -0.00645262)
(0.132435 -0.00281001 -0.0147509)
(0.120207 -0.00602026 -0.0211546)
(0.114127 -0.0081138 -0.0250624)
(0.116268 -0.00988298 -0.0250622)
(0.122496 -0.0117003 -0.0204345)
(0.131369 -0.0118361 -0.0119092)
(0.141245 -0.0090233 -0.00337125)
(0.145156 -0.00583296 0.00104105)
(0.14122 -0.00486638 0.00170144)
(0.136986 -0.00470602 0.00207338)
(0.138381 -0.00315161 0.00404119)
(0.143226 -0.000352171 0.00626894)
(0.145939 0.00140685 0.00675985)
(0.144057 -0.000959837 0.00565038)
(0.142177 -0.00603878 0.00445935)
(0.146229 -0.00705804 0.00351983)
(0.150616 -0.00186937 0.00248354)
(0.146836 0.00344755 0.00368857)
(0.137814 0.00444041 0.00855151)
(0.130032 0.00208274 0.0122378)
(0.125025 -0.00178732 0.00951759)
(0.122128 -0.00684557 0.0028245)
(0.124638 -0.0111492 -0.00272484)
(0.13453 -0.0109195 -0.00649424)
(0.142898 -0.00656193 -0.00699576)
(0.141347 -0.00348422 0.000449769)
(0.131954 -0.00459096 0.0124296)
(0.122531 -0.0081451 0.0181655)
(0.119859 -0.00805184 0.0136942)
(0.121654 -0.00275816 0.00480369)
(0.123379 0.0025096 -0.00295363)
(0.12449 0.00423322 -0.00738718)
(0.124142 0.00380076 -0.00804924)
(0.130638 0.00461833 -0.0090496)
(0.12761 0.00425823 -0.00801901)
(0.123381 0.00134354 -0.00484152)
(0.120938 -0.00238425 0.000491174)
(0.125146 -0.00322847 0.00455203)
(0.136709 -0.000561011 0.00298075)
(0.145937 0.00177351 -0.00308658)
(0.143357 0.000564096 -0.0100251)
(0.131753 -0.00238801 -0.0165738)
(0.12192 -0.00517041 -0.0221097)
(0.120716 -0.00792997 -0.0250328)
(0.126039 -0.0111208 -0.0238651)
(0.132961 -0.0133674 -0.0176209)
(0.140024 -0.0119682 -0.00826422)
(0.144505 -0.00778704 -0.00123282)
(0.143372 -0.00467969 0.000839459)
(0.139532 -0.00380051 0.000864449)
(0.137999 -0.00335323 0.00270602)
(0.14065 -0.00192263 0.00649854)
(0.145775 0.000138901 0.00905155)
(0.149462 6.71314e-05 0.00796884)
(0.148251 -0.003738 0.0045956)
(0.145079 -0.00713289 0.00235139)
(0.145411 -0.00511257 0.00237636)
(0.146148 -0.000108833 0.00477078)
(0.142204 0.00281516 0.00937948)
(0.135742 0.00277711 0.0119875)
(0.13117 0.000811708 0.00811635)
(0.128166 -0.00321672 0.000408793)
(0.127501 -0.00880749 -0.00474138)
(0.133971 -0.0116215 -0.00619349)
(0.144271 -0.00841393 -0.00661031)
(0.146931 -0.00356013 -0.00309992)
(0.139892 -0.00227165 0.00683691)
(0.129643 -0.00452224 0.0156958)
(0.123 -0.00540512 0.0154624)
(0.121548 -0.00208831 0.00850742)
(0.123276 0.00195651 0.000767025)
(0.127034 0.00341483 -0.00507655)
(0.130438 0.00384897 -0.00828648)
(0.134096 0.00391741 -0.00899931)
(0.135699 0.00445317 -0.0103099)
(0.134397 0.00252909 -0.00851804)
(0.130221 -0.00095731 -0.00418992)
(0.128352 -0.00289727 0.000110299)
(0.134737 -0.00147581 0.00138289)
(0.145904 0.00146649 -0.00108255)
(0.150103 0.00251396 -0.00610281)
(0.142652 0.00107877 -0.0124191)
(0.131829 -0.00148456 -0.0186877)
(0.127308 -0.00488567 -0.0231094)
(0.130675 -0.00924403 -0.0244569)
(0.136985 -0.0132671 -0.0214987)
(0.1424 -0.0137124 -0.0136754)
(0.1456 -0.00961503 -0.00511528)
(0.145179 -0.00476868 -0.000931732)
(0.142289 -0.00246092 -0.000214016)
(0.140046 -0.00221254 0.00167588)
(0.140545 -0.00222157 0.0064291)
(0.144455 -0.00148478 0.0106218)
(0.15012 -0.0008396 0.0100073)
(0.152253 -0.00208908 0.00543998)
(0.147701 -0.00463289 0.00222538)
(0.140875 -0.00549171 0.00297638)
(0.136254 -0.00331011 0.00577068)
(0.133515 -8.17262e-05 0.00828421)
(0.132913 0.00220929 0.00837671)
(0.134192 0.00261327 0.00420439)
(0.134368 9.53867e-05 -0.00250498)
(0.133097 -0.00554681 -0.00661235)
(0.135974 -0.010617 -0.00629716)
(0.144874 -0.0100323 -0.00469186)
(0.150121 -0.00514111 -0.0023933)
(0.145143 -0.00199622 0.00409767)
(0.135227 -0.0020675 0.0122001)
(0.127732 -0.00216943 0.0144758)
(0.125248 9.92972e-05 0.0101734)
(0.12608 0.00272904 0.00409261)
(0.128286 0.00322937 -0.00109849)
(0.131196 0.00302536 -0.00551868)
(0.128509 0.00277035 -0.00510294)
(0.13295 0.00284026 -0.00650463)
(0.1361 0.00213851 -0.00479003)
(0.134317 0.0004145 -0.00180775)
(0.130055 -0.00102203 0.000777927)
(0.13086 -0.000774414 0.00201476)
(0.139752 0.000997641 0.00107328)
(0.148919 0.00297269 -0.00283473)
(0.14828 0.00354757 -0.00900186)
(0.140405 0.00245061 -0.0154032)
(0.135284 -0.000627865 -0.0202257)
(0.137075 -0.00581352 -0.0228117)
(0.142299 -0.0113663 -0.0226142)
(0.146625 -0.0136737 -0.0180076)
(0.148589 -0.0108091 -0.0101151)
(0.147809 -0.00547333 -0.00378278)
(0.145262 -0.0015822 -0.000920704)
(0.143176 -0.000424502 0.00115138)
(0.142971 -0.000949379 0.00501592)
(0.144842 -0.00163927 0.00935402)
(0.148332 -0.00194384 0.0103707)
(0.150752 -0.00224394 0.0070641)
(0.148082 -0.00275937 0.00299231)
(0.140614 -0.00301826 0.00165405)
(0.133388 -0.00262593 0.00273312)
(0.130913 -0.00177102 0.00409308)
(0.133768 -0.00041048 0.00387638)
(0.137966 0.00135895 0.000708708)
(0.138693 0.00151644 -0.00381988)
(0.136554 -0.00241403 -0.00592597)
(0.137047 -0.00862135 -0.00489127)
(0.143412 -0.0108259 -0.00287866)
(0.149805 -0.00704976 -0.000606861)
(0.148241 -0.00294498 0.00396214)
(0.140582 -0.00140457 0.00987885)
(0.133327 -0.000262305 0.0120118)
(0.129545 0.00225798 0.00943778)
(0.127901 0.00468822 0.00577647)
(0.126557 0.00482388 0.00251276)
(0.126248 0.00344 -0.00129499)
(0.123644 0.000350778 3.52708e-05)
(0.128131 -0.000815935 -0.00129692)
(0.133047 -0.000921159 -0.000721287)
(0.13423 -0.000634627 0.000905142)
(0.131194 1.31712e-05 0.00270176)
(0.128976 0.000860666 0.00396157)
(0.1329 0.00183571 0.00341298)
(0.141887 0.00347948 3.55092e-05)
(0.148291 0.00528583 -0.00535711)
(0.147794 0.00580805 -0.0108051)
(0.145442 0.00373421 -0.0152789)
(0.146994 -0.00144533 -0.0188741)
(0.150996 -0.0081762 -0.0210696)
(0.153529 -0.0121706 -0.0198871)
(0.153633 -0.0104824 -0.0142555)
(0.151534 -0.00544507 -0.00721366)
(0.148258 -0.0012337 -0.00216908)
(0.145951 0.000496345 0.000808791)
(0.145603 0.000472902 0.00370205)
(0.146197 -0.000365061 0.00714405)
(0.146677 -0.00169266 0.00903485)
(0.146372 -0.00261068 0.00745201)
(0.144035 -0.00211576 0.00361592)
(0.139717 -0.000787702 0.000623079)
(0.136194 -0.000587386 0.000163742)
(0.136159 -0.00214808 0.00157433)
(0.139137 -0.00304494 0.00241221)
(0.141405 -0.0011411 0.000505243)
(0.139969 0.00135911 -0.00241147)
(0.136924 0.000188322 -0.00263599)
(0.136476 -0.0053202 -0.0006361)
(0.140694 -0.00985429 0.000902167)
(0.147189 -0.0088828 0.00222607)
(0.149853 -0.00501462 0.00513158)
(0.146258 -0.00167533 0.00888205)
(0.139482 0.00152062 0.00991316)
(0.133063 0.00512774 0.00776207)
(0.127809 0.0074507 0.00529928)
(0.123801 0.00655339 0.00385852)
(0.122128 0.00324634 0.00229559)
(0.123814 0.00138667 0.0063065)
(0.127552 -0.00102978 0.00492463)
(0.131188 -0.0018988 0.00411149)
(0.132397 -0.00115282 0.00389507)
(0.130638 0.00123949 0.0042134)
(0.128571 0.00391727 0.00524149)
(0.129738 0.00519605 0.00582879)
(0.13494 0.00511913 0.00396169)
(0.141597 0.00547363 -0.000325127)
(0.147094 0.00694629 -0.00505363)
(0.151753 0.00751324 -0.00893181)
(0.156918 0.00414713 -0.0125648)
(0.161211 -0.00279449 -0.0163304)
(0.162223 -0.00859359 -0.018333)
(0.160103 -0.00876145 -0.0160428)
(0.156248 -0.00445607 -0.010354)
(0.152055 -0.000454927 -0.00455323)
(0.14874 0.00112524 -0.000330356)
(0.146689 0.00132608 0.00269377)
(0.145585 0.00096536 0.00528354)
(0.144514 7.99937e-05 0.00701491)
(0.142388 -0.000677641 0.00653681)
(0.139514 -0.000137936 0.00364431)
(0.138168 0.00109671 0.000547281)
(0.140431 0.000559884 -0.000332041)
(0.144942 -0.00268782 0.000985805)
(0.147156 -0.00554163 0.00201753)
(0.144576 -0.0041651 0.00109568)
(0.139646 -1.8648e-05 0.000702588)
(0.13666 0.00155828 0.00315855)
(0.137357 -0.00194195 0.00567154)
(0.141216 -0.0074047 0.00550562)
(0.146907 -0.0094568 0.0045963)
(0.15098 -0.00687047 0.00575382)
(0.149905 -0.00251185 0.00813818)
(0.143912 0.00187478 0.00810168)
(0.135582 0.00619057 0.00547623)
(0.12768 0.00904048 0.00397358)
(0.122761 0.00855855 0.00523149)
(0.121779 0.00515761 0.00674313)
(0.123741 0.00371206 0.00946407)
(0.127358 0.00158602 0.00821837)
(0.131629 0.000690491 0.00642527)
(0.134635 0.00101668 0.00508563)
(0.134688 0.00277108 0.0047187)
(0.132891 0.00560671 0.00565997)
(0.132288 0.00805083 0.00693623)
(0.134205 0.0084829 0.00619991)
(0.137713 0.00696332 0.00289112)
(0.142175 0.00510371 -0.000806249)
(0.148462 0.00420876 -0.0033329)
(0.156883 0.00333735 -0.00611214)
(0.164145 0.000714614 -0.01037)
(0.165998 -0.00280382 -0.0143965)
(0.163391 -0.00427117 -0.0153498)
(0.160193 -0.00285509 -0.0126836)
(0.15784 -0.000670006 -0.00811783)
(0.155397 0.000930587 -0.00360265)
(0.152017 0.00192087 -0.000395887)
(0.148089 0.001978 0.00142425)
(0.144293 0.00110527 0.00277999)
(0.141069 0.000508106 0.00411986)
(0.139195 0.00120254 0.004622)
(0.140344 0.00222727 0.00348972)
(0.145936 0.00125204 0.00149838)
(0.153413 -0.00253869 0.000733981)
(0.156232 -0.00627265 0.00191583)
(0.151391 -0.00575232 0.00380781)
(0.143821 -0.00155273 0.00615117)
(0.13983 0.00167251 0.00887219)
(0.140257 0.00106457 0.00924439)
(0.142933 -0.00294943 0.00664692)
(0.146894 -0.00656974 0.00379238)
(0.150377 -0.0059403 0.00297103)
(0.149612 -0.00159052 0.00404214)
(0.143263 0.00357074 0.00468736)
(0.13395 0.00765181 0.00375117)
(0.125818 0.0097258 0.00371798)
(0.121732 0.00923728 0.00605311)
(0.121561 0.00670592 0.00874589)
(0.126862 0.00820361 0.00418263)
(0.129802 0.00589699 0.00415583)
(0.133266 0.0042917 0.00436091)
(0.135727 0.00339401 0.00435859)
(0.135967 0.00370003 0.00409195)
(0.134529 0.00558155 0.00413771)
(0.13343 0.00825497 0.0049117)
(0.134432 0.00981092 0.00563167)
(0.1374 0.00877565 0.00489215)
(0.141104 0.00542314 0.00242891)
(0.145171 0.00183736 -0.000779484)
(0.150556 -0.000383811 -0.00410137)
(0.157722 -0.00160575 -0.00742534)
(0.164098 -0.00247881 -0.0103893)
(0.166185 -0.00237619 -0.0122523)
(0.164301 -0.00113375 -0.0122932)
(0.161384 0.000228007 -0.0102849)
(0.159141 0.00131381 -0.00680397)
(0.157256 0.00245638 -0.00361723)
(0.154706 0.0034377 -0.0021422)
(0.150779 0.00338669 -0.00162845)
(0.14642 0.00198616 -0.000265792)
(0.143921 -0.000133997 0.00229151)
(0.144787 -0.00244822 0.00421611)
(0.14878 -0.00508172 0.00407339)
(0.153485 -0.0081044 0.0030003)
(0.155272 -0.010243 0.00362005)
(0.152252 -0.00888705 0.00615949)
(0.146751 -0.00306398 0.00832995)
(0.142534 0.0039011 0.00790419)
(0.14044 0.00691775 0.00444529)
(0.140102 0.00362439 0.000361378)
(0.142099 -0.00262829 -0.001152)
(0.145531 -0.00553631 -0.000127708)
(0.146465 -0.00239375 0.00147231)
(0.142002 0.00381993 0.00247358)
(0.134191 0.00914987 0.00291624)
(0.127665 0.0121472 0.00352847)
(0.12482 0.012651 0.00426946)
(0.125008 0.0109125 0.00443333)
(0.139418 0.0108819 -0.00614693)
(0.140149 0.00769074 -0.00729579)
(0.141174 0.00581566 -0.00562761)
(0.141488 0.0051898 -0.00223843)
(0.139472 0.00522446 0.00131371)
(0.135687 0.00551848 0.00418375)
(0.132684 0.00562786 0.00660381)
(0.132647 0.00487298 0.00886435)
(0.13594 0.00302942 0.0103967)
(0.141522 0.000599244 0.0101833)
(0.147708 -0.00167732 0.00757696)
(0.153182 -0.00325198 0.00259571)
(0.157202 -0.00368472 -0.0035427)
(0.158924 -0.00280832 -0.00865059)
(0.157899 -0.00081514 -0.010866)
(0.154752 0.00147715 -0.0105472)
(0.150781 0.00310171 -0.00921419)
(0.14768 0.00357721 -0.00753933)
(0.146807 0.00288089 -0.00574328)
(0.148125 0.00156032 -0.00445694)
(0.150203 0.00100208 -0.00406653)
(0.151835 0.00179345 -0.00390377)
(0.152974 0.00209598 -0.00280754)
(0.153861 -0.000482855 -0.000531468)
(0.154512 -0.00530188 0.00218087)
(0.155088 -0.00906791 0.00487886)
(0.155117 -0.009258 0.00760117)
(0.153149 -0.00614402 0.00965267)
(0.148938 -0.000972408 0.00947549)
(0.144527 0.00412329 0.00618008)
(0.141804 0.00614042 0.000958937)
(0.141314 0.00352881 -0.00309832)
(0.142775 -0.00217934 -0.00319971)
(0.145036 -0.00665697 0.000193603)
(0.145775 -0.00580274 0.00376871)
(0.143216 -1.94234e-05 0.00552666)
(0.138773 0.00712609 0.00563468)
(0.136028 0.0126683 0.00441638)
(0.136399 0.0151282 0.00151067)
(0.138186 0.0140936 -0.00260118)
(0.152726 0.0081834 -0.00724963)
(0.153599 0.00506797 -0.0100034)
(0.152842 0.00384259 -0.0103273)
(0.150696 0.00475002 -0.00892642)
(0.148026 0.00630697 -0.00653336)
(0.146207 0.00691658 -0.00362034)
(0.146165 0.00581868 -0.000396856)
(0.147683 0.00325871 0.00324211)