/*--------------------------------*- C++ -*----------------------------------*\
| =========                 |                                                 |
| \\      /  F ield         | OpenFOAM: The Open Source CFD Toolbox           |
|  \\    /   O peration     | Version:  2306                                  |
|   \\  /    A nd           | Website:  www.openfoam.com                      |
|    \\/     M anipulation  |                                                 |
\*---------------------------------------------------------------------------*/
FoamFile
{
    version     2.0;
    format      ascii;
    arch        "LSB;label=32;scalar=64";
    class       volVectorField;
    location    "9.5";
    object      U_0;
}
// * * * * * * * * * * * * * * * * * * * * * * * * * * * * * * * * * * * * * //

dimensions      [0 1 -1 0 0 0 0];

internalField   nonuniform List<vector> 
60000
(
(0.00632565 1.74099e-05 -0.000615348)
(0.00658005 2.41863e-05 -0.000323279)
(0.00690525 2.87525e-05 -0.000171651)
(0.00736202 2.5743e-05 1.45772e-05)
(0.0079227 2.10849e-05 0.000405333)
(0.0084812 2.04635e-05 0.000998532)
(0.00882912 2.32983e-05 0.00167419)
(0.00879608 2.82276e-05 0.00226586)
(0.00844143 3.15909e-05 0.00259219)
(0.00801122 2.95406e-05 0.00257739)
(0.00768847 2.57304e-05 0.00229835)
(0.0074684 2.0692e-05 0.00191026)
(0.0072711 1.39574e-05 0.00157706)
(0.00703848 5.21539e-06 0.00138207)
(0.00673403 -2.04404e-06 0.00130089)
(0.0063263 -6.18553e-06 0.0012814)
(0.00584839 -4.28127e-06 0.00128168)
(0.00544529 -2.33654e-06 0.00124391)
(0.00526164 -1.15959e-06 0.00112757)
(0.00527659 -9.11039e-08 0.000875801)
(0.00536992 -2.37511e-06 0.00053203)
(0.00551137 -1.13652e-05 0.000227725)
(0.00576082 -1.45092e-05 1.16344e-05)
(0.00610143 -1.22621e-05 -0.00017143)
(0.00645158 -9.10642e-07 -0.000290779)
(0.00677469 1.67128e-05 -0.000260141)
(0.00708112 2.52812e-05 -0.00017261)
(0.00734963 2.45349e-05 -0.000241193)
(0.00757787 7.16453e-06 -0.000637314)
(0.00783919 -2.20039e-05 -0.00134289)
(0.00813291 -4.03819e-05 -0.00203272)
(0.00827572 -3.51165e-05 -0.00236802)
(0.00812732 -2.09168e-05 -0.00237046)
(0.00773844 -5.97585e-06 -0.00233787)
(0.00720053 9.03201e-06 -0.00236112)
(0.00658906 1.62433e-05 -0.00230089)
(0.00603901 1.15435e-05 -0.00213428)
(0.00574898 5.47004e-06 -0.00189835)
(0.00580398 3.05343e-06 -0.00154323)
(0.00605824 7.84124e-06 -0.00106864)
(0.0187163 9.52253e-05 -0.00164976)
(0.0195935 0.000118453 -0.00091987)
(0.0207853 0.000104675 -0.000471516)
(0.0223207 6.97861e-05 0.000140783)
(0.024065 5.82936e-05 0.00128131)
(0.0257424 8.94008e-05 0.00288575)
(0.0268093 0.000163104 0.00463378)
(0.0267887 0.000242878 0.00610233)
(0.0257872 0.000278311 0.00686521)
(0.0244813 0.000248146 0.00674772)
(0.0234637 0.000189886 0.00596319)
(0.0228064 0.000133087 0.00494466)
(0.0222841 8.51541e-05 0.0040891)
(0.0216618 4.08e-05 0.00356127)
(0.0207729 2.58589e-06 0.00331484)
(0.0195638 -2.41741e-05 0.00326182)
(0.0182024 -4.88031e-05 0.00327399)
(0.0170498 -8.52229e-05 0.00316079)
(0.0164082 -0.000114342 0.00279596)
(0.0162518 -0.00011856 0.00212982)
(0.0163727 -0.000119273 0.00133024)
(0.0167045 -0.000136406 0.000647732)
(0.0173104 -0.000123047 0.000126022)
(0.0181219 -7.12853e-05 -0.000309543)
(0.0190133 1.01632e-05 -0.000540238)
(0.0199667 7.27651e-05 -0.000454719)
(0.0210234 6.82521e-05 -0.000318009)
(0.0221409 -1.33399e-05 -0.000612475)
(0.0232984 -0.000170518 -0.00169468)
(0.0244951 -0.000332269 -0.00343843)
(0.0254435 -0.000359681 -0.00511407)
(0.0256441 -0.000226895 -0.0060001)
(0.0249422 -5.5568e-05 -0.00615996)
(0.0236696 7.87859e-05 -0.00614787)
(0.0221674 0.000142937 -0.0060909)
(0.0205987 0.00012268 -0.00585353)
(0.0191113 4.23509e-05 -0.00548189)
(0.0180383 -2.20879e-05 -0.00492996)
(0.0177224 -2.4198e-05 -0.00400363)
(0.0180595 3.11999e-05 -0.00277691)
(0.0309956 0.000213665 -0.00299614)
(0.0324472 0.000241559 -0.00192496)
(0.0345403 0.000172155 -0.00126129)
(0.0372125 6.96149e-05 -0.000346357)
(0.0402241 4.2891e-05 0.00137406)
(0.0432021 0.000121877 0.00382311)
(0.0453525 0.000302918 0.00650688)
(0.0458184 0.00050413 0.00879946)
(0.0444833 0.000610059 0.0101083)
(0.0422754 0.00056083 0.0101332)
(0.0403479 0.000428447 0.00910753)
(0.0391013 0.00028998 0.00765963)
(0.0382525 0.000174705 0.0063755)
(0.0373482 7.43564e-05 0.00547995)
(0.0360382 -1.22596e-05 0.00495182)
(0.0342092 -7.57676e-05 0.00476774)
(0.032074 -0.000147875 0.004793)
(0.0300703 -0.00024851 0.00469779)
(0.0286398 -0.000328403 0.00421571)
(0.0279177 -0.000344244 0.00329539)
(0.027764 -0.000338992 0.00220868)
(0.0280824 -0.000349671 0.00128011)
(0.0288755 -0.000287089 0.000538176)
(0.0300127 -0.000129135 -8.81549e-05)
(0.0313637 5.97421e-05 -0.000397488)
(0.0329622 0.000150235 -0.000239614)
(0.0348918 5.16325e-05 3.48665e-05)
(0.0370629 -0.000229688 -0.000235049)
(0.0393839 -0.00066518 -0.00159351)
(0.0417708 -0.00104062 -0.00400727)
(0.0436376 -0.00104458 -0.00659601)
(0.0441062 -0.000656898 -0.00828081)
(0.0429939 -0.000188172 -0.00892232)
(0.0409721 0.000162335 -0.00907713)
(0.0386982 0.000299541 -0.00893971)
(0.0363995 0.000225706 -0.00854917)
(0.0340304 4.03065e-05 -0.00811278)
(0.0318003 -8.45972e-05 -0.00751063)
(0.0304035 -5.87358e-05 -0.00633637)
(0.030223 7.91814e-05 -0.0046273)
(0.0429045 0.000315563 -0.0049642)
(0.0445729 0.000335718 -0.00374146)
(0.0473601 0.000159091 -0.00307805)
(0.0510445 -7.5463e-05 -0.00215936)
(0.0553206 -0.000187225 -0.000182425)
(0.0597967 -4.18753e-05 0.00290478)
(0.0635721 0.000288939 0.00650351)
(0.0653428 0.000666163 0.00977018)
(0.0644041 0.000916468 0.0119495)
(0.0615308 0.000907271 0.0125732)
(0.0584705 0.000716464 0.0117461)
(0.0563495 0.000477812 0.0101783)
(0.0550844 0.000270159 0.00863707)
(0.0540174 9.68811e-05 0.00739804)
(0.0525523 -4.23997e-05 0.00644993)
(0.0504364 -0.000144945 0.0059298)
(0.047791 -0.000265942 0.00587872)
(0.0449239 -0.000439743 0.00590221)
(0.0423021 -0.000591525 0.00550124)
(0.0403893 -0.000645386 0.00450335)
(0.0393896 -0.000656077 0.00326389)
(0.039286 -0.000669954 0.00221552)
(0.0399935 -0.000538041 0.00136671)
(0.0412729 -0.000214483 0.000615961)
(0.0429692 0.000115766 0.000259564)
(0.0451648 0.000212514 0.000563709)
(0.0479802 -6.22162e-05 0.00120073)
(0.0511956 -0.000682995 0.00140573)
(0.0545586 -0.00157064 0.000415681)
(0.0581072 -0.00228106 -0.00213168)
(0.0612944 -0.002249 -0.00559801)
(0.0627315 -0.00147304 -0.00853152)
(0.0618495 -0.000543383 -0.0102302)
(0.0595266 0.000158014 -0.010983)
(0.0568133 0.000442082 -0.0109832)
(0.0541063 0.000318713 -0.0104876)
(0.051112 1.22358e-06 -0.0100302)
(0.0475941 -0.000188513 -0.00959344)
(0.0443631 -0.000129907 -0.00857978)
(0.042691 0.000100575 -0.00681353)
(0.0547624 0.000350731 -0.00742631)
(0.0557079 0.000339837 -0.006458)
(0.0584533 6.61405e-07 -0.00621048)
(0.0625499 -0.000487927 -0.00578375)
(0.0676936 -0.000840225 -0.0041183)
(0.0736207 -0.000719579 -0.00086261)
(0.0795596 -0.000128447 0.00358199)
(0.0837728 0.000540187 0.00815601)
(0.0845583 0.00104184 0.0117435)
(0.0818991 0.00118042 0.0135942)
(0.0777959 0.00100299 0.0135526)
(0.074461 0.000674629 0.0122919)
(0.0725339 0.000355408 0.0108096)
(0.0713289 9.09054e-05 0.00946624)
(0.0699644 -0.000102367 0.00812713)
(0.0679619 -0.000229231 0.00703896)
(0.0652621 -0.000368548 0.00664746)
(0.061859 -0.000579141 0.00674508)
(0.0579432 -0.000787458 0.00658774)
(0.0542027 -0.000910792 0.0056841)
(0.0514657 -0.00100992 0.00439146)
(0.0501501 -0.00110202 0.00334277)
(0.0502578 -0.000922068 0.00255512)
(0.0513927 -0.000381401 0.00181483)
(0.0532365 0.000152395 0.00149414)
(0.0558413 0.00025823 0.00205347)
(0.0593431 -0.000265394 0.00326732)
(0.0632802 -0.00140245 0.00434824)
(0.0669207 -0.00297867 0.00444351)
(0.0707158 -0.00428882 0.00273769)
(0.0753596 -0.00433698 -0.00102333)
(0.0791461 -0.00299786 -0.00555273)
(0.0800257 -0.00133551 -0.00921213)
(0.0784765 -8.92936e-05 -0.0114631)
(0.0759558 0.000500911 -0.0121993)
(0.0732653 0.00039713 -0.0117928)
(0.0701076 -4.85037e-05 -0.0112859)
(0.0657049 -0.000305144 -0.0110442)
(0.0604518 -0.000222049 -0.0104231)
(0.0562989 7.61804e-05 -0.00902938)
(0.0680002 0.000344145 -0.00957297)
(0.0670139 0.000259784 -0.00927138)
(0.0684094 -0.000338111 -0.0099584)
(0.0714346 -0.00124227 -0.0106519)
(0.0759211 -0.00206285 -0.0101043)
(0.0819733 -0.00229381 -0.00778259)
(0.0896887 -0.0016244 -0.00347059)
(0.0976358 -0.000372044 0.00241049)
(0.102346 0.000745857 0.00823044)
(0.101872 0.00124174 0.0122785)
(0.097694 0.00121143 0.0138565)
(0.0930939 0.000848837 0.0134564)
(0.0901777 0.000412534 0.0124199)
(0.0887132 3.26093e-05 0.0114373)
(0.0875625 -0.000223617 0.0101277)
(0.0859693 -0.00035417 0.0084843)
(0.0837282 -0.000460696 0.00739381)
(0.0805211 -0.000631004 0.00726308)
(0.075925 -0.000812859 0.00734385)
(0.0703276 -0.000970631 0.0066681)
(0.0650256 -0.00123066 0.0053711)
(0.0612429 -0.00156466 0.00435075)
(0.0596889 -0.00145565 0.00377952)
(0.0600854 -0.000685586 0.00325677)
(0.0617073 0.00015355 0.00312353)
(0.0643522 0.000328037 0.00404014)
(0.0681673 -0.000517587 0.00587076)
(0.0725158 -0.00231406 0.00775371)
(0.0758169 -0.00476942 0.00896625)
(0.0779035 -0.00702702 0.00897829)
(0.081809 -0.00760931 0.00676169)
(0.0885484 -0.00594861 0.00186943)
(0.094001 -0.00317947 -0.00427495)
(0.0956501 -0.000866882 -0.00941493)
(0.0947243 0.000334775 -0.012103)
(0.0927451 0.000424011 -0.012427)
(0.0899593 -8.08136e-05 -0.0119912)
(0.0854586 -0.000386342 -0.0118859)
(0.0789219 -0.00027052 -0.0116142)
(0.0722259 6.5261e-05 -0.0106629)
(0.0838303 0.000386333 -0.0106111)
(0.0808928 0.000202208 -0.0107065)
(0.0805646 -0.000754418 -0.0122619)
(0.081135 -0.00224884 -0.0144159)
(0.0824945 -0.00374817 -0.0156292)
(0.0855585 -0.00459229 -0.0152127)
(0.0913597 -0.00433463 -0.0129017)
(0.100912 -0.00293745 -0.00792155)
(0.111777 -0.000966605 -0.00039314)
(0.11751 0.000624697 0.00703651)
(0.11604 0.00116371 0.011609)
(0.111131 0.000945286 0.0129486)
(0.10715 0.000414848 0.0127123)
(0.105312 -0.000116231 0.0124723)
(0.104388 -0.000470051 0.0119439)
(0.103235 -0.000580489 0.0103729)
(0.101704 -0.000599436 0.00852932)
(0.0995046 -0.000650741 0.00770814)
(0.0955441 -0.000690134 0.00774501)
(0.0892501 -0.000743085 0.00731756)
(0.081637 -0.00109558 0.00605029)
(0.0743912 -0.00180311 0.00496926)
(0.0694674 -0.00200562 0.00460431)
(0.0678478 -0.00110244 0.00442733)
(0.0685961 0.000124836 0.00458372)
(0.0708547 0.000457894 0.00586799)
(0.0746184 -0.000722214 0.0081979)
(0.07951 -0.00315569 0.0104226)
(0.083721 -0.00628854 0.0116742)
(0.0848251 -0.00939565 0.0125074)
(0.084507 -0.0110492 0.0131587)
(0.0890307 -0.00998664 0.0112918)
(0.0984705 -0.00668864 0.00524543)
(0.106638 -0.00295728 -0.00303845)
(0.110322 -0.000455949 -0.00934952)
(0.110564 0.000271523 -0.0118105)
(0.10872 -8.35516e-05 -0.0120772)
(0.104845 -0.000371397 -0.0122066)
(0.0983098 -0.000236375 -0.0122074)
(0.0902777 0.000131815 -0.0114882)
(0.100733 0.000606911 -0.0105225)
(0.0971202 0.000250118 -0.0102198)
(0.096652 -0.000906023 -0.0116954)
(0.0959075 -0.00286317 -0.0147957)
(0.0931506 -0.00511647 -0.0179757)
(0.0906531 -0.0068092 -0.0198263)
(0.0912408 -0.00733099 -0.0197984)
(0.0966589 -0.00647971 -0.0173797)
(0.108267 -0.00443167 -0.0115265)
(0.121694 -0.00177372 -0.0025528)
(0.127844 9.17931e-05 0.0057715)
(0.12568 0.000601917 0.0101127)
(0.121463 0.000289465 0.0111425)
(0.11952 -0.000333216 0.0115618)
(0.11922 -0.000876748 0.0122341)
(0.118502 -0.00103204 0.0118498)
(0.11732 -0.000886147 0.0100583)
(0.116365 -0.000718923 0.00843474)
(0.114446 -0.000564538 0.00797431)
(0.10963 -0.000381852 0.0076114)
(0.101698 -0.000606673 0.0063811)
(0.0917257 -0.00156934 0.00516617)
(0.0821609 -0.00226184 0.00488103)
(0.0764965 -0.00148032 0.00500871)
(0.0751967 9.97306e-05 0.00539984)
(0.0766443 0.000734263 0.0069449)
(0.0800877 -0.00054124 0.00967459)
(0.0853162 -0.00338455 0.012067)
(0.0914385 -0.00680749 0.012612)
(0.0951908 -0.0100428 0.0123491)
(0.093392 -0.0125115 0.0141055)
(0.0908524 -0.0129961 0.0168214)
(0.0962716 -0.0106085 0.0151303)
(0.108001 -0.00642525 0.00724978)
(0.118618 -0.00240927 -0.00248207)
(0.123739 -0.000431739 -0.00870872)
(0.123821 -0.000295583 -0.0110261)
(0.120917 -0.000364322 -0.0118531)
(0.115494 -9.48308e-06 -0.0121744)
(0.107866 0.0004385 -0.0115886)
(0.113536 0.000802979 -0.0089541)
(0.111245 0.000493564 -0.00781396)
(0.112553 -0.000575553 -0.0082487)
(0.113604 -0.00247053 -0.0113213)
(0.109596 -0.00503102 -0.0160415)
(0.101674 -0.00756221 -0.0204327)
(0.0958103 -0.0091829 -0.0229108)
(0.0952844 -0.00943905 -0.0225999)
(0.101618 -0.00824459 -0.0190766)
(0.115325 -0.0056441 -0.0117909)
(0.129049 -0.00259904 -0.0020694)
(0.133152 -0.000805145 0.00542158)
(0.130032 -0.000541555 0.00817803)
(0.128074 -0.000936975 0.00865562)
(0.129577 -0.001402 0.009844)
(0.130533 -0.00162664 0.0111445)
(0.129156 -0.00149798 0.0107923)
(0.128241 -0.00110711 0.0092558)
(0.128768 -0.000583217 0.00823781)
(0.127742 -8.90123e-05 0.00767373)
(0.122789 -9.07915e-05 0.00640776)
(0.113172 -0.000957713 0.00498612)
(0.0999939 -0.00197353 0.00466943)
(0.0886251 -0.00153353 0.00510956)
(0.0832501 0.000162883 0.00577094)
(0.0829496 0.00113381 0.00740597)
(0.0859353 -1.79068e-05 0.0100462)
(0.0912234 -0.00306146 0.0121199)
(0.0981306 -0.006699 0.0119762)
(0.104603 -0.00960825 0.0104762)
(0.106246 -0.0116667 0.0114712)
(0.101364 -0.0131977 0.0165093)
(0.0981989 -0.0129881 0.0202144)
(0.105417 -0.0100119 0.0164588)
(0.119401 -0.00548264 0.00668047)
(0.130501 -0.00186053 -0.0029017)
(0.132417 -0.000523826 -0.00840113)
(0.127947 -0.000254151 -0.0103926)
(0.122928 8.17037e-05 -0.0107313)
(0.118258 0.00055056 -0.0101776)
(0.113093 0.000614774 -0.0045166)
(0.114241 0.000343016 -0.00247017)
(0.119291 -0.000466849 -0.00146344)
(0.125771 -0.00166445 -0.00405576)
(0.126024 -0.00355993 -0.0101289)
(0.117091 -0.00624145 -0.0170506)
(0.105834 -0.00885863 -0.0226239)
(0.099794 -0.010332 -0.0250227)
(0.100278 -0.0105254 -0.023423)
(0.108151 -0.00925182 -0.0180938)
(0.122741 -0.00641104 -0.00931201)
(0.134779 -0.00316897 3.54398e-05)
(0.135849 -0.00181458 0.00510281)
(0.131858 -0.00230833 0.00556099)
(0.132705 -0.00285839 0.00579061)
(0.137348 -0.00245768 0.00774352)
(0.137829 -0.00172522 0.00927103)
(0.134391 -0.00137457 0.00900313)
(0.133591 -0.00110177 0.00810381)
(0.136562 -0.000487318 0.00748002)
(0.138555 2.64267e-05 0.00631383)
(0.134542 -0.000347834 0.00466463)
(0.122098 -0.00118575 0.00405635)
(0.105979 -0.000945031 0.00480482)
(0.0946861 0.000543775 0.00605416)
(0.0909821 0.00150931 0.00773469)
(0.0929966 0.000321134 0.0096043)
(0.0984437 -0.00289574 0.0104513)
(0.105757 -0.00654801 0.00914723)
(0.113209 -0.00906114 0.00650922)
(0.117529 -0.0101472 0.00672695)
(0.115167 -0.0110917 0.0125672)
(0.107847 -0.0125187 0.0198841)
(0.106439 -0.0122852 0.020813)
(0.116975 -0.00895567 0.0132457)
(0.13018 -0.00402212 0.00243844)
(0.133391 -0.000419164 -0.00569641)
(0.126032 0.000832329 -0.00875438)
(0.117852 0.000728971 -0.00810061)
(0.114108 0.000569134 -0.00632786)
(0.109408 0.000675611 -0.000275058)
(0.109813 0.000118618 0.00344544)
(0.114286 -0.000778526 0.00678196)
(0.124754 -0.00150742 0.00594917)
(0.133713 -0.00210438 -0.000975942)
(0.130977 -0.00371915 -0.0105345)
(0.118752 -0.00673686 -0.0189693)
(0.107718 -0.00930897 -0.0246712)
(0.104034 -0.0104649 -0.0259958)
(0.106647 -0.0107382 -0.0228203)
(0.115394 -0.00981748 -0.0158359)
(0.129497 -0.00697545 -0.00649162)
(0.139994 -0.00371996 0.00110986)
(0.139471 -0.00301224 0.00357387)
(0.134745 -0.00442548 0.00321827)
(0.136314 -0.00458566 0.00415761)
(0.141266 -0.00242195 0.00630788)
(0.140902 -0.000404654 0.00741521)
(0.136658 -0.000303787 0.00715162)
(0.135661 -0.00122017 0.00663278)
(0.140822 -0.0016946 0.00601748)
(0.146593 -0.00136278 0.0046716)
(0.14243 -0.000634784 0.00351666)
(0.127111 0.00039995 0.00403046)
(0.110971 0.00163877 0.00610747)
(0.102552 0.00195435 0.00852771)
(0.102158 7.95086e-05 0.00984411)
(0.106472 -0.00370747 0.00911108)
(0.113372 -0.00730314 0.0061851)
(0.121587 -0.0089807 0.00178701)
(0.127656 -0.00875722 0.000131269)
(0.127504 -0.00835156 0.00575914)
(0.120132 -0.00952401 0.0157244)
(0.112341 -0.0117545 0.0210492)
(0.115323 -0.0111791 0.0165762)
(0.125735 -0.00636086 0.00617757)
(0.130079 -0.000567389 -0.00325517)
(0.124135 0.00233049 -0.00762043)
(0.115561 0.00215997 -0.00689908)
(0.110774 0.00113333 -0.00370033)
(0.112556 0.00156639 -0.00137476)
(0.109783 0.000720833 0.00362489)
(0.109957 -0.000820191 0.00928524)
(0.117608 -0.00188691 0.0122708)
(0.131091 -0.00152502 0.00776326)
(0.137915 -0.0012526 -0.00274459)
(0.131508 -0.00339061 -0.013129)
(0.1187 -0.00678241 -0.0209428)
(0.110058 -0.00900337 -0.0254515)
(0.109588 -0.010084 -0.0256119)
(0.114249 -0.0108731 -0.0213674)
(0.123463 -0.0105601 -0.0134709)
(0.136411 -0.00793266 -0.00456863)
(0.144515 -0.00486201 0.00100245)
(0.141941 -0.00444587 0.00227537)
(0.136533 -0.00545883 0.0024056)
(0.137664 -0.00431754 0.00382095)
(0.142202 -0.00107699 0.00565633)
(0.143088 0.00114756 0.00633157)
(0.139768 0.000229129 0.00581384)
(0.138402 -0.0030984 0.00522978)
(0.144628 -0.00506286 0.00471549)
(0.151077 -0.00277149 0.00359165)
(0.14517 0.00126697 0.0031184)
(0.13047 0.00359297 0.00536181)
(0.118941 0.00310572 0.00938534)
(0.114751 0.000103769 0.0112651)
(0.115008 -0.00448249 0.00886385)
(0.118189 -0.00888891 0.00410527)
(0.125868 -0.0105449 -0.00123109)
(0.134753 -0.00875104 -0.00501068)
(0.137464 -0.00617856 -0.00184538)
(0.131528 -0.00589394 0.00891849)
(0.121272 -0.00879141 0.0184007)
(0.116815 -0.0110255 0.0181628)
(0.121276 -0.0079108 0.00969354)
(0.12548 -0.00121056 7.03358e-05)
(0.124005 0.00318714 -0.00614001)
(0.1197 0.00360426 -0.00765624)
(0.115789 0.00235495 -0.00540086)
(0.120787 0.003135 -0.00564606)
(0.116084 0.00208012 -0.00187932)
(0.11286 -0.000468421 0.0035349)
(0.115483 -0.00269826 0.00915462)
(0.12659 -0.00211285 0.00953308)
(0.138748 6.65592e-05 0.00219782)
(0.140554 -7.63258e-05 -0.00758321)
(0.131143 -0.00319353 -0.0156584)
(0.119322 -0.0063021 -0.0218079)
(0.114372 -0.00831025 -0.0252533)
(0.117236 -0.0101162 -0.024673)
(0.123708 -0.0118847 -0.0194974)
(0.132787 -0.011705 -0.0107356)
(0.142279 -0.00862513 -0.00253822)
(0.145129 -0.0055614 0.00129051)
(0.140598 -0.00480499 0.00168319)
(0.136779 -0.00458625 0.00218139)
(0.138813 -0.00284818 0.00428777)
(0.143738 -4.80488e-05 0.00641042)
(0.145993 0.00133789 0.00665856)
(0.14376 -0.00153292 0.00542006)
(0.142301 -0.00651224 0.00428466)
(0.146855 -0.00678853 0.00340701)
(0.150655 -0.00123291 0.00250018)
(0.146031 0.00377617 0.00412404)
(0.136845 0.00433478 0.00919086)
(0.129346 0.00175855 0.012326)
(0.124572 -0.00228806 0.00883217)
(0.122043 -0.00741201 0.00197056)
(0.125469 -0.0113997 -0.00330824)
(0.135827 -0.0105858 -0.00675827)
(0.143298 -0.00613002 -0.00649328)
(0.140554 -0.00341241 0.0017962)
(0.130674 -0.00497454 0.0135987)
(0.121813 -0.00841734 0.0181541)
(0.119969 -0.00768965 0.0127808)
(0.121928 -0.0020489 0.00379176)
(0.123528 0.00292604 -0.00366665)
(0.124496 0.00426893 -0.00767899)
(0.123897 0.00368776 -0.00795825)
(0.130428 0.00460208 -0.00905422)
(0.127173 0.00404186 -0.00777954)
(0.122991 0.000941974 -0.0042914)
(0.121058 -0.00265518 0.00112784)
(0.126251 -0.003079 0.00470065)
(0.138182 -0.00019518 0.00242621)
(0.146356 0.00184821 -0.00392671)
(0.142427 0.000268263 -0.0108767)
(0.130563 -0.00274707 -0.0173648)
(0.121648 -0.00550239 -0.0226136)
(0.121502 -0.00827952 -0.0250402)
(0.127214 -0.0114827 -0.0232746)
(0.134098 -0.0134553 -0.0164902)
(0.140944 -0.0115952 -0.00713786)
(0.14477 -0.00728905 -0.000692229)
(0.142995 -0.00441937 0.000883935)
(0.139128 -0.00372354 0.000936314)
(0.138065 -0.00323487 0.00305792)
(0.141179 -0.00169461 0.00688689)
(0.146382 0.000254883 0.00908918)
(0.149626 -0.000250226 0.00757404)
(0.147876 -0.00430323 0.00414833)
(0.144856 -0.00726093 0.00221337)
(0.145489 -0.00464277 0.00255715)
(0.145846 0.000355931 0.00527001)
(0.141392 0.00297959 0.00991554)
(0.135024 0.00271207 0.0119126)
(0.13076 0.000510455 0.00729252)
(0.127875 -0.00380305 -0.000513056)
(0.127776 -0.00937696 -0.00515607)
(0.135159 -0.0115801 -0.00628154)
(0.14518 -0.00788026 -0.0064113)
(0.146558 -0.00323662 -0.00219195)
(0.1387 -0.00242525 0.00812807)
(0.128567 -0.00479184 0.0162011)
(0.122607 -0.00523503 0.01491)
(0.121662 -0.00155564 0.0075813)
(0.123635 0.00232049 -4.28949e-05)
(0.127464 0.00350608 -0.00561563)
(0.130621 0.00387577 -0.00853884)
(0.134315 0.00395871 -0.00930131)
(0.135692 0.00434638 -0.0102747)
(0.134064 0.00220015 -0.00810833)
(0.129854 -0.00129855 -0.00359937)
(0.128702 -0.00295004 0.00047907)
(0.136 -0.0011846 0.00128975)
(0.146966 0.00174304 -0.00156824)
(0.14985 0.002441 -0.00684791)
(0.141547 0.000789897 -0.0132776)
(0.131178 -0.00186155 -0.0193728)
(0.127737 -0.00535815 -0.0233781)
(0.131794 -0.00976661 -0.0242313)
(0.138094 -0.0135674 -0.0206667)
(0.143174 -0.013455 -0.0124808)
(0.145875 -0.00898734 -0.00427508)
(0.144953 -0.00428066 -0.000694189)
(0.141912 -0.0022993 -9.53235e-05)
(0.139901 -0.0022141 0.00210751)
(0.140827 -0.0021865 0.00700252)
(0.145129 -0.00140034 0.0107931)
(0.150691 -0.000909228 0.00955258)
(0.15204 -0.00239753 0.00484071)
(0.14682 -0.00490681 0.00206884)
(0.140039 -0.00541462 0.00325208)
(0.13567 -0.00297134 0.00613731)
(0.133175 0.000275962 0.00845665)
(0.132925 0.00243118 0.00808149)
(0.134311 0.00255568 0.00342914)
(0.134252 -0.000397332 -0.00328561)
(0.133105 -0.00625612 -0.00687639)
(0.136797 -0.0109205 -0.00613742)
(0.145943 -0.00964819 -0.00443853)
(0.150104 -0.00466821 -0.00182523)
(0.144081 -0.00188496 0.00512282)
(0.134071 -0.00215055 0.0128817)
(0.127138 -0.00203312 0.0142706)
(0.125227 0.000470692 0.00946796)
(0.12632 0.00297193 0.00338535)
(0.1286 0.0032415 -0.00168554)
(0.131514 0.00302398 -0.00600779)
(0.128866 0.00269064 -0.00540101)
(0.133386 0.0027883 -0.00644617)
(0.136165 0.00199792 -0.00445916)
(0.133916 0.000218936 -0.00141602)
(0.129857 -0.00112274 0.00103342)
(0.131562 -0.000669922 0.00206092)
(0.141011 0.00123369 0.000764198)
(0.149458 0.00310899 -0.00351375)
(0.147708 0.00345794 -0.00986591)
(0.139782 0.00215792 -0.0161425)
(0.135505 -0.0011587 -0.0206191)
(0.138035 -0.0065008 -0.0228442)
(0.14335 -0.0118663 -0.022182)
(0.147325 -0.0136021 -0.0170483)
(0.148814 -0.0102105 -0.00911351)
(0.147624 -0.00482438 -0.00322298)
(0.144941 -0.00123732 -0.000641858)
(0.143004 -0.00039541 0.00154531)
(0.143056 -0.00104615 0.0055597)
(0.145198 -0.00171396 0.00966336)
(0.148763 -0.00199691 0.0101411)
(0.150727 -0.00232253 0.00651404)
(0.147322 -0.00283752 0.00262413)
(0.139554 -0.00303043 0.00166112)
(0.132697 -0.00255758 0.00289318)
(0.130901 -0.00162456 0.00414398)
(0.134217 -0.000157788 0.00361431)
(0.138263 0.00155696 0.000134278)
(0.13854 0.00131463 -0.00431192)
(0.136413 -0.00308412 -0.00604425)
(0.137563 -0.00921073 -0.00472812)
(0.144432 -0.010698 -0.00263289)
(0.150172 -0.00653371 -0.000194588)
(0.147547 -0.00263503 0.00469348)
(0.139542 -0.00128653 0.0104476)
(0.132612 -3.59427e-05 0.0119481)
(0.129249 0.00260697 0.00898853)
(0.127742 0.004884 0.00532645)
(0.126432 0.00474352 0.00207942)
(0.126318 0.00327375 -0.00175046)
(0.124013 7.34547e-05 -0.000155153)
(0.128732 -0.000909907 -0.00131385)
(0.133439 -0.000902685 -0.000560282)
(0.134095 -0.000573543 0.00115267)
(0.130861 0.000105518 0.00293392)
(0.129136 0.00093986 0.00404731)
(0.13381 0.0019782 0.00315361)
(0.142915 0.00368557 -0.000565028)
(0.148617 0.0053726 -0.00609888)
(0.147641 0.00563047 -0.0114604)
(0.145663 0.00323765 -0.0157432)
(0.147784 -0.00221867 -0.0191423)
(0.151828 -0.00886976 -0.0210266)
(0.154005 -0.0122625 -0.0193106)
(0.153691 -0.00995243 -0.0133092)
(0.151245 -0.00477838 -0.00640553)
(0.147886 -0.000813275 -0.00167599)
(0.145762 0.00061165 0.00119393)
(0.145605 0.00041295 0.00413061)
(0.146249 -0.000516672 0.00748116)
(0.146679 -0.00185541 0.0090126)
(0.146182 -0.00264852 0.00706213)
(0.143553 -0.00200189 0.00315288)
(0.139154 -0.000696337 0.000405855)
(0.13593 -0.000709066 0.000235723)
(0.136315 -0.00231929 0.00171354)
(0.139446 -0.00292382 0.00229767)
(0.141414 -0.000774678 0.000120686)
(0.139624 0.00148719 -0.00265481)
(0.136698 -0.000264576 -0.00254445)
(0.136776 -0.00603207 -0.000473917)
(0.141522 -0.0100897 0.00102538)
(0.147881 -0.00853811 0.00246872)
(0.14974 -0.00454287 0.00558886)
(0.14548 -0.00125682 0.00922928)
(0.138591 0.00196813 0.00984525)
(0.132338 0.00551775 0.00746048)
(0.127231 0.0075446 0.00506271)
(0.123437 0.00627716 0.00369871)
(0.12211 0.00283166 0.00209501)
(0.124174 0.000993219 0.0061978)
(0.128029 -0.00122201 0.0047896)
(0.131511 -0.00188524 0.00405182)
(0.132363 -0.000927708 0.00392657)
(0.130408 0.00157296 0.00434952)
(0.128568 0.00415141 0.00540523)
(0.130233 0.00523742 0.00575673)
(0.135772 0.00509898 0.00352475)
(0.142382 0.0055479 -0.000962265)
(0.147734 0.00701524 -0.00564862)
(0.152464 0.00725632 -0.00941338)
(0.15772 0.00339549 -0.0129933)
(0.161774 -0.00367605 -0.0166348)
(0.162335 -0.00894264 -0.0182206)
(0.159848 -0.00836704 -0.0154082)
(0.155787 -0.0038112 -0.00954492)
(0.151566 -6.99055e-05 -0.00390406)
(0.14836 0.00124985 0.000129096)
(0.146455 0.00132003 0.00305756)
(0.145421 0.000881068 0.00556068)
(0.144271 -4.23385e-05 0.00709659)
(0.142015 -0.000710797 0.00630999)
(0.139213 -3.15078e-05 0.00324622)
(0.138233 0.00114117 0.000297685)
(0.140898 0.00028181 -0.000285389)
(0.14535 -0.00311608 0.00113462)
(0.147018 -0.00559886 0.00198529)
(0.143979 -0.00371218 0.00096286)
(0.139088 0.000406274 0.000844036)
(0.136534 0.00141498 0.00348138)
(0.137696 -0.00257846 0.00573707)
(0.141898 -0.0079343 0.00536739)
(0.147605 -0.00939998 0.00461023)
(0.151135 -0.00636807 0.00602911)
(0.149328 -0.00190234 0.00832928)
(0.142906 0.002465 0.00793385)
(0.134503 0.00664797 0.0052282)
(0.126847 0.00915189 0.00401716)
(0.122391 0.00826647 0.00547103)
(0.121848 0.00467538 0.00684227)
(0.124089 0.0033896 0.00934906)
(0.127837 0.0014104 0.00794701)
(0.132089 0.000670001 0.00618041)
(0.134829 0.00117084 0.00496745)
(0.134572 0.00307476 0.0047824)
(0.132777 0.00594356 0.00585476)
(0.132464 0.00821718 0.0069957)
(0.134649 0.00837209 0.00590306)
(0.138281 0.0066809 0.00238177)
(0.142905 0.00484902 -0.00125011)
(0.149487 0.00404125 -0.00371066)
(0.158005 0.0030468 -0.00660668)
(0.164778 0.000253954 -0.0109141)
(0.165925 -0.00314653 -0.0146741)
(0.163032 -0.00420713 -0.015158)
(0.159895 -0.00252469 -0.0121391)
(0.157572 -0.000356456 -0.00749733)
(0.155007 0.00114887 -0.00310936)
(0.151489 0.00201076 -9.2556e-05)
(0.147535 0.00190941 0.00161694)
(0.143784 0.000981266 0.00296795)
(0.140687 0.00048926 0.00425839)
(0.139132 0.00128469 0.00458753)
(0.140827 0.0021774 0.00328322)
(0.146883 0.000901772 0.00130447)
(0.154128 -0.00305246 0.000740057)
(0.15599 -0.00643323 0.00211353)
(0.150437 -0.00533662 0.00410418)
(0.143027 -0.000995385 0.00654003)
(0.139639 0.00186814 0.00904162)
(0.14049 0.000756947 0.00892443)
(0.143381 -0.00351142 0.00617413)
(0.147431 -0.00679077 0.0035554)
(0.150559 -0.00556061 0.00303381)
(0.149052 -0.000892308 0.00420375)
(0.142139 0.00421501 0.00468904)
(0.132763 0.00804682 0.00372269)
(0.125034 0.00978562 0.0039385)
(0.12148 0.00900925 0.00641505)
(0.121685 0.00634354 0.00892842)
(0.127285 0.00787483 0.00404146)
(0.13028 0.00563391 0.00407414)
(0.133679 0.00412327 0.00431425)
(0.135911 0.00335301 0.00430837)
(0.135889 0.00385068 0.00407326)
(0.134377 0.00588066 0.00422283)
(0.133469 0.00850921 0.00506001)
(0.134764 0.00978247 0.00566808)
(0.137904 0.00839171 0.00468208)
(0.141666 0.00485961 0.00201788)
(0.145835 0.00136321 -0.00126222)
(0.151455 -0.000658649 -0.00458509)
(0.158722 -0.00178138 -0.00784856)
(0.164695 -0.0025546 -0.0106863)
(0.166134 -0.00226325 -0.0123418)
(0.163917 -0.000901137 -0.0121085)
(0.161015 0.000462642 -0.00985734)
(0.158845 0.00151381 -0.00632276)
(0.156932 0.00264428 -0.0033193)
(0.154239 0.0035198 -0.00204292)
(0.150186 0.00326782 -0.00150498)
(0.145923 0.00169849 3.01278e-05)
(0.14378 -0.000498619 0.00262604)
(0.145107 -0.00287243 0.0043478)
(0.14939 -0.00551789 0.00398072)
(0.15394 -0.00845159 0.00295027)
(0.155164 -0.0102455 0.00381188)
(0.151638 -0.00832334 0.00647242)
(0.146118 -0.0021377 0.0084411)
(0.142165 0.00460258 0.00757228)
(0.140291 0.00687801 0.00380553)
(0.140211 0.00291113 -8.67331e-05)
(0.142499 -0.00328768 -0.00115277)
(0.145863 -0.00547878 6.87569e-05)
(0.146192 -0.00167229 0.00165017)
(0.141117 0.00462568 0.00258918)
(0.133248 0.00968709 0.00303907)
(0.127158 0.0123583 0.00366843)
(0.124812 0.0125667 0.00429686)
(0.125297 0.0106193 0.00431698)
(0.139662 0.0103919 -0.00652377)
(0.140351 0.00730769 -0.00728939)
(0.141329 0.00562779 -0.00528605)
(0.141405 0.0051482 -0.00176928)
(0.139097 0.00525306 0.00173955)
(0.135268 0.00554566 0.00454746)
(0.13255 0.00556046 0.00696168)
(0.132954 0.0046307 0.00918108)
(0.136622 0.00265733 0.0105275)
(0.142383 0.000207973 0.00997506)
(0.148562 -0.00201445 0.00698061)
(0.153886 -0.00342167 0.00173359)
(0.157596 -0.00364434 -0.00438708)
(0.158887 -0.00256823 -0.00914828)
(0.157473 -0.00045623 -0.0109276)
(0.154132 0.00180876 -0.0103702)
(0.15021 0.00327718 -0.00897083)
(0.147368 0.00357025 -0.00729223)
(0.146836 0.00273823 -0.0055429)
(0.148387 0.00143208 -0.00436142)
(0.150503 0.00103452 -0.004051)
(0.152067 0.00188054 -0.00382263)
(0.153126 0.00189743 -0.00254827)
(0.153946 -0.00107575 -0.00013833)
(0.154555 -0.00597082 0.00261261)
(0.15509 -0.00935678 0.00529724)
(0.154957 -0.00902583 0.00792137)
(0.152696 -0.00553717 0.00972342)
(0.14834 -0.000245718 0.00917166)
(0.144061 0.00459267 0.00554799)
(0.141602 0.00604202 0.000284311)
(0.141385 0.0029059 -0.00339404)
(0.143025 -0.00291039 -0.00293725)
(0.145241 -0.00688763 0.000678085)
(0.145634 -0.00525941 0.00410913)
(0.142716 0.000910305 0.00565064)
(0.138345 0.00796039 0.00560361)
(0.136043 0.0131501 0.004169)
(0.136766 0.0151568 0.00100149)
(0.138561 0.0137366 -0.00318749)
(0.153027 0.00771187 -0.00778793)
(0.153643 0.00475841 -0.0102182)
(0.152649 0.00383159 -0.0102505)
(0.150356 0.0049316 -0.00865733)
(0.147725 0.00645127 -0.00616102)
(0.146126 0.006861 -0.0031911)
(0.14634 0.00553189 0.000100984)
(0.147988 0.00281379 0.00381)