/*--------------------------------*- C++ -*----------------------------------*\
| =========                 |                                                 |
| \\      /  F ield         | OpenFOAM: The Open Source CFD Toolbox           |
|  \\    /   O peration     | Version:  2306                                  |
|   \\  /    A nd           | Website:  www.openfoam.com                      |
|    \\/     M anipulation  |                                                 |
\*---------------------------------------------------------------------------*/
FoamFile
{
    version     2.0;
    format      ascii;
    arch        "LSB;label=32;scalar=64";
    class       volVectorField;
    location    "9.5";
    object      UMean;
}
// * * * * * * * * * * * * * * * * * * * * * * * * * * * * * * * * * * * * * //

dimensions      [0 1 -1 0 0 0 0];

internalField   nonuniform List<vector> 
60000
(
(0.00876265 3.08099e-05 0.00112675)
(0.00905216 2.52802e-05 0.00135497)
(0.00925278 1.99124e-05 0.0015514)
(0.00936054 1.5229e-05 0.00174029)
(0.00936651 1.15096e-05 0.0018932)
(0.00923897 8.70287e-06 0.00195727)
(0.00895798 6.95331e-06 0.00191164)
(0.00854503 5.27452e-06 0.00177694)
(0.00806526 2.46297e-06 0.00159807)
(0.00759207 -1.43036e-06 0.00142741)
(0.0071597 -5.55081e-06 0.00130074)
(0.00677299 -8.46939e-06 0.00121543)
(0.00644077 -1.01649e-05 0.00114215)
(0.00617287 -1.06291e-05 0.00105333)
(0.00598217 -9.53517e-06 0.00093788)
(0.00587449 -7.2339e-06 0.000793361)
(0.00586178 -3.7972e-06 0.000619022)
(0.00595455 -5.23374e-07 0.000411632)
(0.00613787 2.20029e-06 0.000170305)
(0.0063827 4.41002e-06 -0.000100399)
(0.00668018 6.16797e-06 -0.00038789)
(0.00702824 7.29918e-06 -0.000675648)
(0.00740478 7.74219e-06 -0.000947168)
(0.00776002 7.35799e-06 -0.00118796)
(0.00803193 5.98618e-06 -0.00138778)
(0.00817461 3.54069e-06 -0.00156023)
(0.00818672 -7.76408e-07 -0.00173191)
(0.00808253 -6.08532e-06 -0.00191189)
(0.00787673 -1.0064e-05 -0.00208097)
(0.007599 -1.0122e-05 -0.00219631)
(0.00730006 -6.2462e-06 -0.00221381)
(0.00703088 -2.58247e-07 -0.00210774)
(0.00683224 6.7633e-06 -0.00188818)
(0.00673879 1.35102e-05 -0.00159168)
(0.00676903 1.95815e-05 -0.00124496)
(0.00692734 2.4029e-05 -0.000859235)
(0.00719932 2.83841e-05 -0.000443529)
(0.007563 3.24637e-05 -4.7497e-06)
(0.00798115 3.49023e-05 0.000436209)
(0.00839615 3.45126e-05 0.000825243)
(0.0265364 0.00012603 0.00299046)
(0.0275279 9.42832e-05 0.0035624)
(0.0282249 6.90798e-05 0.00407514)
(0.0286105 5.4098e-05 0.00458416)
(0.0286629 5.14568e-05 0.00500324)
(0.0282966 5.82866e-05 0.00518362)
(0.0274661 6.62873e-05 0.00506521)
(0.0262487 6.17095e-05 0.004709)
(0.0248394 3.64881e-05 0.00424148)
(0.0234411 -3.55177e-06 0.0037969)
(0.0221419 -4.3783e-05 0.00345795)
(0.02095 -7.58809e-05 0.00320992)
(0.0198917 -9.99142e-05 0.00298399)
(0.0190025 -0.000113881 0.00272827)
(0.0183326 -0.000114995 0.00242464)
(0.0179133 -0.000105196 0.00205726)
(0.017784 -8.91662e-05 0.00161023)
(0.0179765 -7.12369e-05 0.00107299)
(0.0184608 -5.22197e-05 0.00044641)
(0.0191714 -3.56327e-05 -0.000257408)
(0.0200833 -2.46821e-05 -0.00101539)
(0.021169 -1.8104e-05 -0.00179083)
(0.0223509 -1.52844e-05 -0.00252675)
(0.0234961 -1.92766e-05 -0.0031629)
(0.0244376 -3.19515e-05 -0.00366696)
(0.0250308 -5.50533e-05 -0.00408367)
(0.0252363 -8.61474e-05 -0.00449506)
(0.0250471 -0.000112819 -0.00493406)
(0.0244728 -0.000120894 -0.00535543)
(0.0235926 -0.000103019 -0.00565604)
(0.0225832 -6.4083e-05 -0.00572256)
(0.021649 -1.59843e-05 -0.00547246)
(0.0209482 3.13179e-05 -0.00490954)
(0.020587 7.10824e-05 -0.00412054)
(0.0206047 0.000102366 -0.00318752)
(0.0209982 0.000126683 -0.00215185)
(0.0217217 0.000149123 -0.00103835)
(0.02274 0.000165163 0.000123377)
(0.0239906 0.000167942 0.00126318)
(0.0253129 0.000154165 0.00224339)
(0.0446146 0.000205545 0.00414491)
(0.0464619 0.00012656 0.00500453)
(0.0478105 6.93928e-05 0.00577106)
(0.0486203 4.24114e-05 0.00656155)
(0.048862 4.81475e-05 0.00727244)
(0.0484115 7.8192e-05 0.00766509)
(0.0471991 0.000110152 0.00760301)
(0.045327 0.000110179 0.00714861)
(0.0430661 5.83932e-05 0.00649046)
(0.0407279 -3.2692e-05 0.00583405)
(0.0384941 -0.000126003 0.00530844)
(0.0364132 -0.000201797 0.00490286)
(0.0345266 -0.000260642 0.00453086)
(0.0328812 -0.000296542 0.00413474)
(0.0315644 -0.000302119 0.0037029)
(0.0306454 -0.00028094 0.00320941)
(0.0301998 -0.000246912 0.00261308)
(0.0302963 -0.000209489 0.00188495)
(0.0309239 -0.000169748 0.00101999)
(0.0320043 -0.000136881 2.88884e-05)
(0.033495 -0.000119202 -0.00107068)
(0.0353321 -0.000112434 -0.00224067)
(0.0373836 -0.00011624 -0.00338884)
(0.0394507 -0.000140994 -0.00439127)
(0.0412772 -0.000190738 -0.00516483)
(0.0425969 -0.000263918 -0.0057603)
(0.0432755 -0.000345741 -0.00631606)
(0.0432345 -0.000400524 -0.00692208)
(0.0424473 -0.000399077 -0.00755644)
(0.0410159 -0.000332502 -0.00809863)
(0.0392292 -0.000219632 -0.00837062)
(0.0374737 -9.15525e-05 -0.00819638)
(0.0360781 2.77481e-05 -0.00751811)
(0.0352567 0.000124356 -0.00643693)
(0.0350761 0.000197965 -0.00509587)
(0.0355253 0.000257592 -0.00358428)
(0.0365328 0.00031133 -0.00194181)
(0.0380787 0.000342508 -0.00021149)
(0.0401198 0.000333966 0.00150613)
(0.0424078 0.000284356 0.00300315)
(0.0621358 0.000184529 0.00415238)
(0.0649653 4.32013e-05 0.00530434)
(0.0671458 -5.25553e-05 0.00628813)
(0.0685953 -8.70118e-05 0.00732731)
(0.0692753 -5.78867e-05 0.00838071)
(0.0690364 2.12322e-05 0.00915271)
(0.0677772 0.000106073 0.00937585)
(0.0655804 0.000139023 0.00903198)
(0.0627138 8.09767e-05 0.00833435)
(0.0595345 -5.71972e-05 0.00756665)
(0.0563428 -0.000214561 0.00691841)
(0.0532993 -0.000349216 0.00638983)
(0.0504841 -0.000457806 0.00588523)
(0.0479363 -0.000529615 0.00535983)
(0.0457641 -0.000551076 0.00483898)
(0.0440783 -0.000526196 0.00431459)
(0.0429991 -0.00047927 0.00372227)
(0.0426489 -0.000430751 0.00299683)
(0.0430857 -0.000382278 0.00210928)
(0.04427 -0.000347595 0.00105657)
(0.0461641 -0.000340397 -0.000166801)
(0.0486659 -0.000350065 -0.00155763)
(0.0515855 -0.000374996 -0.00302573)
(0.0546705 -0.000436967 -0.0043826)
(0.0575963 -0.000546671 -0.00544997)
(0.0599609 -0.000692562 -0.00622733)
(0.0614838 -0.000844554 -0.00688503)
(0.0619689 -0.000931681 -0.00759658)
(0.0613291 -0.000901874 -0.00842078)
(0.0596422 -0.000748768 -0.00928447)
(0.0572226 -0.000520985 -0.00997814)
(0.0545893 -0.000281992 -0.0102049)
(0.0522854 -7.13315e-05 -0.00977604)
(0.0507223 9.35529e-05 -0.00874166)
(0.0500504 0.000215991 -0.00728319)
(0.050272 0.000314747 -0.00555409)
(0.051285 0.000406278 -0.00361932)
(0.0530936 0.000455685 -0.00152549)
(0.0557238 0.000429193 0.00062936)
(0.0589014 0.000330178 0.00259894)
(0.0777919 -5.37292e-05 0.00240277)
(0.0815736 -0.000260919 0.00392804)
(0.0846898 -0.000398667 0.00517089)
(0.0870097 -0.000431444 0.00645099)
(0.0884721 -0.000352914 0.00788591)
(0.0888904 -0.000183632 0.00922684)
(0.088106 1.0462e-06 0.01006)
(0.0861313 0.000111408 0.0101562)
(0.0831584 9.3007e-05 0.0096562)
(0.0794932 -5.70196e-05 0.00892852)
(0.0754992 -0.000267866 0.00827637)
(0.0715108 -0.000468943 0.00772377)
(0.0677285 -0.000638749 0.00713709)
(0.0641901 -0.00075912 0.00647768)
(0.0609913 -0.000810807 0.00584698)
(0.0582675 -0.000797327 0.00531839)
(0.0561757 -0.000752686 0.00484303)
(0.0548885 -0.00071455 0.00431454)
(0.0545617 -0.000690833 0.00366022)
(0.0552742 -0.000698229 0.00285532)
(0.0570782 -0.000752602 0.00186361)
(0.0598939 -0.00082933 0.000603226)
(0.0634848 -0.000910959 -0.000929207)
(0.0675296 -0.00103128 -0.00253818)
(0.0716504 -0.00121956 -0.00392839)
(0.0753136 -0.00145832 -0.00496994)
(0.0780561 -0.00170056 -0.00579336)
(0.0795338 -0.00182798 -0.00663558)
(0.0796104 -0.00174664 -0.00765806)
(0.0783431 -0.00145036 -0.00889761)
(0.0759377 -0.00103309 -0.0101987)
(0.0728016 -0.000625229 -0.0111729)
(0.0695812 -0.00030497 -0.0114442)
(0.066978 -8.15501e-05 -0.0109276)
(0.0653884 6.91263e-05 -0.00978583)
(0.0649451 0.000182871 -0.00822855)
(0.0655412 0.000294559 -0.00635593)
(0.0671782 0.000357384 -0.00421801)
(0.0699664 0.000311004 -0.00188488)
(0.0737026 0.000159156 0.000423398)
(0.0900551 -0.000707299 -0.00171724)
(0.0944144 -0.000968556 0.000249097)
(0.0982424 -0.0011558 0.00188946)
(0.101461 -0.00118591 0.0034564)
(0.104005 -0.00102471 0.00524938)
(0.105629 -0.000702968 0.00724646)
(0.106057 -0.000329907 0.00903037)
(0.105135 -4.82967e-05 0.0100636)
(0.102881 5.50969e-05 0.0101761)
(0.0994647 -3.72568e-05 0.00973107)
(0.095205 -0.000255973 0.00922915)
(0.0905541 -0.000512029 0.00881434)
(0.0859283 -0.000748957 0.00828976)
(0.0814536 -0.000924165 0.0075487)
(0.0772066 -0.00101236 0.00675682)
(0.0733133 -0.00101977 0.00613857)
(0.0699359 -0.000991068 0.00574988)
(0.0672489 -0.000983984 0.00547976)
(0.0654637 -0.00102716 0.00520664)
(0.0647991 -0.00114902 0.00489052)
(0.0654952 -0.001367 0.00449965)
(0.0676653 -0.0016272 0.0038763)
(0.0711919 -0.00187584 0.0028237)
(0.0757658 -0.00213809 0.00135825)
(0.0809379 -0.0024458 -0.000216327)
(0.086002 -0.00279244 -0.00159007)
(0.0902635 -0.00313038 -0.00273655)
(0.0931869 -0.00329736 -0.003857)
(0.0945976 -0.00314331 -0.00514288)
(0.0946114 -0.00264104 -0.00672901)
(0.09339 -0.00192607 -0.00863488)
(0.0909662 -0.00121401 -0.0105508)
(0.0876005 -0.000680203 -0.0119335)
(0.084098 -0.000374411 -0.0124507)
(0.0812397 -0.000238756 -0.0121501)
(0.0795349 -0.000179332 -0.0112706)
(0.0790355 -0.000115445 -0.00996496)
(0.0797691 -9.70512e-05 -0.00828816)
(0.0819708 -0.000209002 -0.00625187)
(0.0856106 -0.000433898 -0.00397)
(0.098428 -0.00191421 -0.0076732)
(0.102611 -0.00221105 -0.00545439)
(0.106278 -0.00243718 -0.00335311)
(0.109606 -0.0025081 -0.00142256)
(0.112928 -0.00229103 0.000608294)
(0.115955 -0.00178403 0.00303908)
(0.118202 -0.00115152 0.00573414)
(0.119323 -0.000587514 0.00806433)
(0.119056 -0.000204454 0.009365)
(0.117144 -7.74312e-05 0.00963879)
(0.113702 -0.000195046 0.00950112)
(0.109202 -0.000453707 0.0093812)
(0.104229 -0.000750201 0.00913416)
(0.0991223 -0.000981812 0.00851207)
(0.094043 -0.00109992 0.00762506)
(0.0891329 -0.00111921 0.00682353)
(0.084545 -0.00109932 0.00634849)
(0.080401 -0.00111825 0.00616657)
(0.0768684 -0.00124141 0.00612146)
(0.0742334 -0.00153627 0.00617102)
(0.0729157 -0.00203344 0.00636599)
(0.0733348 -0.00261803 0.0065781)
(0.0756554 -0.00315979 0.00646987)
(0.0797016 -0.00366698 0.00579278)
(0.0851416 -0.004177 0.00459764)
(0.0912257 -0.00465773 0.00315395)
(0.0969192 -0.00507558 0.00166849)
(0.10142 -0.00526718 0.000123204)
(0.104449 -0.00504071 -0.00152546)
(0.106116 -0.00433925 -0.00332343)
(0.106734 -0.00329671 -0.00546725)
(0.10631 -0.00218021 -0.00801476)
(0.104447 -0.00126507 -0.010537)
(0.101287 -0.000720958 -0.0124525)
(0.0976499 -0.000559889 -0.0134842)
(0.0945599 -0.000618072 -0.0137366)
(0.0925106 -0.000697981 -0.0134134)
(0.0915892 -0.000831281 -0.0126541)
(0.0921187 -0.00112736 -0.011449)
(0.0945193 -0.00153431 -0.00975887)
(0.105553 -0.00340048 -0.0128946)
(0.108767 -0.00376498 -0.0108421)
(0.111445 -0.00396899 -0.00859546)
(0.113449 -0.00409306 -0.00641659)
(0.115841 -0.00396094 -0.00428932)
(0.119138 -0.0033986 -0.00184035)
(0.122684 -0.00255262 0.00117262)
(0.125654 -0.00170028 0.00436225)
(0.127705 -0.00101108 0.00690155)
(0.12859 -0.000542011 0.00824576)
(0.127698 -0.000334963 0.00874386)
(0.124957 -0.000396576 0.00903654)
(0.120884 -0.000647706 0.00921745)
(0.115964 -0.000915386 0.0089971)
(0.110583 -0.00106162 0.00831249)
(0.105089 -0.00107638 0.00746609)
(0.0997648 -0.00104079 0.00682504)
(0.0947184 -0.0010578 0.0065085)
(0.089992 -0.00122233 0.00640591)
(0.0858095 -0.00164647 0.00648392)
(0.0826198 -0.00240451 0.00690142)
(0.0809955 -0.00334139 0.00769731)
(0.0814604 -0.00420309 0.00850416)
(0.0841325 -0.00495955 0.00884575)
(0.0887483 -0.00567468 0.00851294)
(0.094717 -0.00630012 0.00754322)
(0.100859 -0.00678568 0.00607591)
(0.105986 -0.00701507 0.00424348)
(0.109694 -0.00679935 0.00223788)
(0.112253 -0.00606548 0.000307325)
(0.114252 -0.00490578 -0.00163687)
(0.115961 -0.00349368 -0.00406146)
(0.11673 -0.00213711 -0.00707213)
(0.115721 -0.00115407 -0.0101615)
(0.112939 -0.000758608 -0.0127174)
(0.10942 -0.000866129 -0.0144271)
(0.106317 -0.00112148 -0.0153099)
(0.104077 -0.00143964 -0.0155674)
(0.102863 -0.00199642 -0.0152977)
(0.103237 -0.00275228 -0.0144259)
(0.113943 -0.00453165 -0.0150273)
(0.116007 -0.00507891 -0.0134674)
(0.117731 -0.00525237 -0.0115562)
(0.118292 -0.00536923 -0.00962332)
(0.11855 -0.00541173 -0.00774004)
(0.120127 -0.00504922 -0.00563249)
(0.123307 -0.00419352 -0.00290483)
(0.126859 -0.00316651 0.00036131)
(0.12978 -0.00229694 0.00346967)
(0.131975 -0.00165353 0.00566086)
(0.133488 -0.00116383 0.0068211)
(0.133715 -0.000863187 0.00751328)
(0.132278 -0.000816158 0.00807547)
(0.129242 -0.00092021 0.00837919)
(0.124854 -0.00100169 0.00825756)
(0.11964 -0.000982515 0.0077953)
(0.114306 -0.000906758 0.00726263)
(0.109256 -0.000882477 0.00686633)
(0.104423 -0.00103253 0.0066237)
(0.0997342 -0.00149191 0.00656099)
(0.0954588 -0.00236534 0.00690237)
(0.0921388 -0.003527 0.00785506)
(0.090561 -0.00464406 0.00916583)
(0.0913376 -0.00561053 0.0102484)
(0.0944798 -0.00649961 0.010626)
(0.0994546 -0.00727447 0.0101425)
(0.105049 -0.00779972 0.0088489)
(0.109649 -0.00799165 0.00702489)
(0.112452 -0.00775499 0.0050852)
(0.113885 -0.00706491 0.00344707)
(0.115016 -0.0060196 0.00210948)
(0.116869 -0.00466964 0.000476794)
(0.119365 -0.00311827 -0.00206997)
(0.121126 -0.00169445 -0.00546171)
(0.120937 -0.000858266 -0.0090327)
(0.118884 -0.000814255 -0.0120676)
(0.11625 -0.00120972 -0.0141709)
(0.11428 -0.0017201 -0.0154049)
(0.113212 -0.0024758 -0.0159734)
(0.112961 -0.00352891 -0.0158902)
(0.120901 -0.00498381 -0.0135845)
(0.122806 -0.00576651 -0.0128811)
(0.1245 -0.00595487 -0.0118356)
(0.124817 -0.00597338 -0.0107252)
(0.123792 -0.00610222 -0.00955651)
(0.123134 -0.00608765 -0.0081246)
(0.12451 -0.00555318 -0.00605365)
(0.127597 -0.00455646 -0.00318864)
(0.13078 -0.00357786 -2.84958e-05)
(0.133188 -0.00292055 0.00261452)
(0.135052 -0.00247921 0.00434244)
(0.136625 -0.00206016 0.00540555)
(0.137363 -0.00172536 0.00618836)
(0.13668 -0.00149132 0.00679506)
(0.134371 -0.00127402 0.00720866)
(0.130506 -0.00105873 0.007387)
(0.12581 -0.000916914 0.00735913)
(0.12137 -0.00088536 0.00723302)
(0.117544 -0.000990832 0.00706323)
(0.113838 -0.00135049 0.00690498)
(0.109811 -0.00215257 0.00701024)
(0.105661 -0.00335417 0.00774129)
(0.102318 -0.00461706 0.00905197)
(0.101034 -0.00575104 0.0103547)
(0.102349 -0.00679073 0.0109954)
(0.10586 -0.00769285 0.0106432)
(0.110298 -0.00821931 0.00933923)
(0.11393 -0.00825668 0.00752552)
(0.115691 -0.00782729 0.00580945)
(0.115679 -0.00706855 0.00473785)
(0.114987 -0.00617591 0.004337)
(0.115045 -0.00512769 0.00388627)
(0.11666 -0.00375081 0.0024823)
(0.119179 -0.00212986 -0.0002125)
(0.120927 -0.000814155 -0.0037306)
(0.120837 -0.000369279 -0.00720798)
(0.11954 -0.000750458 -0.00993612)
(0.118514 -0.00149943 -0.0117732)
(0.11863 -0.00247609 -0.0129532)
(0.119511 -0.00372417 -0.0135986)
(0.124778 -0.00478112 -0.0100237)
(0.126868 -0.00582714 -0.0101497)
(0.129038 -0.00616049 -0.0101719)
(0.130273 -0.00610447 -0.0102625)
(0.129726 -0.00615128 -0.0101921)
(0.128087 -0.00636763 -0.00966)
(0.127418 -0.00629575 -0.00838968)
(0.128947 -0.00564419 -0.00618501)
(0.131923 -0.00470319 -0.00327129)
(0.134735 -0.00400554 -0.000406607)
(0.136789 -0.00365109 0.00181695)
(0.138548 -0.00334706 0.00337601)
(0.140055 -0.0029514 0.00450753)
(0.140637 -0.00251005 0.00532018)
(0.139988 -0.00197885 0.00595501)
(0.138033 -0.00138244 0.00653947)
(0.134729 -0.000982482 0.00702921)
(0.130854 -0.000982125 0.00734701)
(0.12761 -0.0012727 0.00744572)
(0.125278 -0.00167466 0.00732583)
(0.122973 -0.00227166 0.00717915)
(0.119736 -0.00321814 0.0074415)
(0.115816 -0.00438879 0.00836591)
(0.112828 -0.00560131 0.00953387)
(0.112128 -0.00678156 0.0101848)
(0.113784 -0.00776199 0.0098029)
(0.116645 -0.00821986 0.00840597)
(0.119147 -0.00800766 0.00652842)
(0.120188 -0.00724923 0.00488594)
(0.11955 -0.00623992 0.00409947)
(0.117775 -0.00534066 0.00436951)
(0.116093 -0.00458453 0.00501078)
(0.115841 -0.0036277 0.00485623)
(0.117335 -0.00220256 0.00327783)
(0.119564 -0.00064738 0.000541668)
(0.120933 0.00025005 -0.00253693)
(0.121168 8.60909e-05 -0.00517828)
(0.121136 -0.00075941 -0.0071135)
(0.121727 -0.00192251 -0.00849927)
(0.123031 -0.00331619 -0.009479)
(0.127886 -0.00392155 -0.00733741)
(0.129776 -0.00524899 -0.00767539)
(0.132035 -0.00590395 -0.00817548)
(0.133987 -0.00595367 -0.00900502)
(0.134558 -0.00590919 -0.00984271)
(0.133376 -0.00612958 -0.0101552)
(0.131669 -0.0064052 -0.00965942)
(0.131302 -0.00627385 -0.00819899)
(0.133015 -0.0056938 -0.00583372)
(0.135779 -0.00511042 -0.0030699)
(0.138094 -0.00481091 -0.000555089)
(0.139834 -0.00461977 0.00145273)
(0.14143 -0.00421041 0.00301814)
(0.142551 -0.00360157 0.004138)
(0.14275 -0.00288712 0.00488294)
(0.142136 -0.00204032 0.00555594)
(0.140663 -0.00126742 0.00628844)
(0.138225 -0.00101544 0.00687421)
(0.135525 -0.00142093 0.00708941)
(0.133678 -0.00216145 0.00692045)
(0.132796 -0.00284277 0.00655013)
(0.131595 -0.00343746 0.00635147)
(0.128906 -0.00415663 0.00675094)
(0.125442 -0.00517226 0.00765384)
(0.122994 -0.00639503 0.00836445)
(0.12245 -0.00745951 0.008159)
(0.123284 -0.00790057 0.0068689)
(0.124386 -0.00751521 0.00502282)
(0.124869 -0.00647178 0.00339504)
(0.124259 -0.00514747 0.00259311)
(0.12245 -0.00402354 0.00290914)
(0.120092 -0.00333654 0.0039564)
(0.118438 -0.00276241 0.00461944)
(0.118461 -0.00177762 0.00399169)
(0.120104 -0.000365118 0.00210685)
(0.122237 0.000797614 -0.000351259)
(0.123888 0.00096441 -0.00265121)
(0.124975 0.000253326 -0.004459)
(0.125747 -0.000884853 -0.00580525)
(0.126603 -0.00232011 -0.00676558)
(0.132182 -0.00286892 -0.00726012)
(0.133666 -0.0044497 -0.00747799)
(0.135602 -0.00545109 -0.00777962)
(0.137403 -0.00569539 -0.00844603)
(0.138427 -0.00556083 -0.00930171)
(0.137982 -0.00560883 -0.00987694)
(0.136321 -0.00597214 -0.00982845)
(0.134799 -0.00627373 -0.00900679)
(0.134957 -0.00624353 -0.00730771)
(0.136822 -0.00603777 -0.00493495)
(0.139013 -0.00589484 -0.00241552)
(0.140544 -0.00581833 -0.000168141)
(0.14172 -0.00547741 0.00170401)
(0.142699 -0.0047599 0.00310457)
(0.143063 -0.00384931 0.00403348)
(0.142775 -0.00284508 0.00477764)
(0.142116 -0.00187153 0.00554405)
(0.141057 -0.00130848 0.00606133)
(0.139566 -0.0014857 0.00595097)
(0.138252 -0.00231398 0.00530212)
(0.137936 -0.00322457 0.00450874)
(0.138162 -0.00372714 0.00395468)
(0.137485 -0.00398429 0.00402941)
(0.135227 -0.00445019 0.00478348)
(0.132303 -0.00532581 0.00568085)
(0.130014 -0.0062277 0.00590467)
(0.128879 -0.00663003 0.00505234)
(0.128563 -0.00628607 0.00352929)
(0.128524 -0.00531561 0.00208385)
(0.128239 -0.0039604 0.00123288)
(0.127141 -0.00264717 0.00120553)
(0.125125 -0.00181199 0.00194841)
(0.123044 -0.00138167 0.00274813)
(0.121975 -0.00085826 0.00264815)
(0.122585 4.88802e-05 0.00135957)
(0.124662 0.00102356 -0.000631893)
(0.127229 0.00139799 -0.00267945)
(0.129376 0.000989355 -0.0044307)
(0.130658 9.89329e-05 -0.00578742)
(0.131337 -0.00122358 -0.00674188)
(0.13847 -0.00198199 -0.00873364)
(0.139562 -0.0035936 -0.00884523)
(0.140717 -0.00478218 -0.00888407)
(0.141683 -0.0051989 -0.00907134)
(0.142314 -0.00504874 -0.00935127)
(0.142138 -0.00487683 -0.00954172)
(0.140759 -0.00509408 -0.00952399)
(0.138842 -0.00557266 -0.00910452)
(0.137917 -0.00601127 -0.0079527)
(0.138738 -0.00625369 -0.00599914)
(0.140465 -0.00634548 -0.00365828)
(0.141768 -0.0063385 -0.00141817)
(0.142248 -0.00605207 0.000559363)
(0.142192 -0.0053053 0.00223113)
(0.141618 -0.00430974 0.00352413)
(0.140665 -0.0032938 0.00453512)
(0.139812 -0.00233724 0.00531283)
(0.139271 -0.00160909 0.00554776)
(0.138738 -0.00150024 0.00494178)
(0.138063 -0.00216139 0.00374399)
(0.137878 -0.00319724 0.00256029)
(0.138473 -0.00386096 0.00186013)
(0.138987 -0.00403387 0.00193119)
(0.138372 -0.00411433 0.00273125)
(0.136536 -0.00441911 0.00373048)
(0.134347 -0.00479696 0.00419753)
(0.132836 -0.00493127 0.00375525)
(0.13223 -0.00465228 0.00269306)
(0.132174 -0.0039592 0.0015926)
(0.132229 -0.00288852 0.000796848)
(0.131937 -0.00162745 0.000374699)
(0.130849 -0.000579861 0.000372115)
(0.129211 1.70634e-05 0.000650193)
(0.127927 0.00036097 0.000623878)
(0.127828 0.000702076 -0.000265815)
(0.129303 0.00106433 -0.00193788)
(0.131895 0.00124452 -0.00386468)
(0.134568 0.00103434 -0.00565483)
(0.136487 0.000486773 -0.00714992)
(0.137589 -0.000499593 -0.00820747)
(0.143596 -0.00131121 -0.0089124)
(0.144898 -0.00257675 -0.00917825)
(0.145645 -0.00368331 -0.00927234)
(0.145917 -0.00427209 -0.00936748)
(0.146093 -0.00426373 -0.00935309)
(0.146043 -0.00398484 -0.00920059)
(0.145157 -0.00393743 -0.00903634)
(0.14342 -0.00435212 -0.00879084)
(0.141965 -0.00504865 -0.00802223)
(0.141849 -0.00569844 -0.00645648)
(0.142806 -0.00604892 -0.00438421)
(0.143616 -0.00607397 -0.00233961)
(0.143394 -0.00572154 -0.000498686)
(0.142179 -0.00491841 0.00119692)
(0.140419 -0.00390374 0.00260381)
(0.138653 -0.00300603 0.00358473)
(0.137456 -0.00227993 0.00411445)
(0.137 -0.00168023 0.00406311)
(0.136926 -0.00145488 0.00329938)
(0.136788 -0.00192231 0.00208164)
(0.136753 -0.00296737 0.00101647)
(0.13731 -0.00387985 0.000573629)
(0.138169 -0.00419858 0.00084572)
(0.138499 -0.00413155 0.00166481)
(0.137952 -0.00397223 0.00258028)
(0.136948 -0.00379091 0.00308802)
(0.136119 -0.00355186 0.00296976)
(0.135595 -0.00326239 0.00240725)
(0.135234 -0.00286465 0.00181091)
(0.134959 -0.002204 0.00141188)
(0.134709 -0.00121146 0.00113526)
(0.134138 -0.000151366 0.000856339)
(0.133105 0.000625493 0.000663669)
(0.132196 0.00103631 0.000506675)
(0.132092 0.00116073 -9.77499e-05)
(0.133091 0.00108536 -0.00143547)
(0.135081 0.0009549 -0.00323172)
(0.137568 0.000755996 -0.00507573)
(0.139965 0.000410871 -0.00677677)
(0.141953 -0.000248562 -0.00813316)
(0.143362 -0.000742231 -0.00614397)
(0.145784 -0.00152334 -0.00692309)
(0.147393 -0.00228034 -0.00761936)
(0.148099 -0.00284491 -0.00831542)
(0.148408 -0.00300132 -0.00872546)
(0.148705 -0.00276407 -0.0087261)
(0.148636 -0.0025236 -0.0085184)
(0.147721 -0.00271245 -0.0082582)
(0.146387 -0.00339718 -0.00770033)
(0.145659 -0.00426314 -0.00652369)
(0.145768 -0.00491614 -0.0047826)
(0.145935 -0.0051201 -0.00289596)
(0.145303 -0.00478315 -0.00119686)
(0.143755 -0.00392814 0.000271439)
(0.141758 -0.00285856 0.00139795)
(0.139938 -0.0020261 0.00206282)
(0.138731 -0.00154718 0.0022925)
(0.13824 -0.00126907 0.00211702)
(0.138281 -0.00115472 0.0014783)
(0.138527 -0.001537 0.000492216)
(0.138789 -0.00250316 -0.000381677)
(0.139272 -0.00357103 -0.000721803)
(0.139925 -0.00409174 -0.000451204)
(0.140314 -0.0040879 0.000315501)
(0.140179 -0.00381942 0.00134081)
(0.139635 -0.00336933 0.00223808)
(0.138816 -0.00280696 0.00268773)
(0.137704 -0.0022773 0.00275345)
(0.136411 -0.00188112 0.00281664)
(0.135245 -0.00149798 0.00304858)
(0.134408 -0.000869462 0.0032444)
(0.133741 1.58692e-05 0.00320317)
(0.132939 0.000847839 0.00302402)
(0.132129 0.00137794 0.00292288)
(0.131749 0.0015954 0.00260621)
(0.132016 0.00153521 0.00162869)
(0.133056 0.00129164 7.88862e-05)
(0.134942 0.000954731 -0.00167098)
(0.137576 0.00051624 -0.00340335)
(0.14052 -3.83628e-05 -0.00497364)
(0.141429 -0.000541491 -0.0028031)
(0.144675 -0.000736122 -0.00399126)
(0.14731 -0.000925248 -0.00517672)
(0.148917 -0.00113948 -0.00636666)
(0.149731 -0.00122045 -0.00725634)
(0.15037 -0.00104883 -0.00761614)
(0.151013 -0.000790946 -0.00757045)
(0.151239 -0.0008264 -0.00732267)
(0.150761 -0.00140491 -0.0068691)
(0.149943 -0.00234724 -0.00604703)
(0.149235 -0.00326614 -0.00478187)
(0.148438 -0.00377144 -0.00325735)
(0.147069 -0.00362262 -0.00172737)
(0.14517 -0.0028415 -0.000350141)
(0.143237 -0.0018231 0.000732994)
(0.141708 -0.00109084 0.00140937)
(0.14072 -0.00081167 0.00171886)
(0.140216 -0.000789307 0.0016836)
(0.140112 -0.00081508 0.00126032)
(0.140254 -0.00108875 0.000491947)
(0.140467 -0.0018553 -0.00025857)
(0.140857 -0.0028447 -0.000595387)
(0.141513 -0.00347919 -0.000362108)
(0.142124 -0.00358231 0.000420302)
(0.142281 -0.00332118 0.00156378)
(0.141784 -0.0027233 0.00268821)
(0.140638 -0.00190244 0.00346962)
(0.138952 -0.00114815 0.00398928)
(0.137117 -0.00076543 0.00449865)
(0.135607 -0.000693822 0.00499753)
(0.134629 -0.000590352 0.00524725)
(0.134014 -0.000172928 0.00520284)
(0.133354 0.000466287 0.00498925)
(0.132464 0.00110619 0.00477419)
(0.131596 0.00159179 0.00448336)
(0.131112 0.00176165 0.00381693)
(0.131309 0.00150952 0.00270408)
(0.132524 0.000949878 0.00134268)
(0.134892 0.000288544 -5.8626e-05)
(0.138041 -0.000231752 -0.00146495)
(0.140203 0.000788577 0.000619746)
(0.143387 0.00075361 -0.00087537)
(0.146262 0.000849247 -0.0023909)
(0.148413 0.000955213 -0.00393533)
(0.149786 0.00107109 -0.00524128)
(0.150806 0.00117664 -0.00598615)
(0.151778 0.00118502 -0.00618708)
(0.152572 0.000974206 -0.0060629)
(0.152909 0.000507592 -0.00574665)
(0.152688 -0.000177584 -0.00520339)
(0.151931 -0.000991406 -0.00437104)
(0.150604 -0.00170333 -0.00332746)
(0.148698 -0.00192545 -0.00220863)
(0.146565 -0.00149115 -0.00104567)
(0.144723 -0.000756972 9.76842e-05)
(0.143385 -0.000298599 0.00104152)
(0.142405 -0.000326288 0.00170413)
(0.141598 -0.000543624 0.00208052)
(0.141044 -0.0006545 0.00216799)
(0.140891 -0.00081603 0.00199534)
(0.141093 -0.00143836 0.00178097)
(0.141609 -0.00242134 0.00177148)
(0.142431 -0.00318562 0.00205455)
(0.143228 -0.00334103 0.00264672)
(0.143407 -0.00296875 0.0035543)
(0.142568 -0.00220451 0.00453047)
(0.14086 -0.00121205 0.0052791)
(0.138864 -0.000319353 0.0058377)
(0.137141 0.000150268 0.00638929)
(0.135893 0.000235225 0.00680223)
(0.135036 0.000247083 0.00685693)
(0.134437 0.000468737 0.00664448)
(0.133817 0.00101213 0.00644726)
(0.132926 0.00175667 0.0063541)
(0.131872 0.00249374 0.00623343)
(0.131085 0.00296454 0.00589447)
(0.131024 0.00296634 0.00529144)
(0.132023 0.00248944 0.00447634)
(0.134135 0.00173836 0.00342691)
(0.137023 0.00109532 0.00210418)
(0.140678 0.00214056 0.00232004)
(0.143771 0.00205726 0.000853041)
(0.146493 0.00219303 -0.000578383)
(0.148592 0.00236651 -0.00199463)
(0.150126 0.00250959 -0.00333336)
(0.151411 0.00259913 -0.00438868)
(0.152595 0.00250818 -0.00503801)
(0.153509 0.00207867 -0.00532456)
(0.153983 0.0014014 -0.00529537)
(0.154005 0.000731675 -0.00498854)
(0.15361 0.000216576 -0.00445959)
(0.152773 -0.000197431 -0.00378663)
(0.151523 -0.000454065 -0.00297373)
(0.150159 -0.000394329 -0.00198413)
(0.149066 -0.000114438 -0.000853328)
(0.148169 4.24745e-05 0.00032935)
(0.147158 -4.36102e-05 0.0015194)
(0.145944 -0.000153811 0.00259189)
(0.14488 -0.000119829 0.00334252)
(0.144404 -8.79272e-05 0.00357811)
(0.14457 -0.000398783 0.00351563)
(0.145165 -0.00113297 0.00356261)
(0.14596 -0.00186865 0.0038603)
(0.146578 -0.00208737 0.00421358)
(0.146437 -0.00164644 0.00461552)
(0.145101 -0.000709194 0.00511806)
(0.142812 0.000521798 0.00560962)
(0.140387 0.00167658 0.00594416)
(0.138494 0.00235377 0.00605105)
(0.137166 0.00250736 0.00585963)
(0.136103 0.00244441 0.00543214)
(0.135148 0.00249742 0.00507256)
(0.134239 0.00291741 0.00499196)
(0.133266 0.00362081 0.0051641)
(0.13231 0.00429656 0.00545017)
(0.131668 0.00468309 0.00570876)
(0.131741 0.00464131 0.00578951)
(0.132785 0.00414607 0.00554492)
(0.134807 0.00334817 0.00485443)
(0.137569 0.00258476 0.00372422)
(0.140809 0.00248207 0.00206521)
(0.143328 0.00197168 0.00117431)
(0.145565 0.00190858 0.000226584)
(0.147313 0.00205078 -0.000841514)
(0.14865 0.00222156 -0.00196925)
(0.149894 0.00237447 -0.00300472)
(0.1513 0.00239803 -0.00383222)
(0.152763 0.00213841 -0.00444013)
(0.153917 0.00155634 -0.00482666)
(0.154501 0.000838413 -0.00496012)
(0.154524 0.000190237 -0.00478709)
(0.154184 -0.00039948 -0.00430407)
(0.153665 -0.000993561 -0.00356249)
(0.15308 -0.00144202 -0.00266909)
(0.152531 -0.0016045 -0.00170822)
(0.151973 -0.00160213 -0.000707355)
(0.151162 -0.00158958 0.000379154)
(0.149967 -0.00151094 0.0014647)
(0.148563 -0.00129327 0.00222862)
(0.147356 -0.00110745 0.00244628)
(0.146608 -0.00121208 0.00226167)
(0.146421 -0.00167663 0.00214074)
(0.146636 -0.00222683 0.00233112)
(0.146835 -0.00237399 0.00267374)
(0.146539 -0.00174328 0.00299916)
(0.145534 -0.000353351 0.00327725)
(0.144043 0.0015017 0.00341988)
(0.142518 0.00334281 0.00319584)
(0.141268 0.00463642 0.00259703)
(0.140301 0.00508746 0.00190115)
(0.139483 0.0049009 0.00147985)
(0.138743 0.00462491 0.00154698)
(0.137995 0.00479342 0.00198228)
(0.137018 0.0054688 0.00252058)
(0.135815 0.0062183 0.00303394)
(0.134756 0.00658555 0.00351324)
(0.134341 0.0064438 0.00387933)
(0.134848 0.0058138 0.00393853)
(0.136249 0.00475741 0.00359111)
(0.138338 0.00350443 0.0029068)
(0.143689 0.00198609 0.00135251)
(0.144503 0.00150198 0.00135215)
(0.144969 0.00147593 0.00130279)
(0.145129 0.00158178 0.00105163)
(0.145222 0.00160148 0.00052548)
(0.145592 0.00150134 -0.00024933)
(0.146458 0.00132561 -0.00120905)
(0.147781 0.00110564 -0.00225985)
(0.149307 0.000868226 -0.00327143)
(0.150689 0.000632319 -0.00410909)
(0.151591 0.000407541 -0.00467044)
(0.151857 0.00010839 -0.00483593)
(0.151601 -0.000359075 -0.00446715)
(0.151137 -0.000958573 -0.0035435)
(0.150796 -0.00153156 -0.00226554)
(0.150705 -0.00194409 -0.000994096)
(0.150706 -0.00214117 5.31671e-05)
(0.150589 -0.00207623 0.000864729)
(0.150229 -0.00181442 0.00143217)
(0.149673 -0.00156124 0.00168827)
(0.149029 -0.00156019 0.00168501)
(0.148481 -0.00189067 0.00170845)
(0.148137 -0.0023818 0.00203757)
(0.147862 -0.00261151 0.00264978)
(0.147434 -0.00214102 0.00328212)
(0.146815 -0.000878607 0.00363042)
(0.146089 0.000829559 0.00343549)
(0.145412 0.00245303 0.00257483)
(0.144927 0.00358566 0.00123983)
(0.144683 0.00399684 -8.81948e-05)
(0.144564 0.00384398 -0.000902423)
(0.144408 0.00364766 -0.000977551)
(0.144062 0.00392719 -0.000508431)
(0.143408 0.00482071 0.000117312)
(0.14246 0.00591155 0.000659994)
(0.14149 0.00656908 0.00113769)
(0.1409 0.00647798 0.00155279)
(0.140953 0.00568031 0.00174427)
(0.141624 0.00441462 0.00165724)
(0.142645 0.00303801 0.0014563)