/*--------------------------------*- C++ -*----------------------------------*\
| =========                 |                                                 |
| \\      /  F ield         | OpenFOAM: The Open Source CFD Toolbox           |
|  \\    /   O peration     | Version:  2306                                  |
|   \\  /    A nd           | Website:  www.openfoam.com                      |
|    \\/     M anipulation  |                                                 |
\*---------------------------------------------------------------------------*/
FoamFile
{
    version     2.0;
    format      ascii;
    arch        "LSB;label=32;scalar=64";
    class       volScalarField;
    location    "10";
    object      nut;
}
// * * * * * * * * * * * * * * * * * * * * * * * * * * * * * * * * * * * * * //

dimensions      [0 2 -1 0 0 0 0];

internalField   nonuniform List<scalar> 
60000
(
5.623e-05
5.81872e-05
6.08995e-05
6.46138e-05
6.93526e-05
7.4697e-05
7.95994e-05
8.22226e-05
8.15107e-05
7.82713e-05
7.44157e-05
7.12157e-05
6.87798e-05
6.66685e-05
6.43618e-05
6.1407e-05
5.77254e-05
5.3904e-05
5.10453e-05
4.96858e-05
4.93774e-05
4.98417e-05
5.13313e-05
5.38556e-05
5.67675e-05
5.95618e-05
6.25424e-05
6.57882e-05
6.89448e-05
7.24096e-05
7.63211e-05
7.91005e-05
7.89185e-05
7.6156e-05
7.21982e-05
6.75751e-05
6.2522e-05
5.79881e-05
5.53699e-05
5.50587e-05
5.54126e-05
5.71089e-05
6.01953e-05
6.43916e-05
6.95019e-05
7.50531e-05
8.0258e-05
8.35133e-05
8.35004e-05
8.0519e-05
7.64316e-05
7.30051e-05
7.07254e-05
6.90724e-05
6.7252e-05
6.47091e-05
6.14219e-05
5.78178e-05
5.4532e-05
5.2093e-05
5.07673e-05
5.06503e-05
5.16227e-05
5.32804e-05
5.53587e-05
5.78125e-05
6.10666e-05
6.5068e-05
6.95066e-05
7.44261e-05
7.91848e-05
8.19348e-05
8.14307e-05
7.85594e-05
7.47732e-05
7.08655e-05
6.68563e-05
6.24238e-05
5.81815e-05
5.56165e-05
5.38634e-05
5.42172e-05
5.66287e-05
6.04001e-05
6.52554e-05
7.08237e-05
7.68165e-05
8.20602e-05
8.45257e-05
8.30957e-05
7.90446e-05
7.49433e-05
7.23111e-05
7.09405e-05
6.98823e-05
6.83845e-05
6.6161e-05
6.30437e-05
5.90408e-05
5.48355e-05
5.15788e-05
4.99496e-05
4.98145e-05
5.05336e-05
5.18736e-05
5.39624e-05
5.71975e-05
6.14808e-05
6.62764e-05
7.1401e-05
7.66924e-05
8.0785e-05
8.19982e-05
8.05558e-05
7.78858e-05
7.51796e-05
7.24745e-05
6.83713e-05
6.23076e-05
5.65936e-05
5.35198e-05
5.09855e-05
5.13449e-05
5.3468e-05
5.70842e-05
6.20465e-05
6.83721e-05
7.59171e-05
8.23332e-05
8.44028e-05
8.16386e-05
7.69434e-05
7.34788e-05
7.20437e-05
7.1722e-05
7.14938e-05
7.08074e-05
6.89462e-05
6.50155e-05
5.91969e-05
5.32478e-05
4.89282e-05
4.67875e-05
4.62124e-05
4.66132e-05
4.80401e-05
5.07142e-05
5.4642e-05
5.87845e-05
6.25317e-05
6.71382e-05
7.29555e-05
7.76948e-05
7.97182e-05
7.94958e-05
7.85039e-05
7.75458e-05
7.50113e-05
6.86868e-05
6.00419e-05
5.66223e-05
5.02523e-05
4.73592e-05
4.63789e-05
4.6959e-05
4.94351e-05
5.41799e-05
6.22827e-05
7.26897e-05
8.05082e-05
8.1784e-05
7.78871e-05
7.35275e-05
7.15644e-05
7.16454e-05
7.24174e-05
7.32451e-05
7.34485e-05
7.13626e-05
6.57433e-05
5.77071e-05
4.98086e-05
4.41364e-05
4.12263e-05
4.01982e-05
4.04234e-05
4.18809e-05
4.48698e-05
4.81419e-05
4.99647e-05
5.18825e-05
5.68414e-05
6.47225e-05
7.2042e-05
7.63087e-05
7.81605e-05
7.93317e-05
7.94244e-05
7.54744e-05
6.64752e-05
6.29159e-05
5.44097e-05
4.91394e-05
4.50561e-05
4.11493e-05
3.90786e-05
4.03813e-05
4.45355e-05
5.28504e-05
6.58483e-05
7.46546e-05
7.49362e-05
7.09552e-05
6.84289e-05
6.86555e-05
6.99405e-05
7.14854e-05
7.36647e-05
7.50635e-05
7.27983e-05
6.58493e-05
5.58005e-05
4.54522e-05
3.80985e-05
3.43598e-05
3.28252e-05
3.27124e-05
3.43376e-05
3.75818e-05
3.99267e-05
3.97083e-05
4.27636e-05
4.77314e-05
5.53415e-05
6.45558e-05
7.10765e-05
7.4994e-05
7.78031e-05
7.80435e-05
7.25962e-05
6.61638e-05
5.96472e-05
5.58793e-05
5.26277e-05
4.54923e-05
3.58549e-05
3.24649e-05
3.7192e-05
4.07983e-05
4.28146e-05
5.45278e-05
6.30022e-05
6.25762e-05
6.03981e-05
6.12666e-05
6.34304e-05
6.47254e-05
6.70559e-05
7.17108e-05
7.53394e-05
7.41567e-05
6.71446e-05
5.45548e-05
4.11332e-05
3.2391e-05
2.82738e-05
2.6556e-05
2.62861e-05
2.88612e-05
3.48836e-05
3.65665e-05
3.1586e-05
3.85242e-05
4.27539e-05
4.60255e-05
5.49991e-05
6.25512e-05
6.75313e-05
7.13559e-05
7.14972e-05
5.65726e-05
5.53652e-05
5.58319e-05
5.86477e-05
5.72808e-05
4.55281e-05
2.99569e-05
2.73372e-05
3.76721e-05
4.08659e-05
3.41089e-05
4.02964e-05
4.55505e-05
4.45016e-05
4.63543e-05
5.13325e-05
5.35929e-05
5.37019e-05
5.80101e-05
6.67583e-05
7.45605e-05
7.7084e-05
6.98235e-05
5.32046e-05
3.74297e-05
2.88699e-05
2.55409e-05
2.40657e-05
2.50093e-05
3.19429e-05
4.34345e-05
4.1002e-05
2.59698e-05
3.54419e-05
3.78429e-05
3.70092e-05
4.33691e-05
4.66466e-05
4.93009e-05
5.43122e-05
2.76256e-05
3.16256e-05
3.68127e-05
4.6123e-05
5.62326e-05
5.68222e-05
4.25727e-05
2.48343e-05
2.14462e-05
3.52699e-05
3.83352e-05
2.62301e-05
2.79915e-05
2.81834e-05
2.69178e-05
3.27665e-05
3.90989e-05
3.75573e-05
3.49992e-05
4.18592e-05
5.70102e-05
7.30628e-05
8.05656e-05
7.05882e-05
5.01187e-05
3.48309e-05
2.8747e-05
2.75111e-05
2.84035e-05
3.32715e-05
4.45439e-05
5.46093e-05
4.27583e-05
2.11916e-05
3.09492e-05
2.8404e-05
2.26878e-05
2.21482e-05
2.15454e-05
2.35076e-05
2.28961e-05
2.06573e-05
2.38722e-05
2.88048e-05
3.6068e-05
5.01626e-05
5.19474e-05
3.77636e-05
2.08665e-05
1.71054e-05
3.26613e-05
3.42475e-05
2.10984e-05
2.33667e-05
1.87861e-05
1.77955e-05
2.12404e-05
2.52318e-05
1.97515e-05
1.48711e-05
2.1782e-05
4.40999e-05
7.09703e-05
8.06093e-05
6.64984e-05
4.63034e-05
3.50432e-05
3.19911e-05
3.19634e-05
3.57244e-05
4.52597e-05
5.60963e-05
5.63927e-05
3.36355e-05
1.60551e-05
2.25729e-05
1.27559e-05
1.73967e-05
2.55213e-05
2.63282e-05
1.80717e-05
1.37982e-05
1.89014e-05
3.02884e-05
3.07371e-05
3.01375e-05
4.60519e-05
4.69446e-05
3.33886e-05
1.98563e-05
1.70891e-05
3.1286e-05
3.04645e-05
2.05519e-05
2.22115e-05
1.18002e-05
1.26425e-05
1.104e-05
1.7171e-05
1.23961e-05
9.27164e-06
1.46288e-05
3.57908e-05
6.69951e-05
7.42789e-05
5.99995e-05
4.50755e-05
3.59583e-05
3.00633e-05
3.01103e-05
3.87801e-05
5.15268e-05
5.73518e-05
4.63901e-05
1.98937e-05
1.49006e-05
1.65982e-05
1.73978e-05
2.49627e-05
2.40909e-05
2.89813e-05
2.25752e-05
1.64344e-05
1.93289e-05
2.81636e-05
2.22467e-05
2.84365e-05
4.60272e-05
4.42757e-05
3.28211e-05
2.29969e-05
1.92443e-05
2.93969e-05
2.68194e-05
1.85936e-05
1.64736e-05
6.23325e-06
1.09702e-05
7.46655e-06
1.5624e-05
1.22649e-05
1.24615e-05
2.05117e-05
3.16866e-05
5.8435e-05
6.39448e-05
5.32363e-05
3.86948e-05
2.44215e-05
1.86422e-05
2.45243e-05
3.64393e-05
5.01256e-05
5.05954e-05
3.3624e-05
1.50574e-05
1.54491e-05
1.43201e-05
2.00952e-05
2.86914e-05
3.24302e-05
3.50824e-05
3.58251e-05
3.42287e-05
3.03214e-05
2.60677e-05
1.6464e-05
3.43494e-05
4.74212e-05
4.27249e-05
3.4411e-05
2.55729e-05
2.08203e-05
2.52044e-05
2.05171e-05
1.52296e-05
1.2541e-05
7.10123e-06
1.12525e-05
9.94893e-06
1.42083e-05
1.2273e-05
1.16495e-05
2.05568e-05
2.71185e-05
4.02854e-05
3.95659e-05
3.16712e-05
2.64877e-05
2.09699e-05
1.85337e-05
2.08436e-05
3.47146e-05
4.68767e-05
4.17637e-05
2.54193e-05
1.50094e-05
1.25292e-05
1.47566e-05
2.45656e-05
2.09863e-05
2.89513e-05
3.65819e-05
3.95899e-05
3.57217e-05
3.18402e-05
2.24372e-05
1.84364e-05
4.06667e-05
4.74071e-05
4.17609e-05
3.51137e-05
2.67352e-05
2.27105e-05
2.15374e-05
1.73308e-05
1.59403e-05
1.29447e-05
8.91147e-06
1.32925e-05
1.12093e-05
1.21609e-05
1.48626e-05
1.1834e-05
2.4227e-05
2.61408e-05
1.78842e-05
1.43697e-05
2.36189e-05
2.76652e-05
2.3208e-05
1.87193e-05
2.10448e-05
3.58813e-05
4.045e-05
3.25551e-05
2.14927e-05
1.48562e-05
1.37105e-05
1.59683e-05
1.20986e-05
1.04813e-05
1.53863e-05
2.28483e-05
2.4495e-05
2.68065e-05
3.06415e-05
1.491e-05
2.39308e-05
4.29488e-05
4.51994e-05
4.24062e-05
3.6395e-05
2.88457e-05
2.52477e-05
2.25438e-05
1.93294e-05
1.71136e-05
1.36481e-05
1.08409e-05
1.19797e-05
6.0014e-06
1.10611e-05
1.53542e-05
2.17104e-05
2.80977e-05
2.01443e-05
1.35187e-05
2.04086e-05
2.59936e-05
2.41519e-05
1.83146e-05
1.41767e-05
2.48302e-05
3.35325e-05
3.22046e-05
2.63333e-05
1.95861e-05
1.40836e-05
1.3159e-05
1.92371e-05
2.27018e-05
1.89743e-05
1.21806e-05
1.32492e-05
1.85299e-05
3.3177e-05
3.27286e-05
1.24701e-05
3.08496e-05
4.47973e-05
4.8254e-05
4.59421e-05
3.8611e-05
3.16021e-05
2.70072e-05
2.24991e-05
1.90605e-05
1.73027e-05
1.44486e-05
9.99472e-06
1.00189e-05
1.06645e-05
1.73361e-05
2.01102e-05
1.59365e-05
1.62786e-05
2.04387e-05
1.89353e-05
2.08938e-05
2.43837e-05
2.0567e-05
1.31455e-05
1.65855e-05
2.62798e-05
2.84975e-05
2.71416e-05
2.17844e-05
1.55496e-05
1.48287e-05
1.52298e-05
1.88589e-05
1.99359e-05
1.45602e-05
1.16646e-05
1.53522e-05
2.61905e-05
3.70114e-05
3.09567e-05
1.97072e-05
3.29762e-05
4.62014e-05
4.99555e-05
4.58329e-05
3.95775e-05
3.28309e-05
2.55321e-05
1.91798e-05
1.44316e-05
1.08235e-05
8.33859e-06
1.00322e-05
1.39678e-05
1.47037e-05
1.42695e-05
1.6735e-05
2.20797e-05
2.35202e-05
1.8658e-05
1.53243e-05
2.46898e-05
2.66644e-05
1.7239e-05
1.0217e-05
1.84271e-05
2.58279e-05
2.67656e-05
2.38614e-05
2.13883e-05
1.74174e-05
1.37539e-05
1.66379e-05
1.50548e-05
8.95525e-06
1.27594e-05
2.16774e-05
2.60611e-05
3.01159e-05
3.06175e-05
2.77846e-05
2.63058e-05
2.81225e-05
3.43643e-05
3.74741e-05
3.51544e-05
3.174e-05
2.95785e-05
2.56646e-05
1.76717e-05
8.70072e-06
7.32851e-06
1.10199e-05
1.46604e-05
1.56551e-05
1.76159e-05
2.13877e-05
2.2986e-05
2.57169e-05
2.54778e-05
1.67734e-05
1.93659e-05
2.93289e-05
2.49866e-05
1.30774e-05
1.01498e-05
1.92061e-05
2.64371e-05
2.78405e-05
2.28578e-05
1.50606e-05
1.98699e-05
2.40555e-05
2.60176e-05
2.15468e-05
1.35544e-05
1.73084e-05
2.08132e-05
2.20957e-05
2.42454e-05
2.20824e-05
2.34028e-05
2.8203e-05
2.59271e-05
2.14115e-05
2.2405e-05
2.36734e-05
2.4682e-05
2.61236e-05
2.61901e-05
2.39675e-05
2.02788e-05
1.6211e-05
1.42509e-05
1.95121e-05
2.63215e-05
2.62829e-05
1.714e-05
2.27966e-05
3.31001e-05
2.35976e-05
1.64673e-05
3.34868e-05
3.66853e-05
2.41259e-05
1.02336e-05
1.7551e-05
2.74879e-05
2.77028e-05
2.1034e-05
1.71475e-05
4.10574e-05
3.77954e-05
3.0661e-05
2.17493e-05
1.28903e-05
1.25015e-05
1.71347e-05
1.82821e-05
1.77046e-05
1.70616e-05
1.64038e-05
1.94561e-05
2.3225e-05
2.20587e-05
1.63488e-05
1.22428e-05
1.20671e-05
1.34443e-05
1.44907e-05
1.80422e-05
2.30853e-05
2.36447e-05
2.00993e-05
1.83638e-05
2.13262e-05
2.34766e-05
1.84145e-05
1.49778e-05
2.48647e-05
2.63687e-05
1.87935e-05
2.00158e-05
2.41395e-05
1.88885e-05
1.00728e-05
1.96181e-05
2.99721e-05
3.07524e-05
3.15318e-05
3.77465e-05
4.32878e-05
4.11238e-05
3.75895e-05
3.25494e-05
2.7705e-05
2.48831e-05
2.3537e-05
2.41783e-05
2.60063e-05
2.54009e-05
2.13895e-05
1.76137e-05
1.429e-05
1.02171e-05
1.3144e-05
1.84806e-05
1.9282e-05
1.70501e-05
1.64589e-05
1.77155e-05
1.82137e-05
1.99514e-05
2.07437e-05
1.71498e-05
1.0805e-05
6.47813e-06
6.77674e-06
1.15231e-05
2.0146e-05
2.6303e-05
2.68085e-05
2.00762e-05
9.715e-06
7.55655e-06
7.18337e-06
2.13282e-05
3.27703e-05
3.60076e-05
3.95313e-05
4.34261e-05
3.07884e-05
2.74952e-05
2.80416e-05
3.02066e-05
3.22159e-05
3.31764e-05
3.29895e-05
3.19517e-05
2.93729e-05
2.58127e-05
2.13552e-05
1.59861e-05
1.34668e-05
1.39922e-05
1.63816e-05
2.0854e-05
2.30528e-05
2.07855e-05
1.58047e-05
1.06485e-05
7.97888e-06
8.34165e-06
1.08779e-05
1.39234e-05
1.32886e-05
1.38732e-05
1.72219e-05
1.84306e-05
2.17522e-05
2.84303e-05
3.39227e-05
3.29491e-05
2.32081e-05
1.23074e-05
1.18005e-05
2.18094e-05
3.41495e-05
4.00912e-05
4.05561e-05
3.68222e-05
1.69112e-05
1.41686e-05
1.2491e-05
1.31233e-05
1.84891e-05
2.31213e-05
2.33553e-05
2.00266e-05
1.55131e-05
1.26367e-05
1.27152e-05
1.33824e-05
1.29176e-05
1.20878e-05
1.25286e-05
1.33119e-05
1.34442e-05
1.4048e-05
1.64178e-05
1.9052e-05
2.07263e-05
2.06085e-05
1.70689e-05
1.26462e-05
1.36898e-05
1.47233e-05
1.50105e-05
1.74019e-05
1.77212e-05
2.10425e-05
2.75068e-05
2.89358e-05
2.4142e-05
1.70124e-05
1.34862e-05
1.87786e-05
2.94399e-05
3.63872e-05
3.37671e-05
2.46683e-05
1.41674e-05
1.18204e-05
9.80194e-06
1.12555e-05
1.37325e-05
1.39318e-05
1.27227e-05
1.20707e-05
1.25656e-05
1.36688e-05
1.29216e-05
9.15964e-06
7.55289e-06
8.62627e-06
7.04946e-06
8.73353e-06
1.33714e-05
1.54802e-05
1.85816e-05
2.18185e-05
2.03478e-05
1.62125e-05
1.37315e-05
1.5134e-05
1.58778e-05
1.0926e-05
4.20419e-06
9.55312e-06
1.45471e-05
1.8586e-05
2.01557e-05
1.82677e-05
1.4865e-05
1.26934e-05
1.0549e-05
9.41148e-06
1.49179e-05
1.97635e-05
1.92145e-05
1.62256e-05
1.85779e-05
2.01225e-05
1.7094e-05
1.41814e-05
1.5436e-05
1.43726e-05
8.03903e-06
7.01546e-06
1.22056e-05
1.36783e-05
1.27521e-05
1.14304e-05
8.97885e-06
6.99692e-06
7.51985e-06
1.13112e-05
1.59691e-05
1.78938e-05
1.54125e-05
1.08638e-05
1.05709e-05
1.1897e-05
9.47323e-06
8.12655e-06
1.63233e-05
2.34619e-05
2.36708e-05
2.02196e-05
1.79112e-05
1.78062e-05
2.09087e-05
2.50944e-05
2.69969e-05
2.50275e-05
1.89119e-05
1.15047e-05
9.67727e-06
1.11655e-05
1.2738e-05
1.51838e-05
5.32536e-05
5.20891e-05
5.25185e-05
5.48635e-05
5.8768e-05
6.32814e-05
6.70012e-05
6.93099e-05
7.01555e-05
7.01315e-05
7.00666e-05
7.03325e-05
7.07586e-05
7.09129e-05
7.04198e-05
6.91198e-05
6.70169e-05
6.44333e-05
6.20827e-05
6.04741e-05
5.94924e-05
5.90433e-05
5.93273e-05
6.03951e-05
6.21434e-05
6.46251e-05
6.76216e-05
7.10751e-05
7.47576e-05
7.86907e-05
8.32324e-05
8.71443e-05
8.83758e-05
8.66691e-05
8.35401e-05
8.0008e-05
7.51564e-05
6.83902e-05
6.12319e-05
5.60439e-05
5.36127e-05
5.15026e-05
5.2228e-05
5.50831e-05
5.90036e-05
6.32266e-05
6.67564e-05
6.91221e-05
7.03099e-05
7.07815e-05
7.11804e-05
7.17963e-05
7.25087e-05
7.29892e-05
7.28578e-05
7.18733e-05
7.0068e-05
6.78637e-05
6.57694e-05
6.39271e-05
6.22418e-05
6.09822e-05
6.05792e-05
6.10583e-05
6.20549e-05
6.37284e-05
6.62218e-05
6.98593e-05
7.47073e-05
8.06145e-05
8.67773e-05
9.10038e-05
9.16943e-05
8.98283e-05
8.69404e-05
8.37981e-05
8.00394e-05
7.46256e-05
6.70153e-05
5.90565e-05
5.59808e-05
5.12593e-05
5.04227e-05
5.21887e-05
5.54652e-05
5.95599e-05
6.3684e-05
6.70294e-05
6.92498e-05
7.04374e-05
7.11425e-05
7.18298e-05
7.26371e-05
7.34758e-05
7.40494e-05
7.39463e-05
7.29233e-05
7.12232e-05
6.92496e-05
6.70209e-05
6.4445e-05
6.20017e-05
6.04432e-05
5.99367e-05
5.99611e-05
6.05797e-05
6.23151e-05
6.56965e-05
7.08108e-05
7.73603e-05
8.43209e-05
8.96492e-05
9.17298e-05
9.13084e-05
8.95447e-05
8.73194e-05
8.52457e-05
8.22039e-05
7.54244e-05
6.50916e-05
6.18391e-05
5.30716e-05
4.87625e-05
4.75878e-05
4.90137e-05
5.25842e-05
5.761e-05
6.26469e-05
6.66342e-05
6.90769e-05
7.02494e-05
7.08212e-05
7.13863e-05
7.23387e-05
7.36605e-05
7.4744e-05
7.48475e-05
7.39274e-05
7.23707e-05
7.00723e-05
6.6731e-05
6.27976e-05
5.94964e-05
5.74653e-05
5.62248e-05
5.54983e-05
5.60265e-05
5.83664e-05
6.2528e-05
6.80234e-05
7.43438e-05
8.06473e-05
8.54075e-05
8.80447e-05
8.88099e-05
8.82378e-05
8.79936e-05
8.80561e-05
8.43934e-05
7.42287e-05
7.12764e-05
5.94805e-05
5.10731e-05
4.49247e-05
4.1781e-05
4.28334e-05
4.77454e-05
5.44692e-05
6.07944e-05
6.5331e-05
6.76276e-05
6.82404e-05
6.82669e-05
6.88549e-05
7.05774e-05
7.27814e-05
7.41126e-05
7.42179e-05
7.3653e-05
7.22045e-05
6.90419e-05
6.39901e-05
5.85217e-05
5.42972e-05
5.1259e-05
4.89294e-05
4.78282e-05
4.85464e-05
5.09147e-05
5.3899e-05
5.73913e-05
6.25005e-05
6.91412e-05
7.57013e-05
8.08295e-05
8.34882e-05
8.52896e-05
8.84252e-05
8.97019e-05
8.3592e-05
7.99795e-05
6.95909e-05
6.05163e-05
5.04604e-05
3.974e-05
3.43132e-05
3.55698e-05
4.15355e-05
4.96315e-05
5.69241e-05
6.15228e-05
6.30278e-05
6.26605e-05
6.25008e-05
6.40735e-05
6.69386e-05
6.91585e-05
7.0098e-05
7.08995e-05
7.15196e-05
7.04551e-05
6.62059e-05
5.92653e-05
5.23238e-05
4.67321e-05
4.22956e-05
3.9387e-05
3.86065e-05
3.97104e-05
4.1409e-05
4.20674e-05
4.28579e-05
4.66159e-05
5.2821e-05
6.18395e-05
6.9789e-05
7.46067e-05
8.00708e-05
8.65099e-05
8.74403e-05
8.00207e-05
7.56245e-05
7.17447e-05
6.53085e-05
5.03011e-05
3.3754e-05
2.82981e-05
2.93991e-05
3.40301e-05
4.18673e-05
4.92833e-05
5.32159e-05
5.34648e-05
5.26208e-05
5.37325e-05
5.69176e-05
5.95144e-05
6.03173e-05
6.16827e-05
6.4799e-05
6.78532e-05
6.79347e-05
6.2884e-05
5.42193e-05
4.55545e-05
3.8527e-05
3.38097e-05
3.14956e-05
3.17135e-05
3.55573e-05
3.92296e-05
3.49744e-05
3.13394e-05
3.28965e-05
3.65949e-05
4.65814e-05
5.53515e-05
6.199e-05
7.13275e-05
7.9483e-05
6.41297e-05
6.73309e-05
7.14708e-05
7.63289e-05
7.032e-05
4.8058e-05
2.78481e-05
2.63763e-05
2.80255e-05
2.87608e-05
3.23309e-05
3.7627e-05
3.93145e-05
3.79642e-05
3.87293e-05
4.28822e-05
4.62199e-05
4.58719e-05
4.53648e-05
4.94616e-05
5.70021e-05
6.41535e-05
6.63556e-05
6.04672e-05
4.98267e-05
3.99885e-05
3.33169e-05
2.91231e-05
2.71217e-05
3.08688e-05
4.03907e-05
4.26289e-05
3.09872e-05
2.3576e-05
2.43063e-05
2.61592e-05
3.33192e-05
3.87984e-05
4.51357e-05
5.58809e-05
2.87657e-05
3.44411e-05
4.6466e-05
6.6308e-05
8.03657e-05
7.23334e-05
4.36374e-05
2.29012e-05
2.84185e-05
3.29767e-05
2.89511e-05
2.34086e-05
2.5208e-05
2.41511e-05
2.12864e-05
2.39873e-05
3.0251e-05
3.22667e-05
2.80021e-05
2.63972e-05
3.28129e-05
4.6249e-05
6.05541e-05
6.52817e-05
5.76901e-05
4.5896e-05
3.71242e-05
3.07655e-05
2.46793e-05
2.43367e-05
3.34455e-05
4.4171e-05
4.13501e-05
2.8255e-05
1.92912e-05
1.96302e-05
1.97912e-05
2.18684e-05
2.20905e-05
2.39295e-05
1.74314e-05
1.89617e-05
1.77409e-05
2.83992e-05
6.25887e-05
8.22502e-05
7.14152e-05
3.8863e-05
1.91426e-05
3.1463e-05
3.8353e-05
3.04217e-05
1.80573e-05
1.75974e-05
1.32089e-05
1.06985e-05
1.40049e-05
1.96626e-05
2.03766e-05
1.5555e-05
1.87721e-05
2.09002e-05
3.44278e-05
5.54475e-05
6.08837e-05
5.20208e-05
4.19111e-05
3.40062e-05
2.41744e-05
1.88207e-05
2.61085e-05
3.7441e-05
4.27447e-05
3.56541e-05
2.5733e-05
1.55792e-05
1.64136e-05
1.38581e-05
1.71621e-05
1.83566e-05
2.56302e-05
1.86653e-05
2.69416e-05
2.73505e-05
2.39975e-05
6.25078e-05
8.07691e-05
6.65974e-05
3.27689e-05
1.6972e-05
3.40973e-05
4.03781e-05
2.93892e-05
1.46718e-05
1.28129e-05
8.53134e-06
1.45959e-05
1.45687e-05
1.41748e-05
1.53452e-05
1.52378e-05
2.63753e-05
2.4418e-05
2.6842e-05
4.64119e-05
4.97777e-05
4.25953e-05
3.4793e-05
2.51553e-05
1.5044e-05
2.02419e-05
2.75943e-05
3.66259e-05
3.40173e-05
2.79571e-05
1.81125e-05
8.8141e-06
1.69936e-05
1.80282e-05
2.55296e-05
2.97591e-05
3.27947e-05
2.39324e-05
2.82337e-05
2.37926e-05
2.55342e-05
6.24684e-05
7.40912e-05
5.69457e-05
2.53008e-05
1.78063e-05
3.38678e-05
3.71949e-05
2.66865e-05
1.58328e-05
1.25593e-05
1.27562e-05
1.83076e-05
1.76302e-05
1.59548e-05
1.51548e-05
1.38319e-05
2.83913e-05
2.69678e-05
2.0837e-05
3.26577e-05
3.4051e-05
2.9992e-05
2.59693e-05
1.81833e-05
1.50156e-05
2.1579e-05
2.72824e-05
3.00631e-05
2.34197e-05
1.80002e-05
8.51839e-06
1.01922e-05
1.9672e-05
2.00725e-05
1.50755e-05
2.64902e-05
3.11016e-05
2.73288e-05
3.00811e-05
1.5735e-05
3.21598e-05
6.08708e-05
6.20055e-05
4.32016e-05
1.73866e-05
1.92365e-05
3.10592e-05
3.20069e-05
2.46151e-05
1.80074e-05
1.37454e-05
1.50553e-05
1.96574e-05
1.99868e-05
1.82388e-05
1.74584e-05
1.44053e-05
2.48341e-05
2.29976e-05
1.14722e-05
9.25306e-06
1.33755e-05
2.02473e-05
2.22068e-05
1.50383e-05
1.58359e-05
2.13721e-05
2.73215e-05
2.16091e-05
1.56822e-05
1.22365e-05
9.08063e-06
1.39158e-05
1.69528e-05
9.67911e-06
1.23486e-05
1.96567e-05
1.92766e-05
2.5909e-05
2.88135e-05
1.3343e-05
4.1897e-05
5.65777e-05
4.85104e-05
3.03279e-05
1.27245e-05
2.06353e-05
2.71961e-05
2.57287e-05
2.15279e-05
1.88098e-05
1.69792e-05
1.79417e-05
1.97763e-05
1.89907e-05
1.83203e-05
1.52068e-05
1.20029e-05
2.14483e-05
2.30057e-05
1.61339e-05
1.27258e-05
1.45159e-05
1.66442e-05
1.62144e-05
1.04949e-05
1.51987e-05
2.2721e-05
2.36503e-05
1.64737e-05
1.27755e-05
1.57659e-05
1.22448e-05
1.11817e-05
8.41394e-06
6.94566e-06
1.32094e-05
1.35565e-05
1.56519e-05
2.93995e-05
2.05071e-05
2.5411e-05
5.0705e-05
4.94219e-05
3.54883e-05
1.99608e-05
1.45943e-05
2.15809e-05
2.44632e-05
2.38708e-05
2.39736e-05
2.29147e-05
2.09006e-05
2.12805e-05
2.09322e-05
1.89174e-05
1.83068e-05
1.8275e-05
1.75456e-05
1.66435e-05
1.80811e-05
2.23074e-05
1.87141e-05
9.50991e-06
1.23653e-05
1.23512e-05
1.1188e-05
1.59326e-05
2.11171e-05
1.9593e-05
1.51983e-05
1.60691e-05
1.70431e-05
1.11594e-05
1.58258e-05
1.6683e-05
7.67528e-06
1.43317e-05
1.68449e-05
2.58078e-05
3.25871e-05
1.163e-05
4.30758e-05
5.8109e-05
4.87429e-05
3.54294e-05
2.61116e-05
2.38799e-05
2.59154e-05
2.67482e-05
2.83477e-05
2.91631e-05
2.71478e-05
2.46248e-05
2.13964e-05
1.91492e-05
1.98773e-05
2.04973e-05
1.88265e-05
1.61396e-05
1.85608e-05
2.12983e-05
1.58186e-05
7.74726e-06
1.50196e-05
1.70234e-05
1.18521e-05
1.40862e-05
1.81489e-05
1.80823e-05
1.6371e-05
1.5339e-05
1.54073e-05
1.32297e-05
1.77062e-05
2.30156e-05
2.17752e-05
1.52441e-05
1.81122e-05
2.19783e-05
3.08603e-05
3.21702e-05
1.43489e-05
4.67064e-05
6.64982e-05
6.74811e-05
5.88287e-05
4.61647e-05
3.63833e-05
3.16697e-05
3.03493e-05
3.08949e-05
3.06425e-05
2.75427e-05
2.15379e-05
1.90707e-05
2.21713e-05
2.21731e-05
1.78307e-05
1.48538e-05
1.61832e-05
1.52898e-05
1.02554e-05
8.8575e-06
1.7297e-05
2.26556e-05
1.76563e-05
1.56969e-05
1.91614e-05
2.02669e-05
1.87291e-05
1.76046e-05
1.72607e-05
1.5965e-05
1.64237e-05
1.37564e-05
1.47504e-05
1.91887e-05
2.43498e-05
2.95369e-05
3.04738e-05
2.88947e-05
2.62029e-05
1.72596e-05
3.13676e-05
5.87807e-05
7.42453e-05
6.9754e-05
5.3511e-05
3.77575e-05
2.89604e-05
2.67854e-05
2.65639e-05
2.20963e-05
1.37491e-05
1.86213e-05
2.48443e-05
2.22378e-05
1.75916e-05
1.91949e-05
2.04279e-05
1.44378e-05
6.68505e-06
8.24846e-06
1.57892e-05
2.51442e-05
2.61125e-05
2.05448e-05
1.90327e-05
1.88571e-05
2.08815e-05
2.43093e-05
2.42336e-05
2.06978e-05
2.64258e-05
1.78207e-05
1.4912e-05
1.89562e-05
2.23498e-05
2.5351e-05
2.84496e-05
2.76288e-05
2.16502e-05
2.01739e-05
2.46616e-05
2.32405e-05
3.06388e-05
4.98957e-05
5.74345e-05
5.04083e-05
3.82845e-05
2.71373e-05
1.69792e-05
9.29893e-06
9.79092e-06
1.27091e-05
1.49262e-05
2.00021e-05
2.64138e-05
3.01e-05
2.74392e-05
1.78669e-05
1.47109e-05
1.84058e-05
1.59579e-05
1.63835e-05
1.91855e-05
1.67527e-05
1.55264e-05
1.62198e-05
1.9454e-05
2.92705e-05
3.64286e-05
3.45968e-05
4.19534e-05
3.57076e-05
2.57446e-05
1.80866e-05
1.48889e-05
1.34909e-05
1.65801e-05
2.10842e-05
2.26368e-05
2.03807e-05
2.0587e-05
2.59181e-05
2.73344e-05
2.38251e-05
2.65755e-05
3.31381e-05
3.16973e-05
2.42632e-05
1.93956e-05
1.70188e-05
1.5338e-05
1.79763e-05
1.87577e-05
2.15044e-05
2.94745e-05
3.32457e-05
2.8535e-05
1.66354e-05
9.65796e-06
1.8159e-05
2.2764e-05
2.10882e-05
1.6208e-05
1.2356e-05
1.10282e-05
1.48848e-05
2.16891e-05
3.12084e-05
4.01927e-05
4.3693e-05
3.50591e-05
3.96816e-05
3.78301e-05
2.98737e-05
2.14479e-05
1.84913e-05
2.00515e-05
2.16227e-05
2.21832e-05
2.04128e-05
1.64823e-05
1.53317e-05
1.9913e-05
2.22916e-05
1.92899e-05
1.75816e-05
1.74873e-05
1.4478e-05
1.22006e-05
1.39813e-05
1.45638e-05
1.64852e-05
2.32495e-05
2.86923e-05
2.80312e-05
2.22815e-05
1.49369e-05
7.62441e-06
2.33109e-06
1.03123e-05
2.25307e-05
2.8346e-05
2.58666e-05
2.17741e-05
1.90035e-05
1.6978e-05
2.03256e-05
2.63196e-05
3.04004e-05
3.1523e-05
1.79651e-05
2.16088e-05
2.64768e-05
2.88433e-05
2.86839e-05
2.83242e-05
2.80854e-05
2.61664e-05
2.12663e-05
1.52277e-05
1.27168e-05
1.28559e-05
1.17851e-05
1.17616e-05
1.49624e-05
1.87507e-05
2.13416e-05
2.11631e-05
1.82299e-05
1.35566e-05
1.02161e-05
1.15988e-05
1.38736e-05
1.75832e-05
2.06422e-05
1.73192e-05
1.06722e-05
9.02669e-06
8.09053e-06
9.81648e-06
1.76305e-05
2.4564e-05
2.84559e-05
2.71405e-05
2.28195e-05
2.02333e-05
2.14559e-05
2.34181e-05
2.17286e-05
1.80329e-05
7.49872e-06
4.79262e-06
6.98545e-06
1.12563e-05
1.51072e-05
1.70107e-05
1.63999e-05
1.43664e-05
1.32105e-05
1.25993e-05
1.06588e-05
8.69917e-06
1.16277e-05
1.48036e-05
1.58675e-05
1.76724e-05
1.96471e-05
2.05746e-05
2.22292e-05
2.32582e-05
2.21254e-05
2.23906e-05
2.50413e-05
2.53048e-05
2.214e-05
1.87922e-05
1.57163e-05
1.0712e-05
7.61747e-06
1.14551e-05
1.30485e-05
1.00374e-05
1.31403e-05
2.08897e-05
2.22518e-05
2.08585e-05
2.19129e-05
2.1221e-05
1.66578e-05
1.17135e-05
1.51496e-05
1.36218e-05
1.09267e-05
1.18545e-05
1.4443e-05
1.41109e-05
1.21935e-05
1.15499e-05
1.13049e-05
1.12715e-05
1.14081e-05
1.00461e-05
9.82433e-06
1.08686e-05
9.76959e-06
9.70437e-06
1.25505e-05
1.19023e-05
1.05012e-05
1.55656e-05
1.84822e-05
1.56192e-05
1.11562e-05
1.24812e-05
1.69295e-05
1.8054e-05
1.48833e-05
1.2151e-05
1.12316e-05
1.23307e-05
1.94945e-05
2.65861e-05
2.84345e-05
2.60698e-05
2.17435e-05
1.6737e-05
1.45898e-05
1.44241e-05
1.45998e-05
1.49984e-05
2.38049e-05
2.28179e-05
1.79251e-05
9.52667e-06
5.34018e-06
6.87704e-06
6.77318e-06
1.18364e-05
1.63327e-05
1.76914e-05
1.74268e-05
1.59954e-05
1.5841e-05
1.84192e-05
2.10112e-05
2.29184e-05
2.43842e-05
2.39927e-05
2.08499e-05
1.6502e-05
1.49898e-05
1.66686e-05
1.52901e-05
1.01855e-05
1.16264e-05
1.57755e-05
1.6808e-05
1.89861e-05
2.00257e-05
1.81622e-05
2.40458e-05
3.28303e-05
3.28347e-05
2.60133e-05
2.25049e-05
2.05527e-05
1.84978e-05
1.87498e-05
2.02505e-05
2.24578e-05
4.64305e-05
4.36612e-05
4.33508e-05
4.40736e-05
4.52541e-05
4.71573e-05
5.02704e-05
5.39931e-05
5.75673e-05
6.07726e-05
6.36679e-05
6.61866e-05
6.81948e-05
6.9648e-05
7.05026e-05
7.0728e-05
7.05653e-05
7.04335e-05
7.05126e-05
7.04595e-05
6.99056e-05
6.90642e-05
6.81824e-05
6.73336e-05
6.67355e-05
6.65045e-05
6.67627e-05
6.7892e-05
6.98439e-05
7.27865e-05
7.70619e-05
8.14488e-05
8.41466e-05
8.48667e-05
8.44262e-05
8.28551e-05
7.89263e-05
7.1326e-05
6.13543e-05
5.23603e-05
4.91739e-05
4.4662e-05
4.31427e-05
4.30091e-05
4.40324e-05
4.62757e-05
4.95421e-05
5.32429e-05
5.68958e-05
6.04721e-05
6.39919e-05
6.72643e-05
6.99796e-05
7.2018e-05
7.31576e-05
7.35273e-05
7.38001e-05
7.44194e-05
7.50157e-05
7.4868e-05
7.38591e-05
7.24531e-05
7.09893e-05
6.95059e-05
6.80552e-05
6.68508e-05
6.63251e-05
6.71095e-05
6.95765e-05
7.39111e-05
7.95182e-05
8.44234e-05
8.7368e-05
8.86227e-05
8.85671e-05
8.70553e-05
8.38621e-05
7.78804e-05
6.84806e-05
5.76891e-05
5.46662e-05
4.60083e-05
4.18567e-05
4.05008e-05
4.10626e-05
4.32622e-05
4.66501e-05
5.06646e-05
5.47718e-05
5.88945e-05
6.30607e-05
6.70542e-05
7.05145e-05
7.3271e-05
7.50212e-05
7.59332e-05
7.68395e-05
7.81773e-05
7.92684e-05
7.91954e-05
7.79028e-05
7.59235e-05
7.36431e-05
7.10713e-05
6.82518e-05
6.57467e-05
6.41464e-05
6.41641e-05
6.64366e-05
7.11999e-05
7.75301e-05
8.32257e-05
8.71799e-05
8.97801e-05
9.07919e-05
8.99906e-05
8.8503e-05
8.57318e-05
7.88065e-05
6.7102e-05
6.40813e-05
4.98342e-05
4.10359e-05
3.73836e-05
3.68969e-05
3.88738e-05
4.25234e-05
4.70636e-05
5.17605e-05
5.63824e-05
6.10252e-05
6.55218e-05
6.96219e-05
7.30958e-05
7.56403e-05
7.73153e-05
7.89489e-05
8.10759e-05
8.27821e-05
8.30603e-05
8.18513e-05
7.95791e-05
7.64958e-05
7.25395e-05
6.77738e-05
6.33014e-05
6.01413e-05
5.88758e-05
6.01655e-05
6.44033e-05
7.07326e-05
7.70354e-05
8.2156e-05
8.66404e-05
8.9548e-05
8.98033e-05
8.98102e-05
9.07198e-05
8.84994e-05
7.90332e-05
7.70623e-05
5.90506e-05
4.37335e-05
3.54802e-05
3.24346e-05
3.33832e-05
3.70275e-05
4.20617e-05
4.73528e-05
5.23871e-05
5.72272e-05
6.18659e-05
6.6232e-05
7.01933e-05
7.34988e-05
7.59575e-05
7.82537e-05
8.10028e-05
8.3319e-05
8.42112e-05
8.3774e-05
8.21211e-05
7.89431e-05
7.39514e-05
6.70544e-05
5.9807e-05
5.42975e-05
5.12052e-05
5.08792e-05
5.36578e-05
5.90595e-05
6.50619e-05
7.04551e-05
7.64947e-05
8.23113e-05
8.44172e-05
8.50108e-05
8.87053e-05
9.26584e-05
8.96643e-05
8.89505e-05
7.35726e-05
5.33366e-05
3.80375e-05
2.99129e-05
2.77856e-05
3.03745e-05
3.54422e-05
4.1046e-05
4.62509e-05
5.09531e-05
5.52335e-05
5.9202e-05
6.3094e-05
6.68547e-05
6.99921e-05
7.27244e-05
7.55398e-05
7.77297e-05
7.87198e-05
7.95514e-05
8.0231e-05
7.88716e-05
7.43838e-05
6.63497e-05
5.61864e-05
4.74727e-05
4.21239e-05
4.02086e-05
4.17325e-05
4.59616e-05
5.03564e-05
5.4202e-05
5.89226e-05
6.7144e-05
7.26521e-05
7.29432e-05
7.66093e-05
8.61232e-05
9.2845e-05
9.13564e-05
8.72205e-05
6.96197e-05
4.84587e-05
3.32145e-05
2.50195e-05
2.42326e-05
2.86275e-05
3.4146e-05
3.87579e-05
4.2267e-05
4.50855e-05
4.74499e-05
5.01538e-05
5.37469e-05
5.74899e-05
6.06374e-05
6.28672e-05
6.31894e-05
6.20209e-05
6.30789e-05
6.76672e-05
7.13821e-05
7.06231e-05
6.44379e-05
5.34602e-05
4.21622e-05
3.48372e-05
3.15778e-05
3.29511e-05
3.83308e-05
4.02402e-05
4.02837e-05
4.17966e-05
4.69388e-05
5.53477e-05
5.58292e-05
5.46509e-05
6.50229e-05
8.15602e-05
7.47626e-05
8.88124e-05
8.51456e-05
6.61208e-05
4.53012e-05
3.02882e-05
2.18267e-05
2.25884e-05
2.92221e-05
3.43357e-05
3.57703e-05
3.51352e-05
3.39016e-05
3.26598e-05
3.33201e-05
3.64576e-05
4.0706e-05
4.23672e-05
3.73294e-05
2.78346e-05
2.46469e-05
3.39278e-05
4.84734e-05
5.72037e-05
5.76975e-05
5.08019e-05
4.03556e-05
3.2479e-05
2.90295e-05
3.08442e-05
3.78639e-05
4.04576e-05
3.62907e-05
3.16644e-05
3.24081e-05
3.71961e-05
4.03282e-05
3.22656e-05
3.18792e-05
5.0434e-05
3.41268e-05
6.63449e-05
8.59113e-05
8.23686e-05
6.31367e-05
4.45808e-05
3.09958e-05
2.05177e-05
2.19983e-05
3.18028e-05
3.59555e-05
3.2595e-05
2.7083e-05
2.20571e-05
1.92943e-05
1.93979e-05
1.98712e-05
1.7555e-05
1.24356e-05
1.49526e-05
2.22715e-05
2.2834e-05
2.0154e-05
3.25952e-05
4.33618e-05
4.52088e-05
3.9591e-05
3.28778e-05
3.12484e-05
3.27648e-05
3.52355e-05
3.67859e-05
3.37773e-05
3.32917e-05
2.33706e-05
2.48673e-05
2.72789e-05
2.57269e-05
1.25501e-05
1.53486e-05
1.93895e-05
1.98441e-05
5.79534e-05
8.14826e-05
7.72977e-05
6.01224e-05
4.68969e-05
3.54178e-05
2.00703e-05
2.2316e-05
3.5496e-05
3.74146e-05
2.97753e-05
2.09489e-05
1.57913e-05
1.65188e-05
1.76549e-05
1.7283e-05
1.84454e-05
1.72156e-05
1.58784e-05
2.31222e-05
2.48466e-05
1.79916e-05
2.75202e-05
3.72883e-05
3.75092e-05
3.2162e-05
3.10345e-05
3.34262e-05
3.16977e-05
2.87252e-05
2.46306e-05
2.41248e-05
2.56723e-05
1.44676e-05
2.03094e-05
2.06604e-05
1.8567e-05
1.0002e-05
1.84887e-05
2.78965e-05
1.52042e-05
5.21778e-05
7.47827e-05
7.0251e-05
5.74187e-05
5.02807e-05
3.9776e-05
1.94953e-05
2.41367e-05
3.75952e-05
3.71091e-05
2.83078e-05
1.92996e-05
1.44398e-05
1.70374e-05
2.24875e-05
2.09546e-05
1.07266e-05
8.84023e-06
1.2103e-05
1.97719e-05
1.97754e-05
1.60879e-05
2.94699e-05
3.58315e-05
3.34447e-05
3.0976e-05
2.84736e-05
2.52377e-05
2.32127e-05
2.13084e-05
1.55451e-05
1.52999e-05
1.3117e-05
1.85042e-05
1.56292e-05
1.88662e-05
1.67076e-05
2.08535e-05
2.5923e-05
2.92e-05
1.76803e-05
4.97978e-05
6.82547e-05
6.28188e-05