/*--------------------------------*- C++ -*----------------------------------*\
| =========                 |                                                 |
| \\      /  F ield         | OpenFOAM: The Open Source CFD Toolbox           |
|  \\    /   O peration     | Version:  2306                                  |
|   \\  /    A nd           | Website:  www.openfoam.com                      |
|    \\/     M anipulation  |                                                 |
\*---------------------------------------------------------------------------*/
FoamFile
{
    version     2.0;
    format      ascii;
    arch        "LSB;label=32;scalar=64";
    class       surfaceScalarField;
    location    "10";
    object      phi_0;
}
// * * * * * * * * * * * * * * * * * * * * * * * * * * * * * * * * * * * * * //

dimensions      [0 3 -1 0 0 0 0];

oriented        oriented;

internalField   nonuniform List<scalar> 
175300
(
4.05586e-06
2.24504e-07
-1.08951e-06
4.20799e-06
3.70597e-07
-8.43453e-07
4.40376e-06
3.65362e-07
-6.56605e-07
4.68184e-06
3.01708e-07
-4.23738e-07
5.01413e-06
1.77036e-07
-1.10934e-08
5.34929e-06
1.93807e-07
3.97129e-07
5.55538e-06
3.6401e-07
8.67065e-07
5.5366e-06
6.46893e-07
1.32672e-06
5.32896e-06
8.79295e-07
1.68106e-06
5.06974e-06
9.18135e-07
1.828e-06
4.86482e-06
7.87497e-07
1.74552e-06
4.71356e-06
6.05534e-07
1.53667e-06
4.57177e-06
4.28176e-07
1.35208e-06
4.41418e-06
2.58005e-07
1.27972e-06
4.22678e-06
9.16519e-08
1.30892e-06
3.99094e-06
-3.73075e-08
1.37355e-06
3.71023e-06
-1.11027e-07
1.40893e-06
3.4669e-06
-2.02936e-07
1.37439e-06
3.35934e-06
-3.09379e-07
1.24048e-06
3.37841e-06
-3.36823e-07
9.83768e-07
3.42839e-06
-2.98638e-07
6.60988e-07
3.5064e-06
-3.63662e-07
3.89592e-07
3.67489e-06
-4.36294e-07
1.75576e-07
3.91838e-06
-3.91352e-07
-5.34317e-08
4.14773e-06
-1.59486e-07
-2.44665e-07
4.35199e-06
1.25319e-07
-3.48007e-07
4.55192e-06
2.58016e-07
-2.53803e-07
4.72863e-06
1.51028e-07
-7.73962e-08
4.84889e-06
-1.96599e-07
1.11165e-08
4.97167e-06
-7.95528e-07
-1.23064e-07
5.13837e-06
-1.18442e-06
-5.6475e-07
5.23821e-06
-1.03108e-06
-1.12785e-06
5.16005e-06
-5.04353e-07
-1.5348e-06
4.92654e-06
2.23614e-08
-1.79377e-06
4.59593e-06
3.89343e-07
-2.03755e-06
4.20266e-06
5.20504e-07
-2.1467e-06
3.8454e-06
3.58294e-07
-2.03427e-06
3.67052e-06
6.5686e-08
-1.83158e-06
3.72042e-06
-8.34913e-08
-1.62806e-06
5.47425e-09
-1.37569e-06
1.32427e-05
7.6722e-07
-3.16778e-06
1.38323e-05
1.13754e-06
-2.46869e-06
1.46361e-05
9.68605e-07
-1.84047e-06
1.56762e-05
5.93448e-07
-1.02701e-06
1.68491e-05
1.96569e-07
1.51941e-07
1.79624e-05
2.81721e-07
1.45958e-06
1.864e-05
9.11938e-07
2.90912e-06
1.85999e-05
1.92013e-06
4.29578e-06
1.79356e-05
2.76686e-06
5.3212e-06
1.7072e-05
2.95371e-06
5.68196e-06
1.6371e-05
2.51682e-06
5.3615e-06
1.58804e-05
1.86474e-06
4.69249e-06
1.5469e-05
1.24664e-06
4.10341e-06
1.50079e-05
6.96022e-07
3.81824e-06
1.44056e-05
1.98928e-07
3.80688e-06
1.36222e-05
-1.8083e-07
3.92325e-06
1.27339e-05
-4.67734e-07
4.00932e-06
1.19743e-05
-8.49556e-07
3.92567e-06
1.15574e-05
-1.26974e-06
3.56306e-06
1.14669e-05
-1.41895e-06
2.88269e-06
1.15381e-05
-1.33153e-06
2.03762e-06
1.17631e-05
-1.43532e-06
1.27888e-06
1.22179e-05
-1.49836e-06
5.98701e-07
1.28379e-05
-1.07224e-06
-1.07351e-07
1.34824e-05
-2.55368e-07
-6.21066e-07
1.41616e-05
5.12542e-07
-7.80857e-07
1.49206e-05
5.9692e-07
-4.45258e-07
1.57095e-05
-1.89302e-07
5.43803e-08
1.64575e-05
-1.7811e-06
2.37985e-07
1.71871e-05
-3.86657e-06
-1.99058e-07
1.77862e-05
-4.86894e-06
-1.43868e-06
1.79236e-05
-3.93416e-06
-2.97487e-06
1.74711e-05
-1.86007e-06
-4.20011e-06
1.66242e-05
5.51824e-08
-5.07919e-06
1.55986e-05
1.22352e-06
-5.70759e-06
1.44831e-05
1.45717e-06
-5.82695e-06
1.3427e-05
8.30197e-07
-5.46502e-06
1.27166e-05
-3.35646e-09
-5.01088e-06
1.25437e-05
-3.1202e-07
-4.56401e-06
7.46855e-08
-3.93575e-06
2.4229e-05
1.38723e-06
-5.65066e-06
2.53057e-05
1.9551e-06
-4.56653e-06
2.68697e-05
1.38804e-06
-3.53617e-06
2.88724e-05
2.73019e-07
-2.20365e-06
3.11336e-05
-7.49505e-07
-1.52952e-07
3.33344e-05
-5.77959e-07
2.04586e-06
3.48509e-05
7.13989e-07
4.61638e-06
3.51087e-05
2.84893e-06
7.12425e-06
3.41014e-05
4.78937e-06
9.04814e-06
3.25011e-05
5.48094e-06
9.8527e-06
3.10706e-05
4.81628e-06
9.45148e-06
3.00752e-05
3.54483e-06
8.35762e-06
2.93433e-05
2.27226e-06
7.29731e-06
2.85953e-05
1.16663e-06
6.66325e-06
2.76084e-05
2.29253e-07
6.4365e-06
2.62891e-05
-4.67593e-07
6.45342e-06
2.47368e-05
-1.03153e-06
6.53931e-06
2.32712e-05
-1.79441e-06
6.47813e-06
2.22388e-05
-2.65549e-06
6.03702e-06
2.17309e-05
-3.04911e-06
5.09154e-06
2.16078e-05
-2.99383e-06
3.84754e-06
2.1853e-05
-3.16709e-06
2.66174e-06
2.25119e-05
-3.11983e-06
1.51967e-06
2.3463e-05
-1.97958e-06
2.56274e-07
2.45457e-05
-2.68031e-07
-6.29059e-07
2.58134e-05
1.0358e-06
-8.60214e-07
2.734e-05
6.67962e-07
-2.07377e-07
2.90269e-05
-1.50336e-06
7.02275e-07
3.07308e-05
-5.42836e-06
1.32625e-06
3.24047e-05
-9.91758e-06
8.06125e-07
3.37144e-05
-1.18535e-05
-1.0531e-06
3.40403e-05
-9.50973e-06
-3.66066e-06
3.32363e-05
-4.77027e-06
-5.99611e-06
3.17528e-05
-4.70111e-07
-7.78606e-06
3.00437e-05
2.05461e-06
-8.95312e-06
2.82339e-05
2.47082e-06
-9.13593e-06
2.63577e-05
1.20621e-06
-8.55356e-06
2.47013e-05
-2.85087e-07
-7.93256e-06
2.37398e-05
-7.10923e-07
-7.45537e-06
1.04699e-07
-6.72206e-06
3.70785e-05
1.81294e-06
-8.67398e-06
3.84263e-05
2.49099e-06
-7.56142e-06
4.07172e-05
1.24295e-06
-6.4273e-06
4.37679e-05
-1.12297e-06
-4.84613e-06
4.73342e-05
-3.41323e-06
-2.29492e-06
5.10288e-05
-3.75847e-06
1.0867e-06
5.40179e-05
-1.69092e-06
4.88393e-06
5.52911e-05
2.01712e-06
8.84167e-06
5.44352e-05
5.73702e-06
1.21436e-05
5.21492e-05
7.66922e-06
1.39358e-05
4.97086e-05
7.26526e-06
1.39134e-05
4.79084e-05
5.47678e-06
1.26353e-05
4.67261e-05
3.40724e-06
1.11383e-05
4.57299e-05
1.57167e-06
1.00607e-05
4.4494e-05
8.86868e-08
9.42133e-06
4.27927e-05
-9.44019e-07
9.08122e-06
4.06343e-05
-1.72153e-06
8.9806e-06
3.82829e-05
-2.75276e-06
8.94976e-06
3.61812e-05
-3.97795e-06
8.61889e-06
3.46804e-05
-4.68569e-06
7.65986e-06
3.38577e-05
-4.90284e-06
6.24136e-06
3.37735e-05
-5.46788e-06
4.81926e-06
3.44329e-05
-5.4807e-06
3.34061e-06
3.56158e-05
-3.43123e-06
1.58343e-06
3.71245e-05
-2.98516e-07
2.37265e-08
3.90556e-05
1.5638e-06
-2.84094e-07
4.15084e-05
4.34085e-07
6.63104e-07
4.42502e-05
-3.96352e-06
2.40918e-06
4.70162e-05
-1.13085e-05
4.03827e-06
4.98476e-05
-1.96087e-05
4.15128e-06
5.23547e-05
-2.33389e-05
1.9345e-06
5.34709e-05
-1.93477e-05
-1.91081e-06
5.27671e-05
-1.07425e-05
-5.88177e-06
5.0897e-05
-2.68085e-06
-9.19577e-06
4.86644e-05
2.23858e-06
-1.14487e-05
4.63116e-05
3.33336e-06
-1.20288e-05
4.36481e-05
1.47351e-06
-1.12794e-05
4.06938e-05
-7.30856e-07
-1.04351e-05
3.81613e-05
-1.26174e-06
-1.00464e-05
-2.36053e-08
-9.59643e-06
5.23127e-05
2.00547e-06
-1.18004e-05
5.31273e-05
2.62443e-06
-1.13707e-05
5.55946e-05
3.78065e-07
-1.08203e-05
5.93179e-05
-3.98704e-06
-9.65144e-06
6.40563e-05
-8.75223e-06
-7.15867e-06
6.95094e-05
-1.1036e-05
-2.99347e-06
7.47948e-05
-8.76023e-06
2.14069e-06
7.83407e-05
-2.89244e-06
7.89585e-06
7.88474e-05
3.69422e-06
1.33447e-05
7.65147e-05
8.16856e-06
1.70154e-05
7.30026e-05
9.10651e-06
1.82001e-05
7.00057e-05
7.36059e-06
1.72921e-05
6.80874e-05
4.54802e-06
1.56179e-05
6.68139e-05
1.81978e-06
1.42089e-05
6.5504e-05
-3.49988e-07
1.31381e-05
6.3706e-05
-1.72692e-06
1.21987e-05
6.12237e-05
-2.55553e-06
1.15362e-05
5.8065e-05
-3.54376e-06
1.12947e-05
5.45485e-05
-4.76276e-06
1.1124e-05
5.12884e-05
-5.56262e-06
1.0394e-05
4.88381e-05
-6.23713e-06
9.07801e-06
4.76346e-05
-7.86728e-06
7.743e-06
4.77995e-05
-8.64378e-06
6.26309e-06
4.89679e-05
-5.77026e-06
4.13892e-06
5.07755e-05
-7.75805e-07
1.98037e-06
5.33127e-05
2.13485e-06
1.24618e-06
5.66736e-05
1.03433e-07
2.60181e-06
6.03281e-05
-7.217e-06
5.57844e-06
6.36616e-05
-1.89534e-05
8.85685e-06
6.7177e-05
-3.22132e-05
1.04607e-05
7.12892e-05
-3.99573e-05
8.74229e-06
7.45288e-05
-3.56217e-05
3.99733e-06
7.53262e-05
-2.23115e-05
-2.234e-06
7.39976e-05
-8.58242e-06
-8.14022e-06
7.17544e-05
5.78888e-07
-1.25731e-05
6.92088e-05
3.62205e-06
-1.43393e-05
6.60738e-05
1.66996e-06
-1.36635e-05
6.1877e-05
-1.15613e-06
-1.24364e-05
5.71979e-05
-1.76179e-06
-1.197e-05
-1.9124e-07
-1.19935e-05
7.16686e-05
2.32528e-06
-1.39917e-05
7.06818e-05
2.6343e-06
-1.48134e-05
7.20388e-05
-8.47904e-07
-1.56364e-05
7.50242e-05
-7.80489e-06
-1.58879e-05
7.95176e-05
-1.63879e-05
-1.46607e-05
8.57304e-05
-2.26999e-05
-1.13246e-05
9.34779e-05
-2.29178e-05
-5.63587e-06
0.000101035
-1.59555e-05
1.85141e-06
0.000105368
-4.88671e-06
1.02915e-05
0.000104925
4.49129e-06
1.72756e-05
0.000101131
8.80891e-06
2.10549e-05
9.67831e-05
8.43853e-06
2.15333e-05
9.3734e-05
5.40966e-06
2.02279e-05
9.20073e-05
1.75387e-06
1.88727e-05
9.07093e-05
-1.28939e-06
1.77814e-05
8.91043e-05
-3.06654e-06
1.63884e-05
8.67805e-05
-3.75767e-06
1.48024e-05
8.33704e-05
-4.30144e-06
1.37717e-05
7.86906e-05
-4.9439e-06
1.3441e-05
7.32389e-05
-5.19511e-06
1.2985e-05
6.80253e-05
-5.94811e-06
1.19506e-05
6.42592e-05
-9.15461e-06
1.09869e-05
6.27553e-05
-1.19625e-05
9.98245e-06
6.32394e-05
-9.04517e-06
7.89706e-06
6.49655e-05
-1.82164e-06
5.1677e-06
6.78174e-05
2.82738e-06
4.04642e-06
7.18693e-05
7.63874e-08
5.86466e-06
7.62673e-05
-1.04391e-05
1.00809e-05
7.95215e-05
-2.66096e-05
1.48626e-05
8.1979e-05
-4.5168e-05
1.8115e-05
8.62002e-05
-5.87863e-05
1.82609e-05
9.24938e-05
-5.80026e-05
1.43771e-05
9.76116e-05
-4.23911e-05
6.86409e-06
9.93873e-05
-2.1495e-05
-2.65345e-06
9.86121e-05
-5.18583e-06
-1.10233e-05
9.66429e-05
2.25785e-06
-1.54982e-05
9.36391e-05
1.58961e-06
-1.56742e-05
8.88032e-05
-1.36076e-06
-1.40749e-05
8.21761e-05
-1.8551e-06
-1.31411e-05
2.88146e-08
-1.3322e-05
9.73149e-05
3.14812e-06
-1.4518e-05
9.4175e-05
2.88063e-06
-1.63837e-05
9.37553e-05
-1.73508e-06
-1.85819e-05
9.43117e-05
-1.08677e-05
-2.06019e-05
9.56839e-05
-2.32412e-05
-2.1825e-05
9.90571e-05
-3.47778e-05
-2.11788e-05
0.00010578
-4.04456e-05
-1.76705e-05
0.000116296
-3.69516e-05
-1.07394e-05
0.000127403
-2.45193e-05
-3.37084e-07
0.000133431
-8.36194e-06
1.1325e-05
0.000132392
3.08558e-06
2.00526e-05
0.000127668
6.88779e-06
2.38309e-05
0.000123383
5.137e-06
2.38578e-05
0.000121015
1.00423e-06
2.29807e-05
0.000119707
-3.02622e-06
2.25912e-05
0.000118386
-5.32447e-06
2.16957e-05
0.000116617
-5.73117e-06
1.95057e-05
0.00011387
-5.45634e-06
1.70946e-05
0.000109197
-5.00282e-06
1.58139e-05
0.00010229
-3.97023e-06
1.52866e-05
9.39875e-05
-3.78801e-06
1.45052e-05
8.6077e-05
-7.99109e-06
1.39585e-05
8.07648e-05
-1.37354e-05
1.37342e-05
7.89524e-05
-1.23387e-05
1.22192e-05
7.97261e-05
-3.25655e-06
9.24365e-06
8.23653e-05
3.82583e-06
7.78963e-06
8.67971e-05
1.01949e-06
9.96786e-06
9.23306e-05
-1.25164e-05
1.48269e-05
9.67858e-05
-3.2421e-05
1.9508e-05
9.82912e-05
-5.38139e-05
2.24158e-05
9.9083e-05
-7.17725e-05
2.44996e-05
0.000104142
-7.84522e-05
2.50248e-05
0.000113596
-6.74229e-05
2.03143e-05
0.000122156
-4.36739e-05
9.23119e-06
0.000126418
-1.84835e-05
-4.5711e-06
0.000126923
-2.9451e-06
-1.40913e-05
0.000124993
3.97016e-07
-1.68221e-05
0.000120445
-1.35221e-06
-1.54844e-05
0.000112925
-1.27278e-06
-1.38405e-05
1.00851e-06
-1.35371e-05
0.000128824
4.60036e-06
-1.34247e-05
0.000124636
3.54222e-06
-1.56027e-05
0.000123928
-1.79372e-06
-1.84855e-05
0.000122823
-1.14244e-05
-2.14549e-05
0.000119446
-2.52037e-05
-2.49088e-05
0.000116236
-4.0628e-05
-2.83978e-05
0.000116889
-5.28345e-05
-2.92323e-05
0.000123955
-5.65242e-05
-2.5563e-05
0.000137771
-4.90197e-05
-1.68787e-05
0.000152851
-3.18581e-05
-3.32197e-06
0.000160547
-1.30828e-05
1.17439e-05
0.000159264
-1.03339e-06
2.17874e-05
0.000154932
1.57019e-06
2.50814e-05
0.000152316
-1.57493e-06
2.49921e-05
0.000151377
-6.16539e-06
2.5461e-05
0.000150342
-8.88613e-06
2.63516e-05
0.000148957
-8.83463e-06
2.52161e-05
0.000147489
-7.47119e-06
2.18521e-05
0.000144592
-5.67626e-06
1.87817e-05
0.000138508
-3.06478e-06
1.73937e-05
0.00012883
-1.10031e-06
1.66108e-05
0.000116752
-4.68194e-06
1.63643e-05
0.000105444
-1.24099e-05
1.68925e-05
9.85238e-05
-1.36993e-05
1.63208e-05
9.65778e-05
-4.24401e-06
1.3514e-05
9.82184e-05
5.34641e-06
1.1691e-05
0.000102603
3.58353e-06
1.3873e-05
0.000109278
-1.196e-05
1.8696e-05
0.000116667
-3.49367e-05
2.18837e-05
0.000121169
-5.71185e-05
2.20924e-05
0.000120155
-7.39761e-05
2.3468e-05
0.000118534
-8.49443e-05
2.90871e-05
0.00012449
-8.46044e-05
3.24227e-05
0.000137497
-6.783e-05
2.51703e-05
0.000149801
-3.97e-05
8.5776e-06
0.00015625
-1.43763e-05
-7.95336e-06
0.000157041
-3.20279e-06
-1.5827e-05
0.000153729
-1.33985e-06
-1.63683e-05
0.000146749
-1.86166e-08
-1.42925e-05
2.79511e-06
-1.29512e-05
0.000160339
5.42218e-06
-1.06089e-05
0.000157404
4.14614e-06
-1.2076e-05
0.000158927
-1.08331e-06
-1.4836e-05
0.000159845
-9.46221e-06
-1.78582e-05
0.000154513
-2.10835e-05
-2.2302e-05
0.00014417
-3.64918e-05
-2.9653e-05
0.000135843
-5.35515e-05
-3.71296e-05
0.000134951
-6.5587e-05
-3.91636e-05
0.000143768
-6.65822e-05
-3.41477e-05
0.000161248
-5.58161e-05
-2.2121e-05
0.000178508
-3.69026e-05
-4.23802e-06
0.000185352
-1.77472e-05
1.3698e-05
0.00018334
-7.42607e-06
2.29081e-05
0.000181298
-7.55815e-06
2.41375e-05
0.000182347
-1.22609e-05
2.42964e-05
0.00018297
-1.47543e-05
2.6828e-05
0.000181469
-1.3061e-05
2.86073e-05
0.000180404
-9.97493e-06
2.6441e-05
0.000180402
-7.13282e-06
2.19993e-05
0.000178381
-3.63277e-06
1.90247e-05
0.000171399
-2.17354e-07
1.79058e-05
0.000158335
-2.00069e-06
1.79998e-05
0.000141136
-8.76962e-06
1.91474e-05
0.000126173
-1.13572e-05
1.96463e-05
0.000118323
-3.01225e-06
1.76026e-05
0.000117366
7.55711e-06
1.56164e-05
0.000121324
6.85385e-06
1.72533e-05
0.000128687
-9.39693e-06
2.10624e-05
0.000138131
-3.40889e-05
2.20773e-05
0.000146907
-5.6379e-05
1.89192e-05
0.000149734
-6.9391e-05
1.77491e-05
0.000144907
-7.71854e-05
2.54242e-05
0.000141625
-8.3625e-05
3.73194e-05
0.0001501
-8.14967e-05
3.8925e-05
0.000167165
-6.18513e-05
2.43866e-05
0.000181101
-3.21315e-05
4.03049e-06
0.000184915
-8.89623e-06
-1.11028e-05
0.000180886
6.6958e-07
-1.58743e-05
0.000174315
2.91551e-06
-1.44046e-05
4.19083e-06
-1.15795e-05
0.00017695
6.21392e-06
-6.24544e-06
0.000178299
3.40968e-06
-4.84476e-06
0.000185544
-2.46805e-06
-5.35476e-06
0.00019433
-9.29758e-06
-7.78586e-06
0.000194637
-1.49416e-05
-1.30975e-05
0.00018249
-2.46057e-05
-2.31647e-05
0.000166099
-4.21898e-05
-3.73823e-05
0.000155991
-6.12662e-05
-4.87421e-05
0.000156229
-7.08775e-05
-5.04209e-05
0.000167938
-6.92364e-05
-4.20152e-05
0.000188367
-5.87695e-05
-2.42947e-05
0.000205501
-4.10014e-05
-1.01135e-06
0.000209529
-2.25587e-05
1.67456e-05
0.000206492
-1.57724e-05
2.19942e-05
0.00020784
-2.08713e-05
2.0811e-05
0.000212781
-2.51081e-05
2.21194e-05
0.00021314
-1.97251e-05
2.5949e-05
0.000209422
-1.06474e-05
2.65761e-05
0.000208656
-5.7354e-06
2.25363e-05
0.000212004
-4.50423e-06
1.82755e-05
0.000213829
-3.72168e-06
1.69364e-05
0.000207148
-4.82016e-06
1.78986e-05
0.000189101
-7.11431e-06
1.99168e-05
0.000166086
-5.79232e-06
2.14259e-05
0.000148936
2.65485e-06
2.08397e-05
0.000142471
1.14327e-05
1.96374e-05
0.000144979
8.82339e-06
2.07141e-05
0.000153013
-9.25869e-06
2.25595e-05
0.000163949
-3.50234e-05
2.0163e-05
0.00017536
-5.56183e-05
1.21087e-05
0.000182527
-6.3127e-05
7.06014e-06
0.000180132
-6.36167e-05
1.55179e-05
0.000170841
-6.77286e-05
3.36328e-05
0.000168896
-7.74617e-05
4.50647e-05
0.000182198
-7.55405e-05
3.68486e-05
0.00019949
-5.12267e-05
1.56295e-05
0.000205037
-1.67137e-05
-4.19842e-06
0.000197181
5.74249e-06
-1.41124e-05
0.000186417
1.13049e-05
-1.44011e-05
8.54523e-06
-9.98954e-06
0.000189106
1.09233e-05
-3.4899e-06
0.000189123
6.52629e-06
2.42303e-06
0.000196584
-2.08572e-06
7.91239e-06
0.000212702
-1.16516e-05
9.71936e-06
0.00022625
-1.43876e-05
4.75437e-06
0.000223163
-1.31584e-05
-8.87971e-06
0.000205028
-2.32144e-05
-2.82496e-05
0.000186632
-4.54662e-05
-4.87668e-05
0.000178527
-6.30363e-05
-6.16677e-05
0.000181953
-6.90836e-05
-6.09623e-05
0.000196516
-6.8512e-05
-4.71495e-05
0.000218742
-6.21791e-05
-2.27288e-05
0.000235821
-4.66994e-05
2.94058e-06
0.000237945
-2.96573e-05
1.73564e-05
0.000233554
-2.71277e-05
1.8821e-05
0.00023566
-3.39231e-05
1.69289e-05
0.000241306
-3.07979e-05
1.88407e-05
0.000240757
-1.50268e-05
2.17584e-05
0.000235494
-1.01944e-06
2.05595e-05
0.000234589
1.31369e-06
1.64267e-05
0.000241923
-7.01803e-06
1.43521e-05
0.000249195
-1.72915e-05
1.60392e-05
0.000242064
-1.64462e-05
1.89366e-05
0.000218457
-3.01192e-06
2.08404e-05
0.000192538
1.22171e-05
2.16462e-05
0.000177827
1.90807e-05
2.29393e-05
0.000176091
1.10541e-05
2.52759e-05
0.000182675
-1.15152e-05
2.57239e-05
0.000193806
-4.00067e-05
1.92453e-05
0.000207374
-6.00205e-05
4.68871e-06
0.000218158
-6.18951e-05
-6.91127e-06
0.000219176
-5.16078e-05
-1.86408e-06
0.000208302
-4.70636e-05
2.2356e-05
0.000196851
-5.91831e-05
4.39135e-05
0.0001998
-7.43376e-05
4.40845e-05
0.000213689
-6.42258e-05
2.50344e-05
0.0002206
-2.65738e-05
3.15301e-06
0.000213654
8.46519e-06
-1.15251e-05
0.000201386
2.07411e-05
-1.51228e-05
1.66268e-05
-1.04888e-05
0.000214437
1.95866e-05
-8.43393e-06
0.000208625
1.50009e-05
-5.05005e-07
0.000209307
3.19585e-06
9.26287e-06
0.000222887
-1.29696e-05
1.98289e-05
0.000245067
-1.77653e-05
2.13232e-05
0.000257397
-8.9417e-06
9.812e-06
0.000248332
-5.0995e-06
-1.31843e-05
0.000226641
-2.217e-05
-3.90779e-05
0.000209564
-4.45479e-05
-6.21726e-05
0.000205899
-5.82842e-05
-7.39205e-05
0.000213758
-6.55146e-05
-6.9073e-05
0.000231081
-7.12667e-05
-4.83044e-05
0.000254189
-6.95785e-05
-1.87473e-05
0.000269486
-5.42469e-05
5.93128e-06
0.000268382
-3.78273e-05
1.52545e-05
0.000261554
-3.49775e-05
1.3423e-05
0.000262379
-3.5253e-05
1.18936e-05
0.000268451
-2.4214e-05
1.52956e-05
0.00026998
-5.40308e-06
1.85712e-05
0.000265374
7.33762e-06
1.72475e-05
0.000264238
-2.92121e-07
1.42835e-05
0.000274012
-2.57501e-05
1.45215e-05
0.000283058
-3.69589e-05
1.72138e-05
0.000273362
-1.54673e-05
1.84855e-05
0.000248614
1.58104e-05
1.95162e-05
0.000227572
2.72114e-05
2.42603e-05
0.000218568
1.66599e-05
3.04624e-05
0.000218257
-7.55252e-06
3.04387e-05
0.000223946
-3.81687e-05
1.95193e-05
0.000237281
-6.4779e-05
7.62108e-07
0.000253062
-7.00309e-05
-1.63659e-05
0.000259473
-5.04069e-05
-1.83722e-05
0.000250292
-3.24212e-05
5.43483e-06
0.000233259
-3.58354e-05
3.641e-05
0.000224337
-5.84949e-05
4.80517e-05
0.00022911
-6.42703e-05
3.43593e-05
0.00023568
-3.4169e-05
1.17994e-05
0.000234837
5.90653e-06
-6.94198e-06
0.000228445
2.44974e-05
-1.61857e-05
2.40338e-05
-1.51948e-05
0.000253315
2.75272e-05
-1.64776e-05
0.000243481
2.64226e-05
-1.2108e-05
0.000237218
1.25332e-05
-5.73704e-06
0.000242878
-9.48938e-06
7.94548e-06
0.000263234
-2.10713e-05
2.03551e-05
0.000285772
-1.04371e-05
1.77109e-05
0.000290798
4.55769e-06
3.06907e-08
0.000274536
-1.26855e-07
-2.61995e-05
0.000251146
-2.01173e-05
-5.3245e-05
0.0002386
-3.87112e-05
-7.6109e-05
0.00024169
-5.34978e-05
-8.45334e-05
0.000254627
-6.88589e-05
-7.251e-05
0.000273819
-8.13555e-05
-4.39825e-05
0.000293231
-7.67755e-05
-1.25756e-05
0.000300952
-5.55474e-05
6.70915e-06
0.00029526
-3.72825e-05
9.09512e-06
0.000288698
-3.09698e-05
6.36076e-06
0.000291275
-2.64047e-05
9.43446e-06
0.000299732
-1.48392e-05
1.68509e-05
0.000304063
1.47112e-06
2.05052e-05
0.000300976
5.32558e-06
1.83281e-05
0.000299511
-1.81317e-05
1.48939e-05
0.000307044
-4.43357e-05
1.40491e-05
0.00031314
-3.54586e-05
1.4363e-05
0.000305053
-8.72295e-08
1.64893e-05
0.000287809
2.17247e-05
2.48571e-05
0.000272249
1.99437e-05
3.53047e-05
0.000261685
5.30012e-06
3.45856e-05
0.000256789
-1.92983e-05
1.87774e-05
0.000263341
-5.30676e-05
-3.00859e-06
0.000281791
-7.50752e-05
-2.15134e-05
0.000296741
-6.13799e-05
-2.79958e-05
0.000293803
-3.0557e-05
-1.07804e-05
0.000275933
-1.90847e-05
2.52351e-05
0.000258238
-3.54696e-05
4.87821e-05
0.000251771
-4.98981e-05
4.43017e-05
0.000254103
-3.2047e-05
2.2506e-05
0.000258221
2.07622e-06
-3.36548e-07
0.000260844
2.17681e-05
-1.5947e-05
2.59067e-05
-2.01923e-05
0.000301117
2.80253e-05
-2.31897e-05
0.000293861
3.21918e-05
-2.32581e-05
0.000284541
2.16683e-05
-2.29993e-05
0.000281072
-1.40207e-06
-1.41404e-05
0.000292093
-1.81788e-05
1.70194e-06
0.000315961
-1.38851e-05
9.19423e-06
0.000333103
4.21059e-06
1.9698e-06
0.000326917
1.29413e-05
-1.7688e-05
0.000302563
2.9773e-06
-4.24558e-05
0.000281474
-1.41447e-05
-6.99119e-05
0.000277773
-3.39496e-05
-8.99104e-05
0.000288287
-5.75168e-05
-9.03777e-05
0.000304523
-8.13567e-05
-6.89e-05
0.000321303
-8.94341e-05
-3.52279e-05
0.000331509
-7.12362e-05
-7.5612e-06
0.000330275
-4.31679e-05
2.81579e-06
0.000323276
-2.58466e-05
1.11786e-06
0.00032043
-2.02398e-05
3.0011e-06
0.000326228
-1.65715e-05
1.32976e-05
0.000337034
-7.94773e-06
2.45166e-05
0.000343838
-8.70995e-08
2.69874e-05
0.000341463
-9.72212e-06
2.00268e-05
0.000336726
-3.26637e-05
1.21063e-05
0.000337367
-4.05139e-05
1.10129e-05
0.000337352
-2.18458e-05
1.7672e-05
0.000328357
1.51905e-06
3.01818e-05
0.000314439
1.33665e-05
3.95207e-05
0.000303377
1.35853e-05
3.37518e-05
0.000296586
7.35415e-07
1.30859e-05
0.000297225
-3.05419e-05
-9.40699e-06
0.000311731
-6.53491e-05
-2.59225e-05
0.000331397
-6.94519e-05
-3.12171e-05
0.000336592
-4.00756e-05
-1.90586e-05
0.000322057
-1.60703e-05
1.43637e-05
0.000300517
-1.75614e-05
4.60728e-05
0.000285332
-2.75832e-05
5.2524e-05
0.000281175
-1.8293e-05
3.53853e-05
0.000285482
5.01906e-06
9.60976e-06
0.000294228
1.90923e-05
-1.20845e-05
2.25226e-05
-2.23844e-05
0.0003428
2.31491e-05
-2.52282e-05
0.000345582
2.5709e-05
-3.09188e-05
0.000340861
2.08468e-05
-3.33761e-05
0.000331655
5.33834e-06
-2.66845e-05
0.000329926
-9.19295e-06
-1.3781e-05
0.000346176
-1.09913e-05
-4.51974e-06
0.000370187
1.29485e-06
-5.5774e-06
0.000377922
1.5779e-05
-1.52573e-05
0.000360519
1.87264e-05
-3.3204e-05
0.000335341
1.06886e-05
-5.98197e-05
0.000323957
-7.37411e-06
-8.75268e-05
0.000330303
-3.60132e-05
-0.000100534
0.000345045
-7.02374e-05
-9.00866e-05
0.000359718
-9.11304e-05
-6.04467e-05
0.000368958
-8.10207e-05
-2.6887e-05
0.000369273
-4.96874e-05
-7.28848e-06
0.000363337
-2.28684e-05
-4.08867e-06
0.000358365
-1.1255e-05
-3.25392e-06
0.000359888
-1.02199e-05
8.41151e-06
0.000369605
-1.04798e-05
2.5706e-05
0.000382155
-8.39341e-06
3.44787e-05
0.000386022
-1.03043e-05
2.77393e-05
0.000376293
-2.02214e-05
1.5645e-05
0.000361278
-2.8903e-05
1.20822e-05
0.000349646
-2.50555e-05
1.88088e-05
0.000342732
-1.25254e-05
2.7661e-05
0.000340759
-3.16975e-07
2.95232e-05
0.000342246
9.51092e-06
1.91001e-05
0.000341848
1.0773e-05
1.06388e-07
0.000340783
-1.03216e-05
-1.76322e-05
0.000349525
-4.88704e-05
-2.91101e-05
0.000368581
-7.05438e-05
-3.07345e-05
0.000379229
-5.2767e-05
-1.90719e-05
0.00036826
-2.31915e-05
9.71727e-06
0.000345883
-1.156e-05
4.13817e-05
0.000327697
-1.08304e-05
5.42559e-05
0.000320419
-1.36884e-06
4.32625e-05
0.000321757
1.65744e-05
2.06067e-05
0.000327621
2.58539e-05
-1.93209e-06
2.39211e-05
-1.71984e-05
0.000364178
1.67943e-05
-1.45081e-05
0.000375402
1.03967e-05
-2.54044e-05
0.000381486
6.59002e-06
-2.75082e-05
0.000376017
1.35016e-06
-2.06827e-05
0.000366995
-2.3781e-06
-1.10895e-05
0.000371906
-1.43102e-06
-5.80894e-06
0.000394786
5.36732e-06
-7.19383e-06
0.000415585
1.64189e-05
-1.35456e-05
0.000413228
2.87411e-05
-2.67796e-05
0.00039353
3.18683e-05
-4.95038e-05
0.000379896
2.12899e-05
-7.91518e-05
0.000382878
-6.63082e-06
-0.000101641
0.000395406
-4.79437e-05
-0.000103844
0.000407902
-8.16161e-05
-8.3814e-05
0.000415178
-8.29039e-05
-5.12318e-05
0.000414886
-5.42664e-05
-2.34683e-05
0.00040928
-2.19498e-05
-1.08933e-05
0.000404142
-4.11401e-06
-6.88202e-06
0.000403659
-7.6024e-07
2.29108e-06
0.000408903
-4.03937e-06
1.92944e-05
0.000417819
-8.93629e-06
3.33081e-05
0.000422917
-1.36621e-05
3.33042e-05
0.00041553
-1.5532e-05
2.17051e-05
0.00039648
-1.32427e-05
1.10641e-05
0.00037802
-1.04798e-05
8.67688e-06
0.000371804
-1.19325e-05
1.14358e-05
0.000378597
-1.44267e-05
1.2326e-05
0.000387861
-6.77608e-06
6.15443e-06
0.000389033
7.10253e-06
-4.89501e-06
0.000384934
3.46027e-06
-1.48315e-05
0.000387964
-2.90087e-05
-2.06331e-05
0.000403572
-6.31013e-05
-2.14493e-05
0.000418307
-6.23212e-05
-1.25797e-05
0.000414816
-3.7573e-05
1.14046e-05
0.000396308
-1.77836e-05
4.01223e-05
0.000377369
-4.25629e-06
5.3006e-05
0.000365906
1.40029e-05
4.39968e-05
0.000360153
3.33501e-05
2.77099e-05
0.000356624
3.93671e-05
1.35349e-05
2.92824e-05
-1.5038e-07
0.000386196
1.53287e-05
3.74066e-06
0.000399559
-6.9423e-07
-8.41561e-06
0.000412468
-8.00182e-06
-1.51816e-05
0.000414822
-8.44981e-06
-1.20889e-05
0.00040684
-1.56156e-06
-1.997e-06
0.000402749
1.04957e-05
5.39995e-06
0.000415705
2.03324e-05
3.33892e-06
0.000440856
2.61569e-05
-6.94851e-06
0.00045788
3.38126e-05
-1.98326e-05
0.000456922
4.35273e-05
-3.59351e-05
0.000450775
4.46702e-05
-6.14846e-05
0.000453805
2.57003e-05
-9.0581e-05
0.000463734
-1.58931e-05
-0.000106982
0.00047157
-5.84113e-05
-0.000100642
0.000473712
-7.14229e-05
-7.52866e-05
0.000469412
-4.98451e-05
-4.46352e-05
0.000461264
-1.91754e-05
-2.20739e-05
0.000454931
-5.24622e-07
-1.02074e-05
0.000453475
4.9707e-06
-9.64312e-07
0.000454863
4.05185e-06
1.34812e-05
0.000456165
-2.0919e-06
2.89044e-05
0.000454624
-9.87404e-06
3.33799e-05
0.000447299
-1.06066e-05
2.36879e-05
0.000434963
-2.14358e-06
8.54733e-06
0.000425209
2.87217e-06
-1.81194e-06
0.000425384
-7.03467e-06
-2.33367e-06
0.000433509
-2.49035e-05
4.16389e-06
0.000438735
-2.61462e-05
7.96963e-06
0.000434188
-5.08204e-06
3.51682e-06
0.000426275
9.46328e-06
-2.53671e-06
0.000425774
-8.84926e-06
-6.17646e-06
0.000437853
-4.54397e-05
-7.77412e-06
0.000455493
-6.26831e-05
-2.4342e-06
0.00046319
-5.00794e-05
1.47804e-05
0.000453834
-2.67742e-05
3.83915e-05
0.000434292
-2.41348e-06
5.12939e-05
0.000414351
2.47473e-05
4.51382e-05
0.00039787
4.87243e-05
3.07533e-05
0.00038574
5.4912e-05
2.01393e-05
3.88936e-05
1.29076e-05
0.000426071
2.69025e-05
2.42265e-05
0.000438256
7.97241e-06
1.52326e-05
0.000449224
-3.22413e-06
6.54383e-06
0.0004524
-4.67693e-06
2.83788e-06
0.000447208
4.96413e-06
5.50931e-06
0.000441679
2.34251e-05
1.19413e-05
0.00044639
4.01486e-05
1.48612e-05
0.00046356
4.55632e-05
1.00806e-05
0.00048546
4.2775e-05
-7.82435e-07
0.000504027
4.1702e-05
-1.45135e-05
0.000519963
4.42148e-05
-3.39664e-05
0.000536025
3.81807e-05
-6.21154e-05
0.000548391
1.07856e-05
-9.00905e-05
0.000551749
-2.73704e-05
-0.000102119
0.000546032
-4.75146e-05
-8.93866e-05
0.000534954
-3.71793e-05
-6.08072e-05
0.000522391
-1.45872e-05
-3.33653e-05
0.00051162
1.46554e-06
-1.5697e-05
0.000504436
8.89423e-06
-4.1818e-06
0.000500424
1.10344e-05
8.83525e-06
0.000496198
7.20348e-06
2.34364e-05
0.000488607
9.27677e-07
3.00259e-05
0.000479523
1.12987e-06
2.06172e-05
0.000476172
8.70136e-06
1.69128e-06
0.000483459
1.14064e-05
-1.21051e-05
0.000497003
-5.5225e-06
-9.14339e-06
0.000503606
-3.28002e-05
4.65463e-06
0.000495864
-4.14896e-05
1.52217e-05
0.000480581
-1.9845e-05
1.87525e-05
0.000470688
5.45198e-06
2.23648e-05
0.000472551
5.63865e-06
2.24969e-05
0.000485142
-2.12269e-05
1.27142e-05
0.000503271
-4.84432e-05
4.75272e-06
0.000516064
-5.0991e-05
1.42165e-05
0.00051297
-2.98844e-05
3.5776e-05
0.000493577
1.35888e-06
4.72691e-05
0.000465876
3.30317e-05
3.90331e-05
0.000439856
5.73975e-05
2.60393e-05
0.00042347
6.35898e-05
2.31984e-05
4.96224e-05
2.64944e-05
0.000469884
4.66202e-05
4.07058e-05
0.000483665
3.07966e-05
3.53016e-05
0.000498693
2.0233e-05
2.06519e-05
0.000508459
1.522e-05
8.94291e-06
0.000508506
1.79004e-05
9.04348e-06
0.000502941
3.01356e-05
1.98643e-05
0.000501137
4.79918e-05
3.05774e-05
0.000508099
6.09673e-05
2.93774e-05
0.000521324
5.98318e-05
1.6658e-05
0.000538737
4.57295e-05
4.00587e-06
0.000562842
2.89712e-05
-4.25608e-06
0.000592808
1.69676e-05
-2.05742e-05
0.000617898
5.92025e-06
-5.23592e-05
0.000625172
-9.08649e-06
-8.23116e-05
0.00061752
-2.12624e-05
-9.0845e-05
0.000606579
-1.99635e-05
-7.74497e-05
0.000597754
-9.35715e-06
-5.36531e-05
0.000588528
6.2473e-07
-2.93594e-05
0.000576134
9.35393e-06
-1.0984e-05
0.000561984
1.62377e-05
5.30805e-07
0.000547998
1.69183e-05
1.04624e-05
0.000535687
1.2131e-05
2.08262e-05
0.000528846
7.58782e-06
2.545e-05
0.000533831
5.19505e-06
1.81279e-05
0.000553722
-1.93708e-06
4.33049e-06
0.000578592
-2.23488e-05
-2.04043e-06
0.000587819
-4.8263e-05
8.7864e-06
0.000572561
-5.6756e-05
2.91528e-05
0.000547485
-3.41099e-05
4.72567e-05
0.000532389
3.03006e-06
5.8297e-05
0.000532472
2.53344e-05
5.47472e-05
0.00054206
1.5707e-05
3.19078e-05
0.00055615
-1.60401e-05
7.27327e-06
0.000567678
-3.83256e-05
2.81775e-06
0.000564541
-2.87111e-05
1.92104e-05
0.000542173
3.57886e-06
3.54049e-05
0.000508687
3.96148e-05
3.38777e-05
0.000479206
6.50932e-05
2.3499e-05
0.000463702
7.30813e-05
2.28473e-05
6.42223e-05
3.32942e-05
0.000529156
7.54973e-05
1.67801e-05
0.000542346
5.48588e-05
1.58771e-05
0.000556586
3.89535e-05
1.56905e-05
0.000565983
2.95355e-05
1.63657e-05
0.000567066
2.66589e-05
1.92187e-05
0.000561968
3.14369e-05
2.52196e-05
0.000558156
4.20552e-05
3.34591e-05
0.000562358
5.07099e-05
3.93402e-05
0.000574153
4.88204e-05
3.67698e-05
0.000589067
3.41284e-05
2.49806e-05
0.00060648
1.33285e-05
8.95744e-06
0.000629165
-2.7839e-06
-1.0397e-05
0.000657762
-1.23684e-05
-3.42611e-05
0.000682572
-1.73718e-05
-5.81302e-05
0.000692109
-1.56872e-05
-7.40292e-05
0.000686701
-6.40879e-06
-7.79389e-05
0.000675966
5.076e-06
-7.14145e-05
0.000666554
1.2758e-05
-5.56454e-05
0.000658084
1.6239e-05
-3.50892e-05
0.000646906
1.67056e-05
-1.90961e-05
0.000631116
1.54309e-05
-1.04116e-05
0.000613964
1.38831e-05
-1.51448e-06
0.000604135
1.13468e-05
1.13894e-05
0.000607602
1.7473e-06
2.34393e-05
0.00062283
-1.83983e-05
2.60493e-05
0.000639904
-4.41307e-05
2.06255e-05
0.000646104
-6.31596e-05
2.08417e-05
0.000635075
-6.2033e-05
3.58531e-05
0.000614782
-3.4902e-05
5.73242e-05
0.000597283
8.19835e-06
6.65135e-05
0.00058787
4.03367e-05
5.22948e-05
0.000587092
3.80385e-05
2.00584e-05
0.000595172
3.65061e-06
-8.63609e-06
0.000607021
-3.31715e-05
-1.39246e-05
0.000609735
-3.87812e-05
3.92144e-06
0.000592424
-8.6297e-06
2.53344e-05
0.00056193
3.5692e-05
3.38793e-05
0.000534957
7.21802e-05
2.96786e-05
0.000521905
9.22983e-05