/*--------------------------------*- C++ -*----------------------------------*\
| =========                 |                                                 |
| \\      /  F ield         | OpenFOAM: The Open Source CFD Toolbox           |
|  \\    /   O peration     | Version:  2306                                  |
|   \\  /    A nd           | Website:  www.openfoam.com                      |
|    \\/     M anipulation  |                                                 |
\*---------------------------------------------------------------------------*/
FoamFile
{
    version     2.0;
    format      ascii;
    arch        "LSB;label=32;scalar=64";
    class       volVectorField;
    location    "10";
    object      U;
}
// * * * * * * * * * * * * * * * * * * * * * * * * * * * * * * * * * * * * * //

dimensions      [0 1 -1 0 0 0 0];

internalField   nonuniform List<vector> 
60000
(
(0.00615571 1.24799e-05 -0.000817497)
(0.00640115 2.07416e-05 -0.000464713)
(0.00666334 2.501e-05 -0.000298093)
(0.0070298 2.68969e-05 -0.000180972)
(0.00751303 2.00156e-05 8.27966e-05)
(0.00806544 1.73761e-05 0.000593192)
(0.00854197 1.7509e-05 0.00125321)
(0.00872775 2.18052e-05 0.00191796)
(0.00853899 2.73739e-05 0.00240744)
(0.00813085 3.04421e-05 0.00257772)
(0.00774255 2.98888e-05 0.00243427)
(0.00746926 2.67126e-05 0.00210415)
(0.00725766 2.12017e-05 0.00175737)
(0.00703994 1.29341e-05 0.00151447)
(0.00678169 3.44855e-06 0.00139308)
(0.00645199 -3.4715e-06 0.00134455)
(0.00603598 -5.00986e-06 0.00133103)
(0.00560063 -3.49407e-06 0.00130598)
(0.00530537 -2.78055e-06 0.00122252)
(0.00523292 -1.30154e-06 0.00103956)
(0.00528704 1.36432e-06 0.000722878)
(0.00537864 -3.50812e-06 0.000370008)
(0.00556469 -1.15356e-05 0.000101992)
(0.00589018 -1.5713e-05 -9.77215e-05)
(0.00626233 -9.77233e-06 -0.000265777)
(0.0065979 5.8458e-06 -0.000301917)
(0.00691493 2.01364e-05 -0.000190426)
(0.00721654 2.42032e-05 -0.000112492)
(0.00745722 1.94205e-05 -0.000299695)
(0.0076674 -5.58915e-06 -0.000858711)
(0.0079255 -3.3356e-05 -0.00161366)
(0.00815616 -4.21747e-05 -0.00219394)
(0.00817376 -3.1231e-05 -0.00236831)
(0.00792437 -1.50874e-05 -0.00231102)
(0.00748858 -4.16144e-07 -0.00231214)
(0.0069311 1.29186e-05 -0.00233223)
(0.00632126 1.56374e-05 -0.00224201)
(0.00584389 9.59717e-06 -0.00204628)
(0.0057076 4.25723e-06 -0.00174171)
(0.00588269 2.34931e-06 -0.00130001)
(0.0182572 6.55336e-05 -0.00217364)
(0.0189788 0.000109034 -0.00131505)
(0.0199407 0.000105157 -0.000858526)
(0.0212397 7.91682e-05 -0.000439911)
(0.0228262 4.19537e-05 0.00039422)
(0.0245343 4.64615e-05 0.00180197)
(0.0259674 9.58509e-05 0.00354046)
(0.0265525 0.00018398 0.00523992)
(0.026031 0.000263223 0.00645091)
(0.0248118 0.000284393 0.00682395)
(0.0236084 0.000247479 0.00637973)
(0.0227661 0.000188644 0.00547725)
(0.0221769 0.000131245 0.00456738)
(0.0216147 7.82651e-05 0.00392043)
(0.0209053 2.95208e-05 0.00356116)
(0.0199339 -8.464e-06 0.00340947)
(0.0187188 -3.40418e-05 0.00338021)
(0.017484 -6.43884e-05 0.00331469)
(0.0165917 -9.9405e-05 0.00305953)
(0.0162125 -0.000111489 0.00252632)
(0.0161916 -0.000100744 0.00174405)
(0.0163848 -0.000112748 0.000952331)
(0.0168578 -0.000132561 0.000338899)
(0.0176232 -0.000110968 -0.000147329)
(0.0185093 -4.61049e-05 -0.000501952)
(0.0194191 3.54882e-05 -0.000523247)
(0.0204289 7.01018e-05 -0.000272112)
(0.0215384 3.15127e-05 -0.000190769)
(0.0226539 -7.84577e-05 -0.000777118)
(0.0237818 -0.000257054 -0.002219)
(0.0248508 -0.000376303 -0.00407218)
(0.0254585 -0.000329452 -0.0055026)
(0.0252269 -0.000163304 -0.00604261)
(0.0242615 2.41186e-06 -0.00606909)
(0.0229272 0.000113005 -0.00607566)
(0.0214391 0.000149434 -0.00599949)
(0.0198761 0.000102748 -0.00572368)
(0.0184791 2.10542e-05 -0.00526367)
(0.0177171 -2.35098e-05 -0.00449904)
(0.0177477 -1.80248e-06 -0.00336819)
(0.0303749 0.000156253 -0.00375977)
(0.0314281 0.000235196 -0.00251466)
(0.0330928 0.000194556 -0.00183863)
(0.0353692 9.65124e-05 -0.00121599)
(0.0381255 -2.64298e-06 3.09738e-05)
(0.0411079 1.26604e-05 0.00214643)
(0.0437534 0.000139196 0.00479946)
(0.0451553 0.00036152 0.00742805)
(0.0447112 0.000571576 0.00939068)
(0.0428342 0.000646437 0.010163)
(0.0406844 0.000569715 0.00968655)
(0.039081 0.000426181 0.00844076)
(0.0380397 0.000283487 0.00710249)
(0.0371888 0.000157755 0.00606889)
(0.0361587 4.71893e-05 0.00538745)
(0.0347119 -4.00133e-05 0.00502305)
(0.0328521 -0.000107401 0.00493209)
(0.0308409 -0.000191948 0.00488044)
(0.0291377 -0.00028523 0.00456908)
(0.0280795 -0.000321974 0.00383174)
(0.0276417 -0.000302656 0.00275777)
(0.027699 -0.000316133 0.00168879)
(0.0282735 -0.000330548 0.000838148)
(0.0293019 -0.000235551 0.000134244)
(0.0305723 -6.13413e-05 -0.000355509)
(0.0320158 0.000102675 -0.000348226)
(0.0337847 0.000110211 6.8622e-05)
(0.0358702 -6.99593e-05 0.000299685)
(0.038092 -0.000426639 -0.000346625)
(0.0403867 -0.000883491 -0.00221895)
(0.0425349 -0.00112936 -0.0048935)
(0.0437661 -0.000944564 -0.00725555)
(0.0434481 -0.000477646 -0.0084866)
(0.0418752 -3.1301e-05 -0.00888011)
(0.0397812 0.000244518 -0.00897217)
(0.0375866 0.00030577 -0.00879642)
(0.0352789 0.000178555 -0.00840352)
(0.0328554 4.8633e-07 -0.00787645)
(0.030891 -7.02763e-05 -0.00695675)
(0.0300685 9.39874e-06 -0.0054467)
(0.0424683 0.000234218 -0.00579778)
(0.0433672 0.000347599 -0.00437842)
(0.0454673 0.000236393 -0.00367319)
(0.0485467 2.30439e-06 -0.00311485)
(0.0523842 -0.000227032 -0.00179744)
(0.0566973 -0.000241672 0.000720803)
(0.0608934 -1.17479e-05 0.00415097)
(0.0637947 0.000398855 0.00775983)
(0.0642459 0.000812594 0.0107079)
(0.0622423 0.00102195 0.0122883)
(0.0591575 0.000950478 0.012258)
(0.0565202 0.000719331 0.011056)
(0.0548286 0.000464719 0.00952448)
(0.0536937 0.000239601 0.00819845)
(0.0525191 5.05354e-05 0.00713672)
(0.050881 -9.22744e-05 0.00638147)
(0.0486807 -0.000204053 0.00607882)
(0.0460469 -0.000346063 0.00605373)
(0.0433416 -0.000510304 0.00584682)
(0.0410852 -0.000593206 0.00510079)
(0.0396333 -0.000586957 0.00389049)
(0.0390646 -0.00061923 0.00267446)
(0.0393897 -0.000626548 0.00170798)
(0.0404399 -0.000418368 0.000869624)
(0.0419399 -6.91191e-05 0.000274968)
(0.0438331 0.000180651 0.000333433)
(0.0463477 0.000108851 0.00103401)
(0.0494378 -0.00032572 0.00172762)
(0.0527174 -0.00109384 0.00158214)
(0.0560498 -0.0019946 -4.13337e-05)
(0.0594099 -0.00243842 -0.00315015)
(0.061842 -0.00204346 -0.00663555)
(0.0621395 -0.00111891 -0.00910863)
(0.0604923 -0.000229447 -0.0104031)
(0.0579998 0.000327082 -0.0109262)
(0.0554206 0.00045874 -0.0108036)
(0.0527134 0.000239498 -0.01035)
(0.0494118 -5.33294e-05 -0.00988053)
(0.0458131 -0.000150284 -0.00911174)
(0.0432053 -4.32175e-06 -0.00763906)
(0.0551493 0.000265487 -0.00805192)
(0.0548747 0.000396188 -0.00685071)
(0.0566234 0.000176915 -0.00649769)
(0.0598321 -0.000278353 -0.0064574)
(0.0641923 -0.000775161 -0.00563093)
(0.0695261 -0.000970161 -0.00329861)
(0.0754368 -0.000645086 0.00055888)
(0.0806779 6.76644e-05 0.0052567)
(0.0833195 0.000801524 0.00963088)
(0.08238 0.00126148 0.0126126)
(0.0788972 0.00130038 0.0136633)
(0.0750901 0.00102874 0.013038)
(0.072431 0.000655434 0.0116901)
(0.0708792 0.000307093 0.0103561)
(0.0696733 2.40857e-05 0.00906025)
(0.0681417 -0.000173078 0.00780751)
(0.0660117 -0.000310418 0.00703175)
(0.0631662 -0.000476841 0.00687988)
(0.0596102 -0.000682659 0.00685105)
(0.0558051 -0.000814136 0.00627666)
(0.0525768 -0.000867293 0.00505642)
(0.050522 -0.000993716 0.00379217)
(0.0499149 -0.00104983 0.00286262)
(0.050584 -0.000713037 0.00204251)
(0.0520773 -0.000115601 0.001425)
(0.0542301 0.000257874 0.001598)
(0.0573025 7.6451e-05 0.00271602)
(0.0611968 -0.000739654 0.00413929)
(0.0650771 -0.0021191 0.00498979)
(0.0685209 -0.00371491 0.00446962)
(0.0724634 -0.00459458 0.00187766)
(0.0768376 -0.00398715 -0.00247553)
(0.0793227 -0.00235993 -0.00681505)
(0.0789474 -0.000788621 -0.00993985)
(0.0768913 0.000237698 -0.0116776)
(0.0744234 0.000567004 -0.0120475)
(0.0717725 0.000293442 -0.0116492)
(0.0681097 -0.000112046 -0.0112572)
(0.0630694 -0.000239514 -0.01076)
(0.0580642 -4.45082e-05 -0.00963049)
(0.0697296 0.00028426 -0.00984224)
(0.0672533 0.000391426 -0.00912732)
(0.0675521 5.36482e-06 -0.00950683)
(0.0695873 -0.000793888 -0.0105042)
(0.0729343 -0.00174187 -0.0108619)
(0.0777173 -0.00239512 -0.0096818)
(0.0842416 -0.00228415 -0.0065938)
(0.0921363 -0.00128004 -0.00147565)
(0.0988448 0.000163502 0.00472935)
(0.101168 0.00117042 0.0100448)
(0.0988658 0.00149887 0.013087)
(0.0943834 0.00129381 0.0137526)
(0.0905413 0.000828755 0.0130654)
(0.0883212 0.000339941 0.0121573)
(0.0870474 -6.03539e-05 0.011102)
(0.0857793 -0.000310526 0.00958749)
(0.0840703 -0.000442885 0.0081493)
(0.0816159 -0.000574454 0.00752637)
(0.0779161 -0.00074287 0.00753293)
(0.0729061 -0.000856678 0.00721664)
(0.0675251 -0.000971953 0.00606939)
(0.062951 -0.00130869 0.00476134)
(0.0601743 -0.00157329 0.00396315)
(0.0596012 -0.00116723 0.00336844)
(0.0606251 -0.000258065 0.00290467)
(0.0626763 0.000345268 0.00330308)
(0.0659196 6.3552e-05 0.0049168)
(0.0702747 -0.00124479 0.00705174)
(0.0744784 -0.00337876 0.00874046)
(0.0770712 -0.0059024 0.00950904)
(0.079256 -0.00764136 0.00876395)
(0.084247 -0.00726144 0.00543634)
(0.0906705 -0.00492801 -0.000160926)
(0.0943767 -0.00218084 -0.00607284)
(0.0946987 -0.00025434 -0.0103748)
(0.0933485 0.000534661 -0.0122156)
(0.0913263 0.000329921 -0.012297)
(0.0880043 -0.000141588 -0.0120631)
(0.0823908 -0.000283848 -0.0118254)
(0.0753757 -5.24103e-05 -0.0110377)
(0.0866589 0.0003606 -0.0107748)
(0.0821086 0.000410607 -0.0102101)
(0.0809356 -0.000184858 -0.0110303)
(0.0812651 -0.00143146 -0.0130497)
(0.0818326 -0.0030091 -0.0149992)
(0.0832618 -0.00434678 -0.0156971)
(0.0869198 -0.00483766 -0.0146906)
(0.0940175 -0.00409852 -0.0114306)
(0.104477 -0.00218789 -0.00516826)
(0.113562 -2.52568e-05 0.002803)
(0.11603 0.0012239 0.00919792)
(0.112834 0.00139957 0.0122982)
(0.108241 0.000950331 0.0128882)
(0.10523 0.000303332 0.0127575)
(0.103829 -0.000257522 0.0125308)
(0.1028 -0.000570738 0.0115034)
(0.101559 -0.000656135 0.00971019)
(0.0999477 -0.000691894 0.00833587)
(0.0971521 -0.000733271 0.00800324)
(0.0922054 -0.000706718 0.00784586)
(0.0854703 -0.000760391 0.0068124)
(0.0781635 -0.00131413 0.00538411)
(0.0718171 -0.00199343 0.00462478)
(0.068351 -0.00171849 0.00434773)
(0.0679127 -0.000496091 0.00419258)
(0.0693282 0.000462857 0.00489758)
(0.0722702 0.000120784 0.00700456)
(0.0767647 -0.00168407 0.00966285)
(0.0818919 -0.00445304 0.0114356)
(0.0852306 -0.00765193 0.0121324)
(0.0851932 -0.0103656 0.0128931)
(0.0859364 -0.0110212 0.0129804)
(0.0925185 -0.00890078 0.00964031)
(0.101686 -0.00520782 0.00249603)
(0.107822 -0.00178368 -0.00536572)
(0.109876 7.22117e-05 -0.010283)
(0.109448 0.000292975 -0.0119079)
(0.107083 -0.00010028 -0.0122445)
(0.101985 -0.000236638 -0.0123624)
(0.0942854 2.15335e-05 -0.0118405)
(0.103935 0.000633815 -0.0109671)
(0.0984226 0.000518788 -0.0099902)
(0.0970012 -0.000236642 -0.0103413)
(0.0972604 -0.00173695 -0.012511)
(0.0957165 -0.00382286 -0.0157073)
(0.0921673 -0.00595136 -0.0184988)
(0.0900511 -0.00738627 -0.0198196)
(0.0920691 -0.00747356 -0.0191065)
(0.0998807 -0.00595867 -0.0155074)
(0.112942 -0.00319482 -0.00810989)
(0.123976 -0.000569218 0.00106015)
(0.126455 0.00076548 0.00776565)
(0.123133 0.000803201 0.0105582)
(0.119819 0.000190643 0.011368)
(0.118651 -0.000559136 0.0121005)
(0.118108 -0.00103982 0.01236)
(0.117047 -0.0010765 0.0112561)
(0.116053 -0.000907752 0.00950393)
(0.114898 -0.000750217 0.00853384)
(0.111769 -0.000517996 0.00824604)
(0.105769 -0.000334695 0.00728282)
(0.0973409 -0.000901907 0.0056743)
(0.0873982 -0.00199914 0.00477146)
(0.0791706 -0.00212212 0.00470945)
(0.0754695 -0.000752273 0.00485212)
(0.0754239 0.000638988 0.00580727)
(0.077694 0.000423342 0.00832816)
(0.0819404 -0.0016437 0.0114448)
(0.0879535 -0.00481502 0.0130123)
(0.0940095 -0.00813085 0.0124499)
(0.0960269 -0.011049 0.0123876)
(0.0928761 -0.0129274 0.0150628)
(0.0925002 -0.0123749 0.0169578)
(0.100607 -0.00916584 0.0130221)
(0.112194 -0.00475294 0.00391836)
(0.120462 -0.00132491 -0.00482697)
(0.123467 -0.000137614 -0.00956174)
(0.122605 -0.000171953 -0.0114077)
(0.118785 -6.88477e-05 -0.0122037)
(0.111946 0.000317861 -0.0120539)
(0.116112 0.000816723 -0.00989245)
(0.111793 0.000701029 -0.00837392)
(0.111431 -4.87902e-05 -0.00752753)
(0.113726 -0.00143303 -0.0088587)
(0.11345 -0.00345203 -0.0125257)
(0.107243 -0.00594931 -0.0171526)
(0.0988515 -0.00838708 -0.0210522)
(0.0943042 -0.00981277 -0.0227785)
(0.0960677 -0.00946378 -0.0215678)
(0.105452 -0.0072882 -0.0167457)
(0.120171 -0.00407773 -0.00816305)
(0.130728 -0.0013339 0.00104391)
(0.131653 -0.000274202 0.00655703)
(0.128752 -0.000479901 0.00827082)
(0.128404 -0.00110097 0.00922763)
(0.129822 -0.00161288 0.0106294)
(0.129458 -0.00174136 0.0111903)
(0.127977 -0.00147639 0.0103016)
(0.127848 -0.000992466 0.00914048)
(0.127801 -0.000402666 0.00857218)
(0.125199 1.32698e-05 0.00757871)
(0.118908 -0.000336403 0.00574774)
(0.107904 -0.00152112 0.00452124)
(0.0947337 -0.0020569 0.00453864)
(0.0855843 -0.000825538 0.00500255)
(0.0824501 0.000878007 0.00614409)
(0.0835667 0.00094836 0.00871507)
(0.0875342 -0.00114873 0.0117205)
(0.0936989 -0.00461514 0.0128871)
(0.101131 -0.00797083 0.0113457)
(0.106788 -0.010297 0.00984551)
(0.10606 -0.0120845 0.0125076)
(0.100358 -0.013263 0.0182673)
(0.10029 -0.0121796 0.0199328)
(0.110523 -0.00838115 0.0136456)
(0.123909 -0.0038246 0.00334191)
(0.131499 -0.001018 -0.00493715)
(0.13091 -0.000221746 -0.00920104)
(0.126553 6.00379e-05 -0.0107497)
(0.121636 0.000463214 -0.0108584)
(0.114298 0.000805824 -0.00620873)
(0.113154 0.000570721 -0.0040535)
(0.115352 -0.000189893 -0.00176389)
(0.121753 -0.00122415 -0.00169783)
(0.127121 -0.0024332 -0.00560127)
(0.123912 -0.00433727 -0.0119903)
(0.112832 -0.00714601 -0.0185689)
(0.10237 -0.00981177 -0.0233611)
(0.0981958 -0.0109826 -0.0246517)
(0.101181 -0.0102918 -0.0220201)
(0.111996 -0.00800201 -0.0154121)
(0.126908 -0.00469703 -0.00593438)
(0.135287 -0.0021146 0.00207748)
(0.133882 -0.00173392 0.00518332)
(0.131696 -0.00256953 0.00551096)
(0.134796 -0.00287887 0.00666206)
(0.137941 -0.00233101 0.00854006)
(0.136106 -0.00176361 0.00931956)
(0.133451 -0.00142096 0.00893958)
(0.134411 -0.000854139 0.00849098)
(0.137162 -0.000107727 0.00770352)
(0.137388 4.03431e-05 0.00583066)
(0.130365 -0.000810182 0.00412191)
(0.115492 -0.00136236 0.00394902)
(0.10037 -0.000356176 0.00486805)
(0.0921159 0.00124827 0.00635117)
(0.0909502 0.00136495 0.00854975)
(0.0944789 -0.000883262 0.0105961)
(0.10082 -0.00447643 0.0107072)
(0.108611 -0.007733 0.00807784)
(0.115789 -0.0093937 0.00536993)
(0.11848 -0.0100968 0.00755257)
(0.113798 -0.0113081 0.0150059)
(0.106823 -0.012678 0.0211708)
(0.109552 -0.0113488 0.0191338)
(0.122185 -0.00706923 0.00987163)
(0.13243 -0.00228196 -0.000443777)
(0.131413 0.000330002 -0.00697312)
(0.123571 0.000955589 -0.00875596)
(0.117338 0.000854593 -0.00784467)
(0.110943 0.00121854 -0.00302235)
(0.109477 0.000644881 0.000544967)
(0.110327 -0.000361014 0.00481059)
(0.116898 -0.00147163 0.00739556)
(0.12832 -0.00198262 0.00441025)
(0.134053 -0.00246879 -0.00375046)
(0.127197 -0.00451167 -0.0129634)
(0.113926 -0.00788318 -0.0206749)
(0.104545 -0.0102324 -0.0252464)
(0.102767 -0.010871 -0.0253866)
(0.10736 -0.0103624 -0.0211295)
(0.11864 -0.00855871 -0.013102)
(0.132955 -0.00532828 -0.00382819)
(0.13992 -0.00298582 0.00201537)
(0.137176 -0.00353752 0.00328984)
(0.134884 -0.00490016 0.00352498)
(0.138734 -0.00410014 0.005127)
(0.141672 -0.00177302 0.00692987)
(0.139051 -0.000448564 0.00755999)
(0.135576 -0.000603738 0.00741927)
(0.136919 -0.00118316 0.00706503)
(0.143403 -0.00141723 0.00590384)
(0.146471 -0.00109273 0.00406249)
(0.137202 -0.000348432 0.00321949)
(0.119931 0.000943434 0.00430789)
(0.10631 0.00207427 0.00664394)
(0.101439 0.00156989 0.00896759)
(0.103163 -0.00135841 0.0100097)
(0.108406 -0.00532854 0.0087679)
(0.11594 -0.00825667 0.00474894)
(0.124153 -0.00889157 -1.87253e-05)
(0.128952 -0.00813904 0.000432103)
(0.126488 -0.00810691 0.00857954)
(0.117548 -0.0101728 0.0182266)
(0.112412 -0.0119822 0.020522)
(0.11902 -0.00968089 0.0135241)
(0.128303 -0.00396965 0.00293519)
(0.128751 0.000833187 -0.00505266)
(0.121437 0.00246164 -0.00766456)
(0.114407 0.0019276 -0.00607469)
(0.115218 0.00232546 -0.00432136)
(0.111587 0.001566 -0.000116598)
(0.10891 0.000152536 0.00544423)
(0.111068 -0.00164162 0.0110098)
(0.121515 -0.0022112 0.0118759)
(0.134239 -0.00138768 0.00485794)
(0.136789 -0.00158928 -0.005929)
(0.127053 -0.00457954 -0.0153999)
(0.113981 -0.00792525 -0.0223588)
(0.107405 -0.00963852 -0.0258953)
(0.108616 -0.0103077 -0.0250254)
(0.114799 -0.0106432 -0.0196641)
(0.126171 -0.00953689 -0.0109777)
(0.139055 -0.0065076 -0.00275762)
(0.143823 -0.00447559 0.00141586)
(0.139566 -0.00511243 0.00231879)
(0.136595 -0.00559022 0.00299999)
(0.139616 -0.00347013 0.00469286)
(0.142968 -0.000254747 0.006176)
(0.141811 0.0011873 0.00645732)
(0.138279 -0.000568517 0.0060425)
(0.139787 -0.00390487 0.00551645)
(0.147926 -0.0044824 0.00440537)
(0.150396 -0.00114403 0.0029474)
(0.139531 0.00247687 0.00324428)
(0.124943 0.00374653 0.00641296)
(0.116538 0.00221865 0.0100993)
(0.114502 -0.00149401 0.0108056)
(0.115503 -0.00628724 0.00781641)
(0.119902 -0.00996623 0.00279395)
(0.128765 -0.010184 -0.00312306)
(0.136582 -0.0074151 -0.00565324)
(0.136695 -0.00531884 0.000647865)
(0.128611 -0.00638919 0.0124492)
(0.119037 -0.00989723 0.0193085)
(0.117853 -0.010454 0.015889)
(0.123098 -0.00550384 0.00652794)
(0.125393 0.000695783 -0.00225806)
(0.122801 0.00351722 -0.00695077)
(0.118829 0.00326834 -0.00709918)
(0.123415 0.00380198 -0.00722045)
(0.119256 0.0032118 -0.00465672)
(0.114406 0.00126286 -0.000495382)
(0.112511 -0.00170188 0.00551571)
(0.117962 -0.00303015 0.0101922)
(0.1306 -0.00146412 0.0079401)
(0.140386 0.000362334 -0.000719884)
(0.138089 -0.00100513 -0.00988703)
(0.126176 -0.00436612 -0.0173176)
(0.115056 -0.00707481 -0.0230807)
(0.112425 -0.00885159 -0.0258664)
(0.116767 -0.0106067 -0.0242071)
(0.124371 -0.0118789 -0.0176588)
(0.134783 -0.010649 -0.00842873)
(0.143281 -0.00743191 -0.00124563)
(0.143662 -0.00538593 0.00149807)
(0.138962 -0.00508295 0.0018187)
(0.137146 -0.00440137 0.00294593)
(0.140538 -0.00209867 0.00528187)
(0.144854 0.00087449 0.00683248)
(0.145227 0.00118679 0.00662081)
(0.142493 -0.00307287 0.00551526)
(0.143424 -0.00715449 0.00432078)
(0.149058 -0.00489 0.00284889)
(0.149802 0.0011613 0.00225487)
(0.14269 0.00442412 0.00535446)
(0.133914 0.00342703 0.0105062)
(0.127623 0.00037754 0.0117037)
(0.123439 -0.00397552 0.00704236)
(0.122222 -0.00908129 0.000763381)
(0.128242 -0.0117245 -0.00429316)
(0.138906 -0.00897478 -0.00781458)
(0.14343 -0.0044703 -0.00524507)
(0.13796 -0.00320854 0.00553928)
(0.12753 -0.00621165 0.0160447)
(0.120547 -0.00878598 0.0170861)
(0.120321 -0.0059854 0.00997254)
(0.122357 -0.000159014 0.0012237)
(0.124084 0.00346154 -0.00521712)
(0.12489 0.00413222 -0.00789419)
(0.131085 0.00452009 -0.00860524)
(0.12956 0.00501649 -0.00869253)
(0.125624 0.00317926 -0.00703151)
(0.121552 -0.000634556 -0.00277992)
(0.121349 -0.00325731 0.00267706)
(0.129288 -0.00223497 0.00461402)
(0.141498 0.000719272 0.000721444)
(0.146125 0.00156828 -0.00584043)
(0.138175 -0.000623408 -0.0124509)
(0.125416 -0.00349541 -0.0188263)
(0.118542 -0.00624071 -0.0239077)
(0.120541 -0.00926435 -0.0256638)
(0.126993 -0.0123195 -0.0225087)
(0.134608 -0.0130636 -0.0143343)
(0.141679 -0.0101789 -0.00516236)
(0.144198 -0.00637025 -7.0775e-05)
(0.141723 -0.00440898 0.000750096)
(0.138592 -0.00383175 0.00136312)
(0.138737 -0.00296699 0.00439218)
(0.14266 -0.000888377 0.0081034)
(0.14767 0.000805373 0.00924114)
(0.149355 -0.00103733 0.00697356)
(0.146635 -0.00549666 0.00374131)
(0.145149 -0.00662948 0.00213581)
(0.146728 -0.00259396 0.00279787)
(0.145637 0.0015711 0.0064192)
(0.139826 0.00277789 0.010999)
(0.133711 0.00183799 0.0110515)
(0.129871 -0.000809086 0.00510388)
(0.127447 -0.00565564 -0.00174277)
(0.129397 -0.0106487 -0.00515081)
(0.138573 -0.0106182 -0.0067431)
(0.146556 -0.00573423 -0.00644456)
(0.144757 -0.00220521 0.00037475)
(0.135638 -0.00302822 0.0113692)
(0.126289 -0.00537308 0.0166271)
(0.121748 -0.00431735 0.0128184)
(0.121789 -0.000291475 0.00513984)
(0.124784 0.00252461 -0.0019072)
(0.128949 0.00354465 -0.00657372)
(0.132735 0.00366568 -0.00706783)
(0.135314 0.0047136 -0.0098202)
(0.135643 0.00393227 -0.0098945)
(0.132413 0.000873089 -0.00694916)
(0.128158 -0.00211718 -0.00229077)
(0.12964 -0.00246647 0.000954363)
(0.139468 -0.00012317 0.000641583)
(0.149057 0.00227216 -0.0028561)
(0.14752 0.00221443 -0.00827728)
(0.136628 0.000291087 -0.0146916)
(0.127231 -0.0026486 -0.0207847)
(0.126043 -0.00662871 -0.0245411)
(0.131099 -0.0111981 -0.0245649)
(0.137574 -0.0139676 -0.0193916)
(0.142978 -0.0122659 -0.0103226)
(0.145321 -0.00754613 -0.00309598)
(0.143985 -0.00381531 -0.00074045)
(0.141286 -0.00244456 5.86044e-05)
(0.139998 -0.0023289 0.00348594)
(0.141716 -0.00193539 0.00878268)
(0.146698 -0.00090717 0.0112605)
(0.151679 -0.000899727 0.0085214)
(0.151122 -0.00300866 0.00395394)
(0.145241 -0.00519617 0.00227876)
(0.139551 -0.0046479 0.00395562)
(0.135783 -0.00187931 0.00687592)
(0.133563 0.000832045 0.00888274)
(0.133659 0.00234139 0.00732212)
(0.134572 0.00172652 0.00165011)
(0.133655 -0.00219377 -0.00431148)
(0.133391 -0.00813982 -0.00642114)
(0.139315 -0.0109553 -0.00564372)
(0.147969 -0.0077322 -0.00451199)
(0.148919 -0.00315876 -0.000588105)
(0.141204 -0.00173921 0.00770949)
(0.131871 -0.00234336 0.0139699)
(0.126331 -0.00145915 0.0130884)
(0.125245 0.00119645 0.00775335)
(0.126742 0.00280866 0.00204567)
(0.129495 0.00298365 -0.00286056)
(0.127134 0.00327582 -0.00320271)
(0.130721 0.00312149 -0.00618354)
(0.135072 0.0027397 -0.00603815)
(0.135841 0.00134763 -0.00367822)
(0.131853 -0.000324751 -0.000889515)
(0.128952 -0.000949854 0.00122222)
(0.133825 -9.35554e-06 0.00186112)
(0.14447 0.00197923 -0.000110063)
(0.149757 0.0036177 -0.00491566)
(0.144294 0.00358413 -0.011271)
(0.135976 0.00164673 -0.0174264)
(0.133434 -0.00253079 -0.0218426)
(0.136923 -0.00831268 -0.0238065)
(0.142167 -0.0129097 -0.022028)
(0.146258 -0.0129885 -0.015465)
(0.147824 -0.00878128 -0.00747829)
(0.146612 -0.00389703 -0.00260293)
(0.144304 -0.00111562 -0.000523336)
(0.14303 -0.000664649 0.00232789)
(0.14358 -0.00124076 0.00711064)
(0.146105 -0.0016819 0.0105357)
(0.149733 -0.00190595 0.00948912)
(0.150581 -0.00234013 0.00533778)
(0.145693 -0.00280415 0.00223368)
(0.137741 -0.00280827 0.00204047)
(0.132182 -0.00228841 0.00349662)
(0.132133 -0.00147726 0.00455705)
(0.136022 9.61195e-05 0.00312266)
(0.138822 0.00167167 -0.00105717)
(0.137676 0.000246866 -0.00470026)
(0.135854 -0.00517931 -0.00524853)
(0.138806 -0.0102081 -0.00388032)
(0.146291 -0.00935974 -0.00226473)
(0.149908 -0.00491847 0.000721832)
(0.145464 -0.00215791 0.0064213)
(0.137648 -0.00113581 0.011183)
(0.131756 0.000613839 0.0111578)
(0.128888 0.00332283 0.00806332)
(0.12727 0.00476883 0.00474207)
(0.126254 0.00415971 0.00107224)
(0.12245 0.00200296 0.00109165)
(0.125371 -4.62182e-05 -0.000932748)
(0.130534 -0.000805642 -0.00125328)
(0.1341 -0.00087649 -0.000157616)
(0.132906 -0.000424096 0.00142359)
(0.129296 0.000473834 0.00308496)
(0.129465 0.00128844 0.00397833)
(0.136443 0.00244954 0.00245006)
(0.145365 0.00451198 -0.00179983)
(0.148338 0.00616425 -0.00726014)
(0.145481 0.0056632 -0.0124777)
(0.143991 0.00207755 -0.0170092)
(0.146678 -0.00424501 -0.0205496)
(0.15028 -0.0104611 -0.0217827)
(0.152281 -0.0121511 -0.0186243)
(0.152143 -0.00871687 -0.0117569)
(0.149921 -0.00381476 -0.00515337)
(0.147169 -0.000634805 -0.00118085)
(0.145847 0.000425111 0.00155198)
(0.145999 0.00021631 0.00506971)
(0.146535 -0.000823436 0.00838725)
(0.146872 -0.00215582 0.00885211)
(0.14595 -0.00249772 0.00597701)
(0.142593 -0.0013937 0.00220732)
(0.138167 -0.000329541 0.000216923)
(0.136019 -0.0011454 0.00081116)
(0.137655 -0.00299403 0.00242965)
(0.140743 -0.00278958 0.0021032)
(0.141301 8.22891e-06 -0.000793488)
(0.138573 0.0014361 -0.00267155)
(0.13609 -0.00189588 -0.0014411)
(0.13737 -0.00764508 0.000349332)
(0.143021 -0.00981326 0.00133003)
(0.14875 -0.00725854 0.00314266)
(0.14912 -0.00379067 0.00676926)
(0.143967 -0.000710476 0.00955048)
(0.137063 0.00290608 0.00897616)
(0.130999 0.00633534 0.00661628)
(0.126083 0.00732723 0.00478063)
(0.122881 0.00517026 0.003288)
(0.122478 0.00360663 0.0065355)
(0.12528 0.000359164 0.00556412)
(0.129198 -0.00154137 0.00452582)
(0.131971 -0.0018935 0.00395275)
(0.131686 -0.000361656 0.00373455)
(0.129228 0.00247625 0.00432138)
(0.128163 0.00469577 0.00557944)
(0.131211 0.00519175 0.00547033)
(0.13747 0.00515993 0.00254914)
(0.143747 0.00636051 -0.00194341)
(0.148509 0.00802944 -0.00627924)
(0.153072 0.00715156 -0.0102082)
(0.157846 0.00175864 -0.0143546)
(0.160766 -0.00557125 -0.0179886)
(0.16059 -0.00945305 -0.0184015)
(0.15804 -0.00748141 -0.0143515)
(0.154347 -0.00299179 -0.00819439)
(0.150761 2.4061e-05 -0.00294059)
(0.148091 0.00107877 0.000676784)
(0.146478 0.00121533 0.00364429)
(0.145528 0.000668242 0.00617763)
(0.144105 -0.000308987 0.00715199)
(0.141371 -0.000514926 0.00548193)
(0.138637 0.000627939 0.00215462)
(0.138629 0.00141234 -0.000131838)
(0.142411 -0.000524849 0.000226983)
(0.146745 -0.00434106 0.00181244)
(0.146982 -0.00571969 0.0018263)
(0.142818 -0.00257201 0.000567786)
(0.138208 0.00115791 0.00155812)
(0.136547 0.000538489 0.00475744)
(0.138394 -0.00429127 0.00608036)
(0.143145 -0.00864819 0.0049654)
(0.148873 -0.0086648 0.00472508)
(0.151458 -0.00538714 0.00684325)
(0.14837 -0.00116757 0.00844289)
(0.141054 0.00345136 0.00683301)
(0.132459 0.00769678 0.00430516)
(0.125492 0.00935529 0.00422504)
(0.122181 0.00737983 0.00592485)
(0.122413 0.00547226 0.00948005)
(0.125178 0.00278747 0.00936708)
(0.129215 0.00112086 0.00777598)
(0.133159 0.000596021 0.00600425)
(0.134861 0.00148406 0.00479776)
(0.133684 0.00386113 0.00483879)
(0.132006 0.00682055 0.00620282)
(0.132419 0.00853204 0.00699951)
(0.135089 0.00805475 0.00514723)
(0.138918 0.00639232 0.00153908)
(0.143904 0.00513318 -0.00147534)
(0.151178 0.0045122 -0.00381313)
(0.159811 0.00284921 -0.00748153)
(0.165182 -0.000605663 -0.0122958)
(0.164872 -0.00375187 -0.0154333)
(0.161744 -0.00409351 -0.0148917)
(0.159044 -0.00231494 -0.0112316)
(0.157016 -0.00038376 -0.00640901)
(0.154396 0.00113534 -0.0022724)
(0.150832 0.00199061 0.000320634)
(0.146952 0.00166787 0.00185027)
(0.143322 0.000796663 0.00326798)
(0.14033 0.000840125 0.00445425)
(0.139099 0.00206816 0.00426685)
(0.141812 0.00250986 0.00255486)
(0.148859 8.42356e-05 0.00101873)
(0.155489 -0.00452183 0.00123853)
(0.155233 -0.00690958 0.00263688)
(0.14847 -0.0044127 0.00434396)
(0.141914 -9.41055e-05 0.00721003)
(0.139805 0.00169782 0.0098863)
(0.141126 -0.000443779 0.0090549)
(0.144229 -0.00465236 0.00564462)
(0.148447 -0.00672725 0.00318355)
(0.150934 -0.00459886 0.00330197)
(0.148063 0.000124034 0.00439785)
(0.14006 0.00506328 0.00405739)
(0.130657 0.0087385 0.00307764)
(0.123957 0.00992413 0.0042668)
(0.121581 0.00839802 0.00731133)
(0.12495 0.00981039 0.00487745)
(0.127406 0.00731122 0.00473139)
(0.130952 0.00533036 0.00471745)
(0.134332 0.0038868 0.00469456)
(0.135941 0.00329417 0.00436071)
(0.135305 0.00425623 0.00396373)
(0.133698 0.00672902 0.00423817)
(0.133303 0.00929751 0.00514839)
(0.135148 0.0100189 0.00542958)
(0.138446 0.00802041 0.00408486)
(0.142147 0.00442313 0.00144776)
(0.146515 0.00132811 -0.00165709)
(0.152698 -0.000519668 -0.00509402)
(0.160073 -0.00179672 -0.008558)
(0.165194 -0.00250447 -0.0113367)
(0.165734 -0.00205214 -0.0126608)
(0.163279 -0.000860304 -0.0120311)
(0.16066 0.000272934 -0.00928501)
(0.158733 0.00142585 -0.00556149)
(0.156751 0.00270818 -0.00292741)
(0.153619 0.00351725 -0.00206915)
(0.149228 0.00307291 -0.00144897)
(0.145359 0.0015024 0.000540003)
(0.144029 -0.00049758 0.00312433)
(0.14615 -0.002857 0.00420758)
(0.150716 -0.00591966 0.00343653)
(0.154655 -0.00928943 0.00306069)
(0.154576 -0.0106158 0.00471864)
(0.150118 -0.00730884 0.00728283)
(0.144873 -0.000358058 0.00863169)
(0.141558 0.00562686 0.00720751)
(0.140096 0.00615021 0.003242)
(0.14059 0.0011247 -0.000272259)
(0.143447 -0.00433884 -0.000855894)
(0.146509 -0.00495502 0.000517585)
(0.145502 -0.000289 0.00187161)
(0.139188 0.00587145 0.0023811)
(0.131242 0.0104873 0.00276508)
(0.125848 0.012558 0.0037422)
(0.124104 0.0120926 0.00467223)
(0.137876 0.0131795 -0.00373767)
(0.138985 0.00986035 -0.0065226)
(0.140136 0.00714457 -0.00670909)
(0.141326 0.00569205 -0.00437399)
(0.140876 0.00521473 -0.000886248)
(0.137903 0.00532542 0.0023267)
(0.134035 0.00568356 0.00485868)
(0.131966 0.00568881 0.00716735)
(0.133197 0.00464263 0.00925629)
(0.137469 0.00253776 0.010412)
(0.143353 0.000128736 0.00970422)
(0.149299 -0.00198792 0.00645983)
(0.154448 -0.00338221 0.000913536)
(0.158085 -0.00355897 -0.00528286)
(0.159217 -0.00239089 -0.00964008)
(0.157582 -0.000294942 -0.0109919)
(0.153922 0.00182905 -0.0103389)
(0.149884 0.00320098 -0.00883439)
(0.147361 0.00336255 -0.00691544)
(0.147249 0.00232074 -0.00515849)
(0.148792 0.00113832 -0.00422969)
(0.150562 0.00124579 -0.00408512)
(0.151994 0.00235033 -0.00372877)
(0.153215 0.00181107 -0.00221712)
(0.154167 -0.00184332 0.000133957)
(0.154939 -0.00669824 0.00269517)
(0.155519 -0.00937516 0.00560562)
(0.154904 -0.00848979 0.00862152)
(0.151837 -0.00456085 0.0102405)
(0.147218 0.00102383 0.0088445)
(0.143322 0.0054623 0.00447114)
(0.141432 0.00582294 -0.000708548)
(0.141771 0.00161808 -0.00350087)
(0.143774 -0.00430498 -0.00207919)
(0.145757 -0.00713726 0.00168457)
(0.145257 -0.00420324 0.00455707)
(0.141411 0.00256235 0.00548272)
(0.136976 0.00947125 0.0051225)
(0.135187 0.0140972 0.00350452)
(0.136204 0.0152383 0.000252018)
(0.15064 0.0104845 -0.00406852)
(0.152783 0.00705464 -0.00829214)
(0.153293 0.00448006 -0.0101507)
(0.15215 0.00411768 -0.00990093)
(0.14972 0.00542682 -0.00818938)
(0.147129 0.00676101 -0.00562878)
(0.145788 0.00679471 -0.00268019)
(0.146306 0.00520041 0.000606589)