/*--------------------------------*- C++ -*----------------------------------*\
| =========                 |                                                 |
| \\      /  F ield         | OpenFOAM: The Open Source CFD Toolbox           |
|  \\    /   O peration     | Version:  2306                                  |
|   \\  /    A nd           | Website:  www.openfoam.com                      |
|    \\/     M anipulation  |                                                 |
\*---------------------------------------------------------------------------*/
FoamFile
{
    version     2.0;
    format      ascii;
    arch        "LSB;label=32;scalar=64";
    class       volVectorField;
    location    "10";
    object      U_0;
}
// * * * * * * * * * * * * * * * * * * * * * * * * * * * * * * * * * * * * * //

dimensions      [0 1 -1 0 0 0 0];

internalField   nonuniform List<vector> 
60000
(
(0.00618467 1.33454e-05 -0.000782101)
(0.00642981 2.13562e-05 -0.000440384)
(0.0066998 2.52984e-05 -0.000278265)
(0.00708036 2.71275e-05 -0.000151493)
(0.00757651 2.00301e-05 0.000132935)
(0.00813433 1.74082e-05 0.00065976)
(0.0085968 1.80874e-05 0.00132501)
(0.0087487 2.28608e-05 0.0019816)
(0.00852772 2.82473e-05 0.00244608)
(0.00810976 3.04932e-05 0.00258482)
(0.00773069 2.92435e-05 0.00241713)
(0.00746721 2.58229e-05 0.00207479)
(0.00725849 2.00358e-05 0.00172829)
(0.00703952 1.15092e-05 0.00149212)
(0.00677602 2.27321e-06 0.00137727)
(0.00643515 -4.2441e-06 0.00133315)
(0.00600723 -5.0056e-06 0.00132237)
(0.00557294 -3.3512e-06 0.00129608)
(0.00529452 -2.53769e-06 0.0012083)
(0.00523822 -9.31981e-07 0.00101456)
(0.00529918 1.18404e-06 0.00069079)
(0.00539803 -4.93105e-06 0.000343361)
(0.00559579 -1.23525e-05 8.55631e-05)
(0.0059268 -1.5575e-05 -0.000110188)
(0.00629515 -8.57288e-06 -0.000272051)
(0.00662732 7.81314e-06 -0.000295208)
(0.00694348 2.12903e-05 -0.000182786)
(0.00724037 2.4347e-05 -0.000125777)
(0.00747634 1.74771e-05 -0.000348047)
(0.00769185 -8.91971e-06 -0.000940432)
(0.007959 -3.49785e-05 -0.00169135)
(0.0081799 -4.13846e-05 -0.00223377)
(0.00817212 -2.9604e-05 -0.00237398)
(0.00789898 -1.44637e-05 -0.00231316)
(0.00744433 1.34999e-06 -0.00232296)
(0.0068744 1.38319e-05 -0.00233394)
(0.00626841 1.51998e-05 -0.00222788)
(0.00581878 8.74053e-06 -0.00202304)
(0.00571771 3.87712e-06 -0.0017097)
(0.00591111 3.02933e-06 -0.0012613)
(0.0183285 7.0847e-05 -0.00208415)
(0.0190729 0.000111207 -0.00124891)
(0.0200692 0.000104267 -0.000798549)
(0.0214079 7.87363e-05 -0.000352326)
(0.0230239 4.42359e-05 0.000533305)
(0.024738 5.12346e-05 0.00197955)
(0.0261258 0.000105733 0.00372715)
(0.0266158 0.000195063 0.0053986)
(0.0260033 0.000268435 0.00654088)
(0.0247536 0.000280371 0.00683027)
(0.023575 0.000238073 0.00632295)
(0.0227658 0.000179082 0.00539361)
(0.0221916 0.000122946 0.00448803)
(0.0216249 7.11047e-05 0.00385849)
(0.020892 2.40273e-05 0.00351685)
(0.0198833 -1.18553e-05 0.00338097)
(0.0186379 -3.63837e-05 0.00336087)
(0.0174069 -6.77414e-05 0.00329046)
(0.0165524 -0.000102115 0.00301956)
(0.0162125 -0.000112253 0.00246307)
(0.0162163 -0.000102687 0.00167245)
(0.0164328 -0.000117687 0.000895848)
(0.0169305 -0.000132794 0.000300866)
(0.0177072 -0.000105991 -0.000176002)
(0.0185928 -3.6811e-05 -0.000512353)
(0.0195077 4.29358e-05 -0.000509934)
(0.0205271 7.1607e-05 -0.000267199)
(0.0216384 2.58554e-05 -0.000241297)
(0.0227568 -9.32466e-05 -0.000911199)
(0.023896 -0.000274005 -0.00242241)
(0.0249566 -0.000377514 -0.00426478)
(0.0255051 -0.000314233 -0.00560953)
(0.0251945 -0.000144438 -0.00607315)
(0.0241734 1.64443e-05 -0.00608331)
(0.0228067 0.000120625 -0.00608696)
(0.0212999 0.00014743 -0.00598559)
(0.0197401 9.32097e-05 -0.00568733)
(0.0183883 1.13029e-05 -0.00521123)
(0.0177021 -2.55054e-05 -0.00442067)
(0.0177917 2.87691e-06 -0.00327078)
(0.0304619 0.000166755 -0.00363108)
(0.0315798 0.000237626 -0.0024164)
(0.0333128 0.000189937 -0.00174945)
(0.0356571 9.20249e-05 -0.00108599)
(0.038461 1.33542e-06 0.000239433)
(0.0414584 2.60701e-05 0.0024193)
(0.0440443 0.000164002 0.00509027)
(0.045303 0.000388697 0.00767838)
(0.0446995 0.000584578 0.00954132)
(0.0427426 0.000637123 0.0101878)
(0.0406143 0.000546769 0.00960995)
(0.0390702 0.000402445 0.0083182)
(0.0380679 0.000263552 0.00698199)
(0.0372188 0.000141711 0.00596825)
(0.0361525 3.52413e-05 0.00530944)
(0.0346456 -4.72072e-05 0.00497288)
(0.0327328 -0.000113627 0.00490455)
(0.0307101 -0.000200891 0.00485154)
(0.0290442 -0.000292836 0.00451597)
(0.0280413 -0.000325097 0.00374564)
(0.0276519 -0.000307081 0.00266228)
(0.0277542 -0.000324058 0.00161359)
(0.0283689 -0.000327354 0.000784967)
(0.0294189 -0.000219758 9.42471e-05)
(0.0306998 -3.99249e-05 -0.000367791)
(0.0321662 0.000114143 -0.000327479)
(0.0339648 0.000104984 7.96472e-05)
(0.0360659 -9.21949e-05 0.000238012)
(0.0382995 -0.000466287 -0.000525044)
(0.0406122 -0.000919829 -0.00250855)
(0.0427348 -0.0011254 -0.00519734)
(0.0438516 -0.000900677 -0.00745912)
(0.0433961 -0.000426585 -0.00857889)
(0.0417376 6.97784e-06 -0.0089231)
(0.039607 0.000260649 -0.00898275)
(0.0373927 0.000297658 -0.00876659)
(0.035069 0.000155941 -0.00835599)
(0.0326642 -1.89178e-05 -0.00781829)
(0.0307849 -7.24365e-05 -0.00686116)
(0.0300731 1.97867e-05 -0.00531439)
(0.0425078 0.000249527 -0.00565911)
(0.0435369 0.000348114 -0.00427242)
(0.0457502 0.000223488 -0.0035826)
(0.0489327 -1.23226e-05 -0.00297668)
(0.0528501 -0.000227798 -0.00155301)
(0.0572071 -0.000216789 0.00106965)
(0.0613625 3.33145e-05 0.00454679)
(0.0640999 0.000449104 0.00812007)
(0.0643189 0.000840919 0.0109527)
(0.062143 0.00101194 0.0123755)
(0.0590312 0.000913376 0.0122023)
(0.0564688 0.000677477 0.0109225)
(0.0548554 0.000428907 0.00937969)
(0.0537476 0.000211749 0.00806502)
(0.05254 3.12981e-05 0.00701759)
(0.0508291 -0.000103088 0.00629504)
(0.0485509 -0.00021338 0.00603561)
(0.0458673 -0.00036047 0.00602747)
(0.0431634 -0.000524008 0.00579645)
(0.0409561 -0.000600852 0.0050061)
(0.039576 -0.00059631 0.00378137)
(0.0390857 -0.000631855 0.00258953)
(0.0394802 -0.000619254 0.00164754)
(0.0405727 -0.00038644 0.000823132)
(0.0421016 -3.44448e-05 0.000264711)
(0.0440419 0.000193466 0.000371744)
(0.0466121 8.88552e-05 0.00107726)
(0.0497289 -0.000377939 0.00170365)
(0.0530149 -0.00117264 0.00142802)
(0.0563782 -0.00206111 -0.000360257)
(0.0597389 -0.00242701 -0.00356317)
(0.0620311 -0.0019559 -0.00698622)
(0.0621268 -0.00101806 -0.00932586)
(0.0603483 -0.000154032 -0.0105236)
(0.0578082 0.000359782 -0.0109643)
(0.0552098 0.000444805 -0.0107675)
(0.0524585 0.000200291 -0.0102945)
(0.0491086 -8.33867e-05 -0.00983088)
(0.0455465 -0.000153332 -0.00903092)
(0.0430827 1.03456e-05 -0.00750881)
(0.0550357 0.000282524 -0.00794694)
(0.0549685 0.000390916 -0.00678383)
(0.056883 0.00014915 -0.00645852)
(0.0602389 -0.0003142 -0.00637178)
(0.0647323 -0.000795721 -0.00541578)
(0.0701794 -0.000944138 -0.00292675)
(0.0761295 -0.000567817 0.00105131)
(0.0812431 0.000155382 0.00576234)
(0.0835969 0.000857362 0.0100253)
(0.082354 0.00126192 0.0128249)
(0.0787214 0.00125551 0.0136871)
(0.074958 0.00096864 0.0129356)
(0.0724188 0.000600494 0.0115509)
(0.0709438 0.000264479 0.0102128)
(0.0697327 -3.29726e-06 0.00890609)
(0.0681344 -0.000185996 0.00766859)
(0.0659123 -0.000319132 0.00695116)
(0.062971 -0.000491945 0.00684977)
(0.0593442 -0.000699187 0.00681382)
(0.0555334 -0.000827275 0.0061853)
(0.0523711 -0.000887273 0.0049403)
(0.0504316 -0.00101832 0.00370636)
(0.0499496 -0.00104104 0.00280734)
(0.0507052 -0.000661657 0.00199934)
(0.0522551 -6.29187e-05 0.00142458)
(0.0544801 0.000270691 0.00166805)
(0.0576337 3.31748e-05 0.00281776)
(0.0615539 -0.000838226 0.00419799)
(0.0653871 -0.00225951 0.00493961)
(0.0688478 -0.00383583 0.00423492)
(0.0729202 -0.0045896 0.00143078)
(0.0772619 -0.00383885 -0.00300178)
(0.0794961 -0.00218022 -0.00724983)
(0.0788997 -0.000654091 -0.0102348)
(0.0767466 0.000304929 -0.0118151)
(0.0742443 0.000554669 -0.0120374)
(0.0715225 0.000237444 -0.0115885)
(0.0677323 -0.000154815 -0.0112141)
(0.0626243 -0.000245135 -0.0107061)
(0.0577276 -2.70247e-05 -0.00953531)
(0.0693883 0.000298601 -0.00978765)
(0.0671665 0.000375851 -0.00913975)
(0.0676507 -4.83854e-05 -0.00958328)
(0.0698375 -0.00086669 -0.0105569)
(0.0733614 -0.00180571 -0.0107804)
(0.0783549 -0.00240289 -0.00941741)
(0.0850973 -0.00219549 -0.00612234)
(0.0930732 -0.00112526 -0.000837072)
(0.099522 0.000290099 0.00535138)
(0.101389 0.00120452 0.0104746)
(0.0987264 0.0014601 0.0132732)
(0.0941548 0.00122109 0.0137406)
(0.0904376 0.000753698 0.0129718)
(0.0883593 0.000279909 0.0120467)
(0.087133 -9.72142e-05 0.0109518)
(0.0858276 -0.000323844 0.0094023)
(0.0840385 -0.000445845 0.00800451)
(0.0814672 -0.000582011 0.00746523)
(0.0776197 -0.000752442 0.00750323)
(0.0724975 -0.00086874 0.00713455)
(0.0671023 -0.00100611 0.0059471)
(0.0626276 -0.00135963 0.00467712)
(0.0600464 -0.00157391 0.00392692)
(0.0596523 -0.00109498 0.00334463)
(0.0607832 -0.000177331 0.00292554)
(0.0629317 0.000362221 0.00341477)
(0.066283 -1.54578e-05 0.00508231)
(0.0706733 -0.00140479 0.00718551)
(0.0747507 -0.00360333 0.00879842)
(0.0771903 -0.00611654 0.00946237)
(0.0795632 -0.00769507 0.00850567)
(0.0849144 -0.00708692 0.00490089)
(0.0912895 -0.00463549 -0.000844424)
(0.0946572 -0.00193214 -0.00668117)
(0.0947359 -0.000119165 -0.0107447)
(0.0932749 0.000542797 -0.0123143)
(0.0911412 0.000262067 -0.0122597)
(0.0876266 -0.000195526 -0.0120258)
(0.0818293 -0.000292204 -0.0117879)
(0.0748194 -3.51034e-05 -0.0109729)
(0.0861355 0.000370296 -0.0107287)
(0.0818645 0.000384812 -0.010264)
(0.0808627 -0.000269773 -0.0112121)
(0.0812218 -0.00155922 -0.0132875)
(0.0818641 -0.00314253 -0.0151482)
(0.0835392 -0.00442022 -0.0156714)
(0.0875449 -0.00478852 -0.0144573)
(0.0950643 -0.00392034 -0.0109185)
(0.105729 -0.00196123 -0.00439534)
(0.114384 0.000120154 0.00355834)
(0.116174 0.00123506 0.00967663)
(0.112589 0.00133208 0.0124693)
(0.108015 0.000857619 0.0128869)
(0.105197 0.00022089 0.0127198)
(0.103908 -0.000307371 0.0124522)
(0.102878 -0.000582047 0.0113328)
(0.101596 -0.000648078 0.00950605)
(0.0999037 -0.000684407 0.00820828)
(0.0969351 -0.000724222 0.00795321)
(0.0917691 -0.000702145 0.00776625)
(0.0848694 -0.00079777 0.00667847)
(0.0775173 -0.00140064 0.00529146)
(0.0713504 -0.00202513 0.00461079)
(0.0682016 -0.00163238 0.00435735)
(0.0679875 -0.000378996 0.0042421)
(0.0695484 0.000491701 0.00504753)
(0.0726368 8.30085e-06 0.00721527)
(0.0772346 -0.00190732 0.00981379)
(0.0822802 -0.00474695 0.0114782)
(0.0852627 -0.00795918 0.0121713)
(0.0849972 -0.0105468 0.0129761)
(0.0862386 -0.0109246 0.0128219)
(0.0934351 -0.00856426 0.00902106)
(0.102585 -0.00481187 0.001579)
(0.108323 -0.00150727 -0.00613355)
(0.110056 0.000149118 -0.0106461)
(0.109394 0.000238217 -0.0119818)
(0.106775 -0.000159055 -0.0122427)
(0.101411 -0.000248024 -0.0123384)
(0.0936022 3.75506e-05 -0.0117778)
(0.103344 0.000635493 -0.010877)
(0.0981479 0.000482406 -0.00999105)
(0.0969558 -0.00033073 -0.0105142)
(0.0971076 -0.00190081 -0.0128569)
(0.0952891 -0.00403704 -0.0161006)
(0.0917901 -0.00613359 -0.0187773)
(0.0900986 -0.00742894 -0.0198851)
(0.0926654 -0.00733921 -0.0189075)
(0.101128 -0.00570463 -0.0149425)
(0.114472 -0.00292851 -0.00721824)
(0.124865 -0.000421486 0.00191115)
(0.126482 0.000762171 0.00825255)
(0.122846 0.000722005 0.0107161)
(0.119702 9.1591e-05 0.0114134)
(0.118721 -0.00063053 0.0121339)
(0.118178 -0.00105516 0.0123056)
(0.117087 -0.00104942 0.0110774)
(0.116107 -0.000875055 0.00931472)
(0.114863 -0.000718297 0.00842797)
(0.11149 -0.000484989 0.00814556)
(0.105187 -0.000351907 0.00712296)
(0.0964626 -0.00100863 0.00555453)
(0.0864629 -0.00207705 0.00476816)
(0.0786047 -0.00204408 0.00475685)
(0.0753417 -0.000599636 0.00493113)
(0.0755713 0.000693494 0.00598704)
(0.0780476 0.000300003 0.00857263)
(0.0824775 -0.00191056 0.0115921)
(0.0885798 -0.00513999 0.0129602)
(0.0943775 -0.00845231 0.012364)
(0.0957291 -0.0113252 0.0125963)
(0.0923617 -0.0130248 0.0154434)
(0.0928445 -0.0121546 0.0168607)
(0.101748 -0.00873067 0.0122029)
(0.113345 -0.00431721 0.00280489)
(0.121139 -0.00111165 -0.00561301)
(0.123647 -0.000138095 -0.00990026)
(0.122408 -0.000216324 -0.0115181)
(0.118286 -6.89675e-05 -0.0122178)
(0.111262 0.0003386 -0.0119829)
(0.115611 0.000817482 -0.00973318)
(0.111609 0.000669904 -0.00824687)
(0.111602 -0.000123168 -0.0075734)
(0.113838 -0.00156939 -0.00918654)
(0.112968 -0.0036841 -0.0130742)
(0.106278 -0.0062412 -0.0177325)
(0.0981473 -0.00858481 -0.0214468)
(0.09427 -0.00980313 -0.0228556)
(0.0967742 -0.0092743 -0.0212693)
(0.106946 -0.00700876 -0.0160247)
(0.121817 -0.00380273 -0.00715656)
(0.131438 -0.00120006 0.00187698)
(0.131486 -0.000297798 0.0069387)
(0.128555 -0.000564341 0.00837005)
(0.128543 -0.00117028 0.00932154)
(0.129976 -0.00163311 0.0107311)
(0.129421 -0.00171064 0.0111667)
(0.127979 -0.00141667 0.0101511)
(0.127988 -0.00092291 0.00899015)
(0.127849 -0.000338183 0.00842931)
(0.124929 2.14301e-05 0.00737253)
(0.118115 -0.000424907 0.00557274)
(0.106619 -0.00162553 0.00450449)
(0.0935718 -0.00200647 0.00462582)
(0.085042 -0.00065734 0.0051227)
(0.0824311 0.00096371 0.00635021)
(0.0838912 0.000830714 0.0089674)
(0.0881042 -0.00144045 0.0118429)
(0.0944351 -0.00496556 0.0127626)
(0.101826 -0.0082591 0.0111286)
(0.106942 -0.0105237 0.00997029)
(0.105382 -0.0123002 0.0131411)
(0.0997136 -0.0133128 0.0188006)
(0.100825 -0.0118917 0.0196079)
(0.11192 -0.0079013 0.0125681)
(0.12518 -0.00343176 0.00219927)
(0.131915 -0.000890418 -0.00565256)
(0.130556 -0.000221995 -0.00949312)
(0.125957 5.87487e-05 -0.0107958)
(0.121039 0.000475871 -0.0107674)
(0.113982 0.000770549 -0.00592889)
(0.113193 0.000525508 -0.00376201)
(0.115902 -0.000240093 -0.00161756)
(0.122535 -0.00127604 -0.00195475)
(0.127238 -0.00256252 -0.00627495)
(0.12295 -0.00463333 -0.0128316)
(0.111523 -0.00748309 -0.0193186)
(0.101682 -0.00997132 -0.023777)
(0.0983284 -0.01093 -0.0245929)
(0.102111 -0.0101204 -0.0214955)
(0.113693 -0.00774788 -0.0144719)
(0.128492 -0.00441866 -0.00487592)
(0.135692 -0.00200541 0.00273636)
(0.133559 -0.00181873 0.00533818)
(0.131716 -0.00265556 0.0055411)
(0.135227 -0.00284117 0.0068183)
(0.138044 -0.00223057 0.00869444)
(0.135827 -0.00168826 0.00931842)
(0.133371 -0.00136156 0.0088285)
(0.134708 -0.000785096 0.00833868)
(0.137487 -6.6899e-05 0.00746626)
(0.13716 -7.84022e-06 0.00558473)
(0.129184 -0.00089497 0.0040453)
(0.113839 -0.00132537 0.00405957)
(0.0992131 -0.000202363 0.00505922)
(0.0917528 0.00133471 0.00659061)
(0.091177 0.00124305 0.00877293)
(0.0950746 -0.00119305 0.0106412)
(0.101622 -0.00483135 0.0104814)
(0.109448 -0.00798606 0.00773743)
(0.116289 -0.00952203 0.00540891)
(0.118176 -0.0102408 0.00827448)
(0.112781 -0.0115408 0.015953)
(0.106357 -0.0127198 0.0214219)
(0.110512 -0.0110199 0.0183535)
(0.123645 -0.0065489 0.00861918)
(0.13297 -0.00191605 -0.00147257)
(0.130731 0.000459686 -0.00743354)
(0.122568 0.000938719 -0.00874072)
(0.116677 0.000804125 -0.00762136)
(0.110584 0.00111598 -0.00257796)
(0.109398 0.000547179 0.00103923)
(0.11077 -0.000445037 0.005238)
(0.118104 -0.00149732 0.00735811)
(0.129504 -0.00196464 0.00366343)
(0.133941 -0.00259581 -0.00486556)
(0.125883 -0.00487944 -0.0140172)
(0.112632 -0.00820104 -0.0214682)
(0.104177 -0.0103125 -0.0255507)
(0.103225 -0.0108364 -0.0251238)
(0.108502 -0.0102871 -0.0203665)
(0.12042 -0.00834607 -0.0120135)
(0.134448 -0.00503483 -0.0028661)
(0.140157 -0.00292041 0.00242824)
(0.136747 -0.00369748 0.00331841)
(0.134956 -0.00492803 0.00359016)
(0.139199 -0.00385994 0.00531865)
(0.141685 -0.00150652 0.00705668)
(0.138651 -0.000362643 0.00753716)
(0.135429 -0.000672003 0.00730944)
(0.137439 -0.00127596 0.00689233)
(0.144109 -0.00144095 0.00566837)
(0.146159 -0.0010368 0.00390504)
(0.13565 -0.000235512 0.00328708)
(0.118266 0.00108228 0.00457797)
(0.105453 0.00210172 0.00698093)
(0.101401 0.00138027 0.00919267)
(0.103621 -0.0017349 0.00995687)
(0.109163 -0.0056918 0.00839461)
(0.116898 -0.00842217 0.00418675)
(0.124925 -0.00887656 -0.000228955)
(0.128987 -0.00813457 0.00111099)
(0.125595 -0.00829754 0.00982176)
(0.116433 -0.010493 0.0190075)
(0.112504 -0.0119825 0.0201576)
(0.120131 -0.00920384 0.0123683)
(0.128923 -0.00335126 0.00177063)
(0.128217 0.00116567 -0.00566912)
(0.12044 0.00247643 -0.00767301)
(0.113686 0.00180226 -0.005735)
(0.11474 0.00218844 -0.00388253)
(0.111202 0.00142672 0.000475431)
(0.108886 -2.1655e-05 0.00612807)
(0.11188 -0.00173293 0.0114231)
(0.123121 -0.00211738 0.0114534)
(0.135274 -0.00128016 0.00367297)
(0.136261 -0.00181255 -0.00718228)
(0.125611 -0.00498423 -0.016412)
(0.112985 -0.0081692 -0.0230255)
(0.107504 -0.00970963 -0.0260371)
(0.109422 -0.0103832 -0.0245827)
(0.116105 -0.010683 -0.0187217)
(0.127922 -0.00934711 -0.00985129)
(0.140323 -0.0062089 -0.00196766)
(0.143806 -0.00441535 0.00168139)
(0.138995 -0.00520495 0.00233953)
(0.136595 -0.00546315 0.00310276)
(0.140056 -0.00308644 0.00486596)
(0.143116 6.79082e-05 0.00625025)
(0.141504 0.00115114 0.00638807)
(0.13812 -0.000965943 0.00590567)
(0.140444 -0.00421934 0.00536601)
(0.148711 -0.00430943 0.0042373)
(0.149867 -0.000718506 0.0028956)
(0.138026 0.0027472 0.00351087)
(0.123752 0.00370893 0.00691874)
(0.116093 0.00192573 0.0104323)
(0.114504 -0.00196732 0.0106327)
(0.11581 -0.00677207 0.00725226)
(0.120757 -0.0101626 0.00207916)
(0.129885 -0.00999311 -0.00364859)
(0.13704 -0.00714705 -0.00532068)
(0.136089 -0.00533456 0.00194256)
(0.12735 -0.00675662 0.0136991)
(0.118318 -0.0102196 0.0194699)
(0.118269 -0.0101852 0.0150023)
(0.123641 -0.0047889 0.00538664)
(0.125322 0.00119763 -0.003058)
(0.122334 0.00362854 -0.00721193)
(0.118312 0.0031429 -0.00691333)
(0.123033 0.00370249 -0.00702915)
(0.118706 0.00304599 -0.00426292)
(0.114015 0.000973823 0.000134737)
(0.112733 -0.00193151 0.00622805)
(0.119178 -0.00295485 0.0103541)
(0.132163 -0.00118087 0.00717111)
(0.140853 0.000416742 -0.00186155)
(0.137132 -0.0013347 -0.0108985)
(0.124827 -0.0047281 -0.0181456)
(0.114571 -0.00730092 -0.0236038)
(0.113026 -0.00904134 -0.0258593)
(0.117861 -0.010834 -0.0235871)
(0.125737 -0.0119493 -0.0165501)
(0.136205 -0.0103896 -0.00731814)
(0.143929 -0.00709232 -0.00064302)
(0.143314 -0.00524583 0.00160298)
(0.138472 -0.00502735 0.00184023)
(0.137256 -0.00419315 0.00313823)
(0.141066 -0.00173718 0.00550704)
(0.145171 0.00108492 0.00687391)
(0.145058 0.000863031 0.0064614)
(0.142328 -0.0037117 0.00528967)
(0.143903 -0.0073102 0.00413103)
(0.14953 -0.00434803 0.00272295)
(0.149373 0.0016823 0.00243811)
(0.14173 0.00450187 0.00596124)
(0.13308 0.00319869 0.0109976)
(0.12706 -9.1619e-06 0.0114518)
(0.123088 -0.00453083 0.00623326)
(0.122479 -0.00958151 -4.04078e-06)
(0.129408 -0.0116912 -0.00483669)
(0.139931 -0.00849028 -0.00786162)
(0.143285 -0.0041767 -0.00428805)
(0.136862 -0.00339365 0.00700563)
(0.126377 -0.00664843 0.0167562)
(0.120216 -0.0087858 0.0166008)
(0.120553 -0.00540324 0.00894929)
(0.122595 0.000437681 0.000306847)
(0.124217 0.00369742 -0.00574712)
(0.124805 0.00410443 -0.00800578)
(0.131082 0.00456236 -0.00874907)
(0.129213 0.00490647 -0.0086231)
(0.125156 0.00283113 -0.00666486)
(0.121296 -0.00103018 -0.00212643)
(0.121868 -0.00333761 0.00318189)
(0.13071 -0.00193587 0.00445164)
(0.142664 0.00101107 2.01514e-05)
(0.145866 0.00144795 -0.00667077)
(0.136893 -0.000966168 -0.0132799)
(0.124453 -0.00383691 -0.019567)
(0.118713 -0.00657341 -0.0242739)
(0.121553 -0.00963409 -0.0254604)
(0.128208 -0.0125962 -0.0216539)
(0.135777 -0.0129483 -0.0130953)
(0.142437 -0.00973045 -0.0042183)
(0.144202 -0.00598596 0.000231271)
(0.141297 -0.00425026 0.000763104)
(0.138361 -0.00374717 0.00157105)
(0.13901 -0.00277729 0.00481752)
(0.143267 -0.000639914 0.00838411)
(0.148139 0.000771656 0.00909186)
(0.149258 -0.00153249 0.00650589)
(0.146286 -0.0059393 0.00337849)
(0.145157 -0.00645429 0.00209419)
(0.14672 -0.00210577 0.00311005)
(0.145063 0.00187299 0.00701637)
(0.138967 0.00281724 0.0113557)
(0.133127 0.00169101 0.0106415)
(0.129504 -0.00121247 0.00418606)
(0.127315 -0.00630206 -0.0024597)
(0.130097 -0.010991 -0.00545072)
(0.139802 -0.0102698 -0.00681744)
(0.146933 -0.00521671 -0.00595468)
(0.143965 -0.00211887 0.00162469)
(0.134398 -0.00332205 0.0124476)
(0.125456 -0.0054906 0.0166334)
(0.121584 -0.0039454 0.0120297)
(0.122034 0.000215042 0.0042279)
(0.125236 0.00276268 -0.0026044)
(0.129316 0.00363065 -0.00697625)
(0.133041 0.00372063 -0.00750293)
(0.135446 0.00469418 -0.0100018)
(0.135455 0.00368552 -0.0097156)
(0.131959 0.000493568 -0.00643596)
(0.128012 -0.00233595 -0.00175437)
(0.130456 -0.00233793 0.00115481)
(0.140842 0.00020275 0.000391929)
(0.149582 0.00241512 -0.00343249)
(0.146694 0.00203793 -0.00906051)
(0.135506 -4.12927e-05 -0.015543)
(0.126965 -0.00307773 -0.021375)
(0.126799 -0.00714525 -0.024663)
(0.132287 -0.0116697 -0.0241032)
(0.13865 -0.0140474 -0.0183163)
(0.143667 -0.0118188 -0.00916986)
(0.145443 -0.00696346 -0.00251307)
(0.143697 -0.00347328 -0.000616949)
(0.140989 -0.00235759 0.000308736)
(0.14 -0.00231065 0.00406274)
(0.142161 -0.00184954 0.00926316)
(0.147417 -0.000845749 0.0111589)
(0.151999 -0.00108204 0.00792755)
(0.150602 -0.00335055 0.00349418)
(0.144364 -0.00534004 0.00231265)
(0.138844 -0.00443085 0.00429389)
(0.135265 -0.00152469 0.00721197)
(0.133336 0.00113479 0.00890591)
(0.133738 0.00246387 0.00681243)
(0.134581 0.00150372 0.000809022)
(0.133499 -0.00281895 -0.00489558)
(0.133708 -0.00874011 -0.00650279)
(0.140391 -0.0109181 -0.00549882)
(0.148669 -0.00721102 -0.0041865)
(0.148401 -0.00284689 0.000259602)
(0.140026 -0.00177478 0.00871884)
(0.130903 -0.00236794 0.0142845)
(0.12597 -0.00119837 0.0126166)
(0.125345 0.00153982 0.00702225)
(0.127038 0.00294301 0.00138753)
(0.129847 0.00300301 -0.00341655)
(0.127353 0.00316707 -0.0036274)
(0.131159 0.00305936 -0.00632874)
(0.135363 0.00263223 -0.00585081)
(0.13562 0.00117244 -0.00332373)
(0.131417 -0.000481524 -0.000531905)
(0.129119 -0.000954932 0.00144368)
(0.134914 0.000163471 0.00179919)
(0.145559 0.00221264 -0.000550479)
(0.149688 0.00366399 -0.00567513)
(0.143465 0.00340879 -0.0121311)
(0.135603 0.00124402 -0.018091)
(0.133977 -0.0031566 -0.0221442)
(0.137975 -0.00897559 -0.0236929)
(0.143164 -0.0132017 -0.0213454)
(0.146883 -0.0126757 -0.0143797)
(0.147959 -0.00813395 -0.00661714)
(0.146397 -0.00336546 -0.00220699)
(0.144056 -0.000899519 -0.00022441)
(0.142961 -0.000685901 0.00284445)
(0.143758 -0.00132093 0.00763825)
(0.146533 -0.00173494 0.0106354)
(0.150064 -0.00196682 0.00907024)
(0.150269 -0.00242496 0.0048179)
(0.144741 -0.00286114 0.00203009)
(0.136773 -0.00279067 0.00214643)
(0.131766 -0.00221069 0.00364905)
(0.132357 -0.00129518 0.00450254)
(0.13645 0.000367349 0.00270961)
(0.13889 0.00173554 -0.00163593)
(0.137429 -0.00018325 -0.00502934)
(0.135925 -0.00590143 -0.00524475)
(0.139615 -0.0104987 -0.00371857)
(0.14717 -0.00897231 -0.00199093)
(0.149831 -0.00446937 0.00130017)
(0.144571 -0.00197273 0.00716503)
(0.136705 -0.000987116 0.0115026)
(0.131208 0.000919029 0.0109058)
(0.128649 0.00363607 0.00761297)
(0.127114 0.00484364 0.00428426)
(0.126212 0.0040413 0.000593196)
(0.122598 0.0016477 0.000867626)
(0.125874 -0.000241747 -0.0010383)
(0.131093 -0.000858205 -0.0011832)
(0.134244 -0.000844116 3.0254e-05)
(0.132588 -0.000341505 0.00167597)
(0.129098 0.000555306 0.00330358)
(0.129984 0.00137953 0.00396285)
(0.137532 0.00263699 0.00206031)
(0.146121 0.00470044 -0.0024646)
(0.1483 0.00616315 -0.00798647)
(0.145339 0.00535082 -0.0130988)
(0.144442 0.00143111 -0.0174471)
(0.147531 -0.00506272 -0.0207423)
(0.151026 -0.0109561 -0.0215361)
(0.152689 -0.0119644 -0.0178248)
(0.152146 -0.00809471 -0.0107932)
(0.149636 -0.00324332 -0.00447575)
(0.146899 -0.000332053 -0.000765204)
(0.145764 0.000484485 0.00197514)
(0.146025 0.000129535 0.00552507)
(0.146574 -0.000994916 0.00861158)
(0.146824 -0.00228008 0.0086554)
(0.145641 -0.00245273 0.00551519)
(0.142028 -0.00126046 0.00183122)
(0.137693 -0.000331643 0.000141921)
(0.135955 -0.00135089 0.0009562)
(0.137926 -0.00308814 0.00249392)
(0.140945 -0.00251272 0.00183776)
(0.141102 0.000352982 -0.00116041)
(0.138199 0.00132622 -0.0027399)
(0.136032 -0.00253182 -0.00128946)
(0.137903 -0.00820829 0.000454099)
(0.143902 -0.00975935 0.001468)
(0.149184 -0.00683777 0.00349498)
(0.148716 -0.00336603 0.00722588)
(0.143091 -0.000264949 0.00971735)
(0.136213 0.00337715 0.00878387)
(0.130317 0.00663732 0.00634347)
(0.12557 0.00726052 0.00457803)
(0.122646 0.00482165 0.00308982)
(0.122675 0.00313858 0.00653471)
(0.125708 3.16516e-05 0.00544835)
(0.129635 -0.00166908 0.00443642)
(0.132137 -0.00179825 0.00391768)
(0.131511 -6.8964e-05 0.00379615)
(0.129027 0.00279098 0.00450302)
(0.128355 0.00483739 0.00570104)
(0.131877 0.0051838 0.00526746)
(0.138313 0.00520589 0.00203889)
(0.144449 0.00649834 -0.0025685)
(0.149125 0.00801625 -0.00684209)
(0.153809 0.0066635 -0.0107132)
(0.158571 0.000856552 -0.0147987)
(0.161169 -0.00632229 -0.0181701)
(0.160599 -0.0094998 -0.0180514)
(0.157761 -0.00693591 -0.0135793)
(0.153924 -0.00242628 -0.00741655)
(0.150348 0.000305004 -0.00237292)
(0.147782 0.00116782 0.00110384)
(0.146284 0.00119109 0.00400244)
(0.145346 0.000560419 0.00640158)
(0.143789 -0.000403636 0.00710071)
(0.140969 -0.000465735 0.00514884)
(0.138443 0.000744579 0.0017947)
(0.138896 0.00131906 -0.000235035)
(0.142956 -0.000938902 0.00036949)
(0.146974 -0.00468958 0.0019023)
(0.146602 -0.00552927 0.00169042)
(0.142157 -0.00203424 0.000518902)
(0.137783 0.00138439 0.00185119)
(0.136588 0.000150758 0.00501149)
(0.138867 -0.00494843 0.00599829)
(0.143901 -0.00895081 0.00483878)
(0.149449 -0.00841556 0.00487285)
(0.151341 -0.00485159 0.00713336)
(0.147579 -0.000564953 0.00845387)
(0.139963 0.00404578 0.00656374)
(0.131433 0.00806573 0.00416728)
(0.12483 0.00929464 0.00438838)
(0.121995 0.00697648 0.00612235)
(0.12262 0.00510731 0.00955719)
(0.125579 0.00251122 0.00917728)
(0.129702 0.000991865 0.00749686)
(0.133515 0.000636739 0.00578163)
(0.134889 0.00170498 0.00472791)
(0.133511 0.00420699 0.00497067)
(0.131986 0.00711052 0.00639175)
(0.13271 0.00858852 0.00693378)
(0.135583 0.00788981 0.00475139)
(0.139524 0.00614009 0.00106012)
(0.144738 0.00494026 -0.00185712)
(0.152304 0.00430911 -0.0042478)
(0.160813 0.00245465 -0.00806955)
(0.16552 -0.00109051 -0.0128007)
(0.164638 -0.00396581 -0.0155359)
(0.16142 -0.00391712 -0.0145322)
(0.158808 -0.00198759 -0.0106205)
(0.15674 -9.46942e-05 -0.00580876)
(0.153966 0.00133453 -0.00184674)
(0.150295 0.00203439 0.000567698)
(0.146412 0.00156943 0.0020369)
(0.142835 0.000718114 0.00345391)
(0.140009 0.000899675 0.00453497)
(0.139196 0.00214298 0.00414939)
(0.14252 0.00233036 0.00234002)
(0.14985 -0.00042103 0.00092282)
(0.155894 -0.00498364 0.00133433)
(0.154633 -0.00681866 0.00283076)
(0.147487 -0.0038624 0.0046775)
(0.141345 0.000352783 0.00762463)
(0.139789 0.00168996 0.00990651)
(0.141427 -0.000883025 0.0085969)
(0.144739 -0.00511663 0.00518947)
(0.148936 -0.00671582 0.0030611)
(0.150865 -0.00408224 0.00343387)
(0.147241 0.000821403 0.00449107)
(0.138845 0.00565093 0.00398945)
(0.12958 0.00903067 0.00314522)
(0.123379 0.00985781 0.00460584)
(0.121484 0.00808769 0.00765857)
(0.125295 0.0095011 0.00475152)
(0.127879 0.00701718 0.00459765)
(0.131441 0.00509982 0.00462794)
(0.13467 0.00375185 0.00461741)
(0.136006 0.003328 0.00428762)
(0.13516 0.00448911 0.00396434)
(0.133591 0.00705304 0.00435644)
(0.133454 0.00947837 0.00527531)
(0.135555 0.00986504 0.0053864)
(0.138961 0.00754863 0.00381096)
(0.142719 0.00388342 0.00103401)
(0.147261 0.000936919 -0.00214061)
(0.153681 -0.00075755 -0.00558183)
(0.160989 -0.00196655 -0.00896605)
(0.165566 -0.00253635 -0.0115786)
(0.165537 -0.00190755 -0.0126625)
(0.162904 -0.000648817 -0.0117445)
(0.160346 0.00049328 -0.00879314)
(0.15845 0.00164073 -0.00511622)
(0.156379 0.00288939 -0.00272088)
(0.153078 0.00354987 -0.0019959)
(0.148637 0.00290612 -0.00125903)
(0.144981 0.00120435 0.000884191)
(0.144065 -0.000863579 0.00339527)
(0.146604 -0.0033004 0.00423269)
(0.151309 -0.00639893 0.00334407)
(0.154921 -0.00959447 0.00312346)
(0.154233 -0.0104208 0.00498201)
(0.14944 -0.00653819 0.00754053)
(0.144339 0.000563005 0.00860617)
(0.141283 0.00607595 0.00674068)
(0.140034 0.00580728 0.00260664)
(0.14082 0.000356455 -0.000573957)
(0.143888 -0.00475635 -0.000756265)
(0.146661 -0.00460428 0.00071518)
(0.14495 0.000525716 0.00199609)
(0.138185 0.00660016 0.0024694)
(0.130401 0.0109036 0.00291689)
(0.125504 0.0126503 0.00389424)
(0.124199 0.0119137 0.00467901)
(0.138218 0.0127545 -0.00427404)
(0.139241 0.00940156 -0.00678132)
(0.140373 0.0068284 -0.00658595)
(0.141431 0.00554787 -0.00398413)
(0.140666 0.00519237 -0.000440668)
(0.13746 0.00536402 0.00270669)
(0.133686 0.00569859 0.00520176)
(0.131988 0.00557666 0.00751402)
(0.133651 0.00435492 0.00953433)
(0.138232 0.00215399 0.0104629)
(0.144221 -0.00024905 0.00939328)
(0.15012 -0.00229051 0.0057703)
(0.155093 -0.00350939 2.81683e-05)
(0.158385 -0.00347092 -0.00605838)
(0.159076 -0.00211687 -0.0100114)
(0.157072 6.19093e-05 -0.0109763)
(0.153272 0.00212698 -0.010136)
(0.149363 0.0033305 -0.00857138)
(0.147154 0.0033062 -0.00666031)
(0.147357 0.00216336 -0.00498812)
(0.149054 0.00107008 -0.0041788)
(0.150826 0.00135093 -0.00407111)
(0.152215 0.00238468 -0.00359549)
(0.153374 0.00145629 -0.00191834)
(0.154258 -0.0025228 0.00052237)
(0.154987 -0.00727613 0.0031325)
(0.155484 -0.00949153 0.00604704)
(0.154623 -0.00812622 0.00891393)
(0.151283 -0.00387105 0.0101907)
(0.14664 0.00172389 0.00838986)
(0.14295 0.00575277 0.00376823)
(0.141344 0.00549276 -0.00130081)
(0.141938 0.000873039 -0.00358837)
(0.144044 -0.00491529 -0.00167491)
(0.145848 -0.00706676 0.00214397)
(0.144928 -0.00345582 0.00479482)
(0.140843 0.0035068 0.00553905)
(0.136654 0.0102097 0.00504168)
(0.135333 0.0144246 0.00318537)
(0.136596 0.0151129 -0.000288223)
(0.151126 0.0100473 -0.00476732)
(0.153026 0.00660885 -0.00871789)
(0.153276 0.00427287 -0.0102643)
(0.151903 0.00419357 -0.00976018)
(0.149368 0.00561077 -0.00788928)
(0.146877 0.00684429 -0.00524517)
(0.14579 0.00666179 -0.00225198)
(0.146547 0.00485722 0.00110912)