/*--------------------------------*- C++ -*----------------------------------*\
| =========                 |                                                 |
| \\      /  F ield         | OpenFOAM: The Open Source CFD Toolbox           |
|  \\    /   O peration     | Version:  2306                                  |
|   \\  /    A nd           | Website:  www.openfoam.com                      |
|    \\/     M anipulation  |                                                 |
\*---------------------------------------------------------------------------*/
FoamFile
{
    version     2.0;
    format      ascii;
    arch        "LSB;label=32;scalar=64";
    class       surfaceScalarField;
    location    "9.5";
    object      phi;
}
// * * * * * * * * * * * * * * * * * * * * * * * * * * * * * * * * * * * * * //

dimensions      [0 3 -1 0 0 0 0];

oriented        oriented;

internalField   nonuniform List<scalar> 
175300
(
4.12642e-06
2.93354e-07
-1.0054e-06
4.29358e-06
3.97043e-07
-7.68102e-07
4.52074e-06
3.81403e-07
-5.69334e-07
4.8386e-06
2.79139e-07
-2.72724e-07
5.19451e-06
2.08336e-07
1.3584e-07
5.50587e-06
2.882e-07
5.6201e-07
5.63329e-06
5.11465e-07
1.03484e-06
5.52837e-06
7.78877e-07
1.47992e-06
5.27879e-06
9.19377e-07
1.78866e-06
5.03194e-06
8.46679e-07
1.8684e-06
4.85328e-06
6.68597e-07
1.7283e-06
4.71452e-06
4.86833e-07
1.49716e-06
4.57255e-06
3.25749e-07
1.32193e-06
4.40479e-06
1.71716e-07
1.26901e-06
4.19534e-06
2.20588e-08
1.30917e-06
3.92498e-06
-7.14232e-08
1.36972e-06
3.62994e-06
-1.3827e-07
1.38928e-06
3.42148e-06
-2.44538e-07
1.33191e-06
3.36427e-06
-3.3736e-07
1.16308e-06
3.4058e-06
-3.4694e-07
8.83425e-07
3.46957e-06
-3.43715e-07
5.76733e-07
3.57656e-06
-4.36483e-07
3.38027e-07
3.76833e-06
-4.36365e-07
1.15425e-07
4.0054e-06
-3.07881e-07
-1.08716e-07
4.22503e-06
-2.3157e-08
-3.03975e-07
4.42663e-06
2.21674e-07
-3.5015e-07
4.61955e-06
2.70473e-07
-2.28842e-07
4.77645e-06
6.91321e-08
-8.09985e-08
4.89683e-06
-3.98235e-07
-6.03165e-08
5.05009e-06
-9.75061e-07
-3.07334e-07
5.22433e-06
-1.17092e-06
-8.32365e-07
5.25963e-06
-8.17214e-07
-1.34311e-06
5.11147e-06
-2.76006e-07
-1.66379e-06
4.82483e-06
1.99748e-07
-1.91246e-06
4.45593e-06
4.7242e-07
-2.11742e-06
4.05863e-06
4.74857e-07
-2.12525e-06
3.76365e-06
2.14976e-07
-1.94951e-06
3.67822e-06
-3.9573e-08
-1.75705e-06
3.78741e-06
-9.02469e-08
-1.55889e-06
7.29829e-08
-1.29614e-06
1.3487e-05
9.59891e-07
-2.92095e-06
1.41672e-05
1.17602e-06
-2.21356e-06
1.50822e-05
9.13169e-07
-1.52733e-06
1.62212e-05
5.03369e-07
-5.64149e-07
1.74349e-05
3.12328e-07
6.2493e-07
1.84569e-05
6.21109e-07
1.98181e-06
1.88965e-05
1.41747e-06
3.43689e-06
1.85932e-05
2.35452e-06
4.75841e-06
1.77938e-05
2.8773e-06
5.61743e-06
1.6959e-05
2.6904e-06
5.75512e-06
1.63463e-05
2.09189e-06
5.26073e-06
1.59124e-05
1.45618e-06
4.53151e-06
1.55036e-05
9.16027e-07
3.97281e-06
1.49919e-05
4.36789e-07
3.74634e-06
1.42957e-05
1.13101e-08
3.77763e-06
1.34118e-05
-2.8749e-07
3.9055e-06
1.24983e-05
-5.83596e-07
3.96803e-06
1.18256e-05
-1.01898e-06
3.82742e-06
1.15317e-05
-1.39985e-06
3.38066e-06
1.15189e-05
-1.48312e-06
2.64298e-06
1.16486e-05
-1.45397e-06
1.824e-06
1.19463e-05
-1.56608e-06
1.10832e-06
1.24532e-05
-1.37928e-06
4.03767e-07
1.30758e-05
-7.63407e-07
-2.7007e-07
1.37297e-05
1.38837e-07
-7.47784e-07
1.44333e-05
7.01817e-07
-7.62654e-07
1.52062e-05
4.75802e-07
-3.82254e-07
1.59877e-05
-6.31806e-07
2.66643e-08
1.67542e-05
-2.50296e-06
-1.3394e-08
1.74968e-05
-4.36416e-06
-7.48087e-07
1.79969e-05
-4.64441e-06
-2.17444e-06
1.791e-05
-3.08584e-06
-3.59907e-06
1.72653e-05
-1.01017e-06
-4.63128e-06
1.63028e-05
6.40721e-07
-5.40416e-06
1.52095e-05
1.4153e-06
-5.83288e-06
1.40888e-05
1.2306e-06
-5.7077e-06
1.31435e-05
3.85359e-07
-5.27098e-06
1.26278e-05
-2.80556e-07
-4.87592e-06
1.26332e-05
-2.92017e-07
-4.41859e-06
2.93193e-07
-3.72351e-06
2.46431e-05
1.69964e-06
-5.27696e-06
2.59351e-05
1.94616e-06
-4.14618e-06
2.77164e-05
1.16531e-06
-3.01503e-06
2.98969e-05
6.13362e-08
-1.45926e-06
3.2237e-05
-4.95776e-07
6.15879e-07
3.43098e-05
1.1228e-07
2.98515e-06
3.5442e-05
1.75341e-06
5.58627e-06
3.52154e-05
3.76979e-06
7.98086e-06
3.38881e-05
5.08958e-06
9.6065e-06
3.22665e-05
5.02657e-06
1.00082e-05
3.09877e-05
3.98556e-06
9.27831e-06
3.01326e-05
2.71545e-06
8.05593e-06
2.9439e-05
1.60826e-06
7.02883e-06
2.86113e-05
6.74312e-07
6.47721e-06
2.74565e-05
-9.79026e-08
6.3194e-06
2.59534e-05
-6.51831e-07
6.3829e-06
2.43198e-05
-1.24826e-06
6.47828e-06
2.29378e-05
-2.12749e-06
6.36444e-06
2.20775e-05
-2.94097e-06
5.80401e-06
2.17203e-05
-3.22194e-06
4.76069e-06
2.17298e-05
-3.23567e-06
3.53183e-06
2.21121e-05
-3.35474e-06
2.37911e-06
2.28674e-05
-2.82404e-06
1.18658e-06
2.38564e-05
-1.30345e-06
-5.94411e-08
2.49967e-05
4.3983e-07
-8.20209e-07
2.63502e-05
1.22736e-06
-8.03731e-07
2.79406e-05
1.52071e-07
-2.48274e-08
2.96504e-05
-2.64806e-06
7.47024e-07
3.13981e-05
-7.0262e-06
9.89382e-07
3.3058e-05
-1.09242e-05
-3.08462e-08
3.41251e-05
-1.12339e-05
-2.29004e-06
3.40214e-05
-7.5722e-06
-4.82636e-06
3.28833e-05
-2.8506e-06
-6.88049e-06
3.12316e-05
8.0753e-07
-8.40269e-06
2.94382e-05
2.4274e-06
-9.14605e-06
2.75817e-05
1.98641e-06
-8.91749e-06
2.57599e-05
3.64671e-07
-8.26273e-06
2.43173e-05
-7.66894e-07
-7.79713e-06
2.36711e-05
-6.49089e-07
-7.33632e-06
4.96185e-07
-6.45843e-06
3.75329e-05
2.18311e-06
-8.33837e-06
3.93e-05
2.33117e-06
-7.10814e-06
4.1967e-05
6.78332e-07
-5.80737e-06
4.533e-05
-1.75258e-06
-3.90618e-06
4.90838e-05
-3.45248e-06
-9.11706e-07
5.27071e-05
-2.66756e-06
2.46714e-06
5.52347e-05
6.84784e-08
6.41272e-06
5.57727e-05
3.69682e-06
1.02599e-05
5.42652e-05
6.51224e-06
1.31528e-05
5.17442e-05
7.21791e-06
1.43444e-05
4.94604e-05
6.06957e-06
1.37733e-05
4.79291e-05
4.14766e-06
1.22268e-05
4.68921e-05
2.30855e-06
1.07217e-05
4.58403e-05
7.84002e-07
9.71564e-06
4.43883e-05
-3.88794e-07
9.13367e-06
4.24061e-05
-1.1698e-06
8.86507e-06
4.00396e-05
-1.97197e-06
8.8489e-06
3.76585e-05
-3.18036e-06
8.83675e-06
3.56956e-05
-4.39513e-06
8.39465e-06
3.44093e-05
-5.02702e-06
7.3057e-06
3.38388e-05
-5.39085e-06
5.88853e-06
3.40159e-05
-5.82589e-06
4.4791e-06
3.4864e-05
-4.99041e-06
2.89084e-06
3.6155e-05
-2.2465e-06
1.08988e-06
3.78001e-05
7.03401e-07
-1.67128e-07
3.99086e-05
1.6247e-06
-1.22848e-07
4.24824e-05
-6.95348e-07
1.01416e-06
4.52498e-05
-6.22576e-06
2.7681e-06
4.80988e-05
-1.43345e-05
3.92339e-06
5.09943e-05
-2.15255e-05
3.15365e-06
5.31995e-05
-2.23726e-05
1.86188e-07
5.36544e-05
-1.58686e-05
-3.84307e-06
5.24046e-05
-7.16235e-06
-7.51134e-06
5.02718e-05
-2.23017e-07
-1.03802e-05
4.79278e-05
3.05968e-06
-1.18957e-05
4.54536e-05
2.6364e-06
-1.17506e-05
4.26696e-05
1.84497e-07
-1.0836e-05
3.97762e-05
-1.4467e-06
-1.02816e-05
3.76181e-05
-1.17909e-06
-1.00625e-05
4.96218e-07
-9.46584e-06
5.24316e-05
2.3315e-06
-1.17972e-05
5.39512e-05
2.1815e-06
-1.11935e-05
5.7024e-05
-8.01461e-07
-1.03943e-05
6.1293e-05
-5.49578e-06
-8.77244e-06
6.64874e-05
-9.5563e-06
-5.69781e-06
7.21376e-05
-1.01697e-05
-8.6695e-07
7.70856e-05
-6.07067e-06
4.29939e-06
7.97044e-05
3.03623e-09
1.014e-05
7.90731e-05
5.49853e-06
1.51263e-05
7.6008e-05
8.18954e-06
1.79958e-05
7.24495e-05
7.81568e-06
1.8333e-05
6.9834e-05
5.57263e-06
1.68988e-05
6.82632e-05
2.93594e-06
1.51084e-05
6.70592e-05
6.58707e-07
1.37297e-05
6.55543e-05
-9.9801e-07
1.26368e-05
6.3407e-05
-1.93597e-06
1.17073e-05
6.05526e-05
-2.70694e-06
1.11887e-05
5.71199e-05
-3.88201e-06
1.11134e-05
5.35278e-05
-5.13894e-06
1.093e-05
5.04247e-05
-6.03067e-06
1.00808e-05
4.83508e-05
-7.15485e-06
8.78037e-06
4.76353e-05
-8.69445e-06
7.46217e-06
4.81908e-05
-8.0861e-06
5.77662e-06
4.95962e-05
-3.96472e-06
3.49104e-06
5.16492e-05
7.43432e-07
1.59641e-06
5.44703e-05
2.08509e-06
1.47282e-06
5.79788e-05
-1.87617e-06
3.33743e-06
6.15239e-05
-1.09718e-05
6.536e-06
6.48947e-05
-2.38697e-05
9.38646e-06
6.8816e-05
-3.60175e-05
9.81362e-06
7.30081e-05
-3.94198e-05
6.75466e-06
7.5497e-05
-3.06151e-05
1.30059e-06
7.53944e-05
-1.63115e-05
-5.07295e-06
7.35387e-05
-4.11872e-06
-1.0424e-05
7.10666e-05
2.46433e-06
-1.37111e-05
6.82906e-05
2.99938e-06
-1.41771e-05
6.47918e-05
-2.71518e-08
-1.2995e-05
6.03103e-05
-2.11521e-06
-1.21284e-05
5.58317e-05
-1.68338e-06
-1.2108e-05
3.74624e-07
-1.21785e-05
7.09531e-05
2.53322e-06
-1.45051e-05
7.08747e-05
1.83866e-06
-1.5244e-05
7.29689e-05
-2.8398e-06
-1.5857e-05
7.67209e-05
-1.0722e-05
-1.5616e-05
8.20813e-05
-1.88539e-05
-1.36217e-05
8.91558e-05
-2.29605e-05
-9.43544e-06
9.73066e-05
-2.01728e-05
-2.74818e-06
0.000104177
-1.12368e-05
5.05449e-06
0.000106821
-1.0041e-06
1.33471e-05
0.000104755
5.90882e-06
1.93676e-05
0.000100261
8.0563e-06
2.19144e-05
9.61969e-05
6.48054e-06
2.14188e-05
9.37454e-05
3.30351e-06
1.97607e-05
9.23383e-05
1.39483e-07
1.8404e-05
9.09738e-05
-2.15371e-06
1.71876e-05
8.90449e-05
-3.20934e-06
1.55742e-05
8.62561e-05
-3.65999e-06
1.4025e-05
8.22914e-05
-4.31506e-06
1.3311e-05
7.71123e-05
-4.97283e-06
1.319e-05
7.14556e-05
-5.50489e-06
1.27202e-05
6.65278e-05
-7.29581e-06
1.17703e-05
6.35063e-05
-1.08544e-05
1.0906e-05
6.27927e-05
-1.17238e-05
9.61261e-06
6.37913e-05
-6.58982e-06
7.14344e-06
6.59218e-05
4.51264e-07
4.66679e-06
6.91872e-05
2.77626e-06
4.4075e-06
7.34377e-05
-2.89262e-06
7.04888e-06
7.74618e-05
-1.58387e-05
1.16817e-05
8.02204e-05
-3.35573e-05
1.61939e-05
8.31929e-05
-5.14708e-05
1.84683e-05
8.86886e-05
-6.01741e-05
1.70262e-05
9.51852e-05
-5.28772e-05
1.13611e-05
9.92172e-05
-3.38698e-05
2.74367e-06
9.98198e-05
-1.38199e-05
-6.81792e-06
9.83748e-05
-1.09792e-06
-1.36457e-05
9.59265e-05
2.41881e-06
-1.5944e-05
9.22865e-05
-2.57513e-07
-1.48547e-05
8.67305e-05
-2.49656e-06
-1.3428e-05
7.98849e-05
-1.7646e-06
-1.31933e-05
5.83291e-07
-1.3781e-05
9.57263e-05
3.20269e-06
-1.53949e-05
9.35404e-05
1.84869e-06
-1.74001e-05
9.35406e-05
-4.31453e-06
-1.95695e-05
9.45137e-05
-1.51697e-05
-2.14142e-05
9.68625e-05
-2.79418e-05
-2.20327e-05
0.000101698
-3.73886e-05
-2.0336e-05
0.000110153
-3.91662e-05
-1.55765e-05
0.00012176
-3.19541e-05
-7.18346e-06
0.000131737
-1.83817e-05
4.16168e-06
0.000134957
-3.93868e-06
1.53731e-05
0.000131724
4.19309e-06
2.24862e-05
0.000126575
5.50403e-06
2.45401e-05
0.000122993
2.81662e-06
2.36378e-05
0.000121279
-1.06804e-06
2.27045e-05
0.00012011
-4.15638e-06
2.22523e-05
0.0001186
-5.37226e-06
2.08286e-05
0.000116477
-5.25468e-06
1.82116e-05
0.000113084
-4.95783e-06
1.60337e-05
0.000107464
-4.40874e-06
1.52539e-05
9.96604e-05
-3.69632e-06
1.49753e-05
9.10129e-05
-5.13549e-06
1.44265e-05
8.37272e-05
-1.06502e-05
1.41539e-05
7.97154e-05
-1.43786e-05
1.36555e-05
7.90274e-05
-9.50309e-06
1.14855e-05
8.05647e-05
-3.75371e-08
8.63802e-06
8.38532e-05
4.03444e-06
8.23675e-06
8.87653e-05
-2.9043e-06
1.141e-05
9.40386e-05
-1.9506e-05
1.65306e-05
9.72753e-05
-4.07244e-05
2.08421e-05
9.79022e-05
-6.17814e-05
2.35858e-05
0.000100098
-7.64627e-05
2.53668e-05
0.000107658
-7.62003e-05
2.38157e-05
0.000117811
-5.84583e-05
1.60035e-05
0.000125011
-3.27773e-05
3.01477e-06
0.0001276
-1.06593e-05
-9.75719e-06
0.000126878
-6.6774e-07
-1.6105e-05
0.000123873
-8.85689e-07
-1.63111e-05
0.000118202
-2.43208e-06
-1.44578e-05
0.000109982
-1.11177e-06
-1.3518e-05
1.5051e-06
-1.39705e-05
0.000126877
4.45078e-06
-1.42861e-05
0.000123918
2.49418e-06
-1.68776e-05
0.000123188
-4.27805e-06
-1.98462e-05
0.000121136
-1.6026e-05
-2.31147e-05
0.000117731
-3.1533e-05
-2.68618e-05
0.000116153
-4.61937e-05
-2.95955e-05
0.00011936
-5.4488e-05
-2.86973e-05
0.000129439
-5.33552e-05
-2.3107e-05
0.000145058
-4.27824e-05
-1.22971e-05
0.000158255
-2.51719e-05
2.83025e-06
0.000161859
-8.40474e-06
1.68952e-05
0.000158197
-3.53425e-07
2.43862e-05
0.00015409
-2.21491e-07
2.55112e-05
0.000152448
-3.8488e-06
2.49027e-05
0.000151808
-7.48868e-06
2.56644e-05
0.000150608
-8.75294e-06
2.60947e-05
0.000149177
-7.86027e-06
2.38316e-05
0.000147442
-6.37894e-06
2.00249e-05
0.000143529
-4.42259e-06
1.7538e-05
0.000135854
-2.01647e-06
1.68226e-05
0.000124652
-1.85209e-06
1.65583e-05
0.000112133
-7.65961e-06
1.68274e-05
0.000102136
-1.41057e-05
1.72223e-05
9.72797e-05
-1.10824e-05
1.57881e-05
9.69577e-05
-2.14622e-07
1.28186e-05
9.97425e-05
6.1493e-06
1.20824e-05
0.000105065
-9.13825e-07
1.52728e-05
0.000112143
-2.02721e-05
1.99044e-05
0.000118611
-4.40665e-05
2.22165e-05
0.000120608
-6.48537e-05
2.27961e-05
0.000118243
-8.00057e-05
2.61479e-05
0.000119269
-8.72203e-05
3.16363e-05
0.000129243
-7.97657e-05
3.06038e-05
0.000143374
-5.66798e-05
1.83083e-05
0.000153889
-2.79998e-05
2.28327e-07
0.000157766
-8.35369e-06
-1.27837e-05
0.000156512
-2.5938e-06
-1.66103e-05
0.000151657
-1.86441e-06
-1.52782e-05
0.000143632
2.49352e-07
-1.3383e-05
3.1683e-06
-1.29579e-05
0.000158836
5.03644e-06
-1.08953e-05
0.000157668
3.25192e-06
-1.31452e-05
0.000159403
-2.91665e-06
-1.61347e-05
0.000157961
-1.28666e-05
-1.97583e-05
0.000150079
-2.70884e-05
-2.56201e-05
0.00014017
-4.42128e-05
-3.37016e-05
0.000134912
-5.89882e-05
-3.93759e-05
0.000137968
-6.56281e-05
-3.83901e-05
0.000150956
-6.25965e-05
-3.04399e-05
0.000170112
-4.96795e-05
-1.54127e-05
0.000183857
-3.04406e-05
4.11387e-06
0.000185711
-1.34438e-05
1.94159e-05
0.000182239
-7.45791e-06
2.47252e-05
0.000181547
-9.76335e-06
2.40174e-05
0.000183263
-1.36433e-05
2.47268e-05
0.000183132
-1.39205e-05
2.759e-05
0.000181404
-1.10823e-05
2.80094e-05
0.00018098
-8.22235e-06
2.42728e-05
0.000180871
-5.60183e-06
1.98605e-05
0.000177215
-2.25196e-06
1.79411e-05
0.000167516
-3.25578e-07
1.78391e-05
0.000151913
-4.26686e-06
1.87237e-05
0.000134612
-1.05898e-05
1.99174e-05
0.000122219
-9.23836e-06
1.9543e-05
0.000117422
1.1453e-06
1.70113e-05
0.000118697
8.78987e-06
1.59102e-05
0.000124172
2.1812e-06
1.83273e-05
0.000132442
-1.84567e-05
2.14426e-05
0.000141814
-4.36769e-05
2.10623e-05
0.000148387
-6.31505e-05
1.84587e-05
0.000147381
-7.39668e-05
2.08803e-05
0.000141627
-8.14032e-05
3.13846e-05
0.000142966
-8.50858e-05
4.00086e-05
0.000156678
-7.5397e-05
3.39685e-05
0.000174406
-4.98804e-05
1.48896e-05
0.00018463
-2.09399e-05
-4.48709e-06
0.000184011
-4.01406e-06
-1.4365e-05
0.000177824
1.56155e-06
-1.54987e-05
0.000171039
2.5197e-06
-1.2849e-05
3.86433e-06
-1.06686e-05
0.000176848
4.52126e-06
-4.92875e-06
0.000180903
1.77049e-06
-4.61726e-06
0.00018971
-3.91983e-06
-6.11544e-06
0.000195862
-1.02007e-05
-9.83734e-06
0.000190512
-1.79045e-05
-1.73369e-05
0.000175332
-3.19227e-05
-2.97889e-05
0.000161187
-5.09494e-05
-4.38184e-05
0.000155703
-6.52337e-05
-5.13683e-05
0.000160823
-6.99083e-05
-4.83102e-05
0.000177112
-6.62925e-05
-3.55277e-05
0.000198112
-5.38852e-05
-1.43499e-05
0.000209921
-3.44381e-05
8.57404e-06
0.000208747
-1.88681e-05
2.14043e-05
0.000205948
-1.71771e-05
2.21642e-05
0.000209728
-2.3308e-05
2.05071e-05
0.000214037
-2.34563e-05
2.317e-05
0.000212125
-1.48415e-05
2.64152e-05
0.000208599
-6.81144e-06
2.48248e-05
0.000209907
-4.59322e-06
1.98039e-05
0.000213864
-4.8156e-06
1.66478e-05
0.000213039
-4.68204e-06
1.69829e-05
0.000201372
-5.87945e-06
1.90292e-05
0.000179941
-6.99588e-06
2.11379e-05
0.000158211
-3.04295e-06
2.19263e-05
0.000145338
6.2976e-06
2.07986e-05
0.000142913
1.18524e-05
2.01246e-05
0.0001481
3.20632e-06
2.1411e-05
0.000157563
-1.91333e-05
2.17564e-05
0.000168872
-4.4449e-05
1.71551e-05
0.000178779
-6.05878e-05
9.6998e-06
0.000181886
-6.48912e-05
1.01809e-05
0.000175271
-6.60652e-05
2.3902e-05
0.000167426
-7.30489e-05
4.09177e-05
0.000172505
-7.94821e-05
4.37423e-05
0.000190191
-6.81381e-05
2.77575e-05
0.000204145
-3.71945e-05
5.72823e-06
0.000202833
-5.46066e-06
-1.02223e-05
0.000191447
1.00353e-05
-1.51947e-05
0.000181772
1.00262e-05
-1.24624e-05
6.1607e-06
-7.6518e-06
0.000188362
8.08133e-06
-1.99307e-07
0.000191562
3.35148e-06
5.48307e-06
0.000203412
-5.4031e-06
9.57418e-06
0.000220344
-1.21603e-05
8.34332e-06
0.000227588
-1.29705e-05
-5.75339e-07
0.000216552
-1.57768e-05
-1.76704e-05
0.000196688
-3.25928e-05
-3.84331e-05
0.000182773
-5.35622e-05
-5.66281e-05
0.000180354
-6.5481e-05
-6.34783e-05
0.000188683
-6.92151e-05
-5.61861e-05
0.000207362
-6.81796e-05
-3.69488e-05
0.000229105
-5.83852e-05
-1.01828e-05
0.000239679
-3.96575e-05
1.22074e-05
0.000236255
-2.65037e-05
2.01026e-05
0.000232957
-2.92607e-05
1.78646e-05
0.000237924
-3.38957e-05
1.66519e-05
0.000242285
-2.41283e-05
1.96392e-05
0.000238934
-6.7045e-06
2.13251e-05
0.000234198
2.34063e-06
1.83526e-05
0.000236861
-1.99264e-06
1.44083e-05
0.000245991
-1.33089e-05
1.42978e-05
0.00024876
-1.95757e-05
1.75102e-05
0.000234047
-1.20808e-05
2.03911e-05
0.000207519
3.45148e-06
2.17506e-05
0.000185169
1.63335e-05
2.26381e-05
0.000176041
1.74877e-05
2.45086e-05
0.000178393
3.23545e-06
2.60965e-05
0.000187329
-2.31624e-05
2.36055e-05
0.000199879
-5.01489e-05
1.354e-05
0.000212755
-6.32767e-05
-8.89903e-07
0.000219577
-5.90832e-05
-6.27988e-06
0.000214699
-5.03815e-05
9.04406e-06
0.000201521
-5.16978e-05
3.41836e-05
0.000195408
-6.76967e-05
4.73451e-05
0.000205289
-7.46117e-05
3.67869e-05
0.000218554
-5.10949e-05
1.42954e-05
0.000219123
-9.36868e-06
-5.24334e-06
0.000207682
1.73314e-05
-1.45476e-05
0.000195933
2.011e-05
-1.37516e-05
1.26637e-05
-6.98617e-06
0.000211501
1.63758e-05
-4.43657e-06
0.000208126
1.07303e-05
3.96706e-06
0.000214166
-3.36696e-06
1.47954e-05
0.000233133
-1.5846e-05
2.23428e-05
0.000253492
-1.40133e-05
1.75325e-05
0.000256359
-5.19936e-06
1.92748e-07
0.0002398
-1.04766e-05
-2.57048e-05
0.000218864
-3.21893e-05
-5.12332e-05
0.000208366
-5.1215e-05
-6.98188e-05
0.000210734
-6.16194e-05
-7.35792e-05
0.000222731
-6.90415e-05
-6.06862e-05
0.000243115
-7.35009e-05
-3.44831e-05
0.000264301
-6.55167e-05
-5.13396e-06
0.000271806
-4.61349e-05
1.33005e-05
0.000265203
-3.38996e-05
1.56556e-05
0.000260225
-3.47134e-05
1.18018e-05
0.000264668
-3.12458e-05
1.21865e-05
0.000270209
-1.5268e-05
1.65761e-05
0.000268795
2.33797e-06
1.82617e-05
0.000264111
6.2191e-06
1.54038e-05
0.000267321
-1.18484e-05
1.32571e-05
0.000279155
-3.56148e-05
1.55168e-05
0.000281923
-3.21477e-05
1.83988e-05
0.000264286
-2.06018e-06
1.91795e-05
0.000238959
2.36779e-05
2.15182e-05
0.000222588
2.53424e-05
2.78503e-05
0.000217744
8.17191e-06
3.19674e-05
0.000220169
-2.01292e-05
2.667e-05
0.000229396
-5.12536e-05
1.11756e-05
0.000244988
-7.06763e-05
-7.52528e-06
0.000257656
-6.42605e-05
-1.93284e-05
0.000256868
-4.19126e-05
-1.02378e-05
0.000242251
-3.18335e-05
2.09665e-05
0.000227019
-4.56865e-05
4.56017e-05
0.000224977
-6.56095e-05
4.43652e-05
0.000232784
-5.56319e-05
2.37285e-05
0.000236482
-1.53883e-05
2.29085e-06
0.000232086
1.8206e-05
-1.25373e-05
0.000224564
2.63153e-05
-1.71196e-05
2.0944e-05
-1.25719e-05
0.000249138
2.61944e-05
-1.43272e-05
0.000240113
2.16983e-05
-9.04551e-06
0.00023832
3.8039e-06
4.11728e-07
0.000251011
-1.64943e-05
1.51477e-05
0.00027501
-1.86002e-05
2.19201e-05
0.0002915
-2.45789e-06
1.12259e-05
0.000286234
6.2359e-06
-1.27216e-05
0.00026491
-8.27629e-06
-3.985e-05
0.000245765
-2.94136e-05
-6.5542e-05
0.000241376
-4.5882e-05
-8.20643e-05
0.000249814
-6.05216e-05
-8.05788e-05
0.000265321
-7.62188e-05
-5.96554e-05
0.000285119
-8.32556e-05
-2.75578e-05
0.000299924
-6.91742e-05
-1.33415e-08
0.000300087
-4.50698e-05
1.02561e-05
0.000291457
-3.17922e-05
7.68458e-06
0.000288238
-2.8456e-05
6.2588e-06
0.000294735
-2.15612e-05
1.21152e-05
0.00030287
-7.34812e-06
1.90241e-05
0.000303814
5.0292e-06
1.97836e-05
0.000299722
-3.3291e-06
1.5936e-05
0.000301777
-3.32302e-05
1.35647e-05
0.000310731
-4.70399e-05
1.4198e-05
0.000311675
-2.25231e-05
1.52057e-05
0.00029821
1.24503e-05
1.97821e-05
0.000280455
2.43256e-05
3.05182e-05
0.000266904
1.60771e-05
3.73658e-05
0.000258482
-3.49883e-06
2.86565e-05
0.000258024
-3.3539e-05
7.49492e-06
0.000270987
-6.64231e-05
-1.28419e-05
0.00029041
-7.41838e-05
-2.63659e-05
0.00029802
-4.86894e-05
-2.27135e-05
0.000286615
-2.37127e-05
6.10015e-06
0.000266675
-2.42633e-05
3.96434e-05
0.000253611
-4.47664e-05
5.03324e-05
0.000252483
-4.66786e-05
3.51083e-05
0.000256177
-1.6551e-05
1.13998e-05
0.000259476
1.50986e-05
-8.76862e-06
0.000260476
2.56561e-05
-1.96855e-05
2.55213e-05
-1.96414e-05
0.000298645
2.88566e-05
-2.33361e-05
0.000289918
2.92078e-05
-2.31196e-05
0.000282196
1.27399e-05
-1.94249e-05
0.000284521
-1.03621e-05
-6.55597e-06
0.000302749
-1.99115e-05
7.68318e-06
0.000326498
-6.47674e-06
8.07773e-06
0.000334151
1.09938e-05
-6.91099e-06
0.000318298
1.00084e-05
-2.99453e-05
0.000293666
-5.33345e-06
-5.65518e-05
0.000280721
-2.36558e-05
-8.11235e-05
0.000285133
-4.4516e-05
-9.1957e-05
0.000298831
-6.90514e-05
-8.12453e-05
0.000314977
-8.87537e-05
-5.21267e-05
0.000328816
-8.49596e-05
-1.91172e-05
0.000333036
-5.77087e-05
7.18079e-07
0.000327214
-3.16333e-05
3.12844e-06
0.00032071
-2.09094e-05
7.79362e-07
0.000321897
-1.82856e-05
6.39953e-06
0.000331125
-1.33748e-05
1.85323e-05
0.000341459
-4.24811e-06
2.65876e-05
0.000344164
-2.97773e-06
2.40113e-05
0.000338912
-2.08962e-05
1.51186e-05
0.000335688
-4.0884e-05
1.01703e-05
0.000336994
-3.62174e-05
1.3231e-05
0.000333352
-1.11524e-05
2.32364e-05
0.000321299
9.52241e-06
3.58667e-05
0.000308413
1.66639e-05
3.92034e-05
0.000299524
1.09484e-05
2.50327e-05
0.000295232
-1.04743e-05
7.95597e-07
0.000301924
-4.77302e-05
-1.9349e-05
0.000321473
-7.3397e-05
-3.02485e-05
0.000336694
-6.02715e-05
-2.72812e-05
0.000331979
-2.77971e-05
-5.17338e-06
0.000311803
-1.41563e-05
3.14497e-05
0.000291976
-2.30313e-05
5.32068e-05
0.000282344
-2.66261e-05
4.6485e-05
0.000282621
-7.42823e-06
2.35524e-05
0.000289113
1.50093e-05
-1.62623e-06
0.000297676
2.23017e-05
-1.87624e-05
2.33578e-05
-2.43023e-05
0.000344396
2.23667e-05
-2.84077e-05
0.000344519
2.414e-05
-3.26875e-05
0.000337387
1.53207e-05
-3.12841e-05
0.000329946
-1.71112e-06
-2.04853e-05
0.000335798
-1.27612e-05
-7.53273e-06
0.000357932
-7.5295e-06
-2.71291e-06
0.00037733
8.27419e-06
-9.09364e-06
0.000373743
1.84209e-05
-2.38848e-05
0.000350674
1.497e-05
-4.65439e-05
0.000330976
2.46091e-06
-7.44014e-05
0.000329222
-1.98521e-05
-9.54922e-05
0.000341065
-5.18184e-05
-9.67347e-05
0.000355765
-8.30712e-05
-7.57798e-05
0.000367189
-9.10751e-05
-4.21704e-05
0.000371283
-6.73665e-05
-1.39589e-05
0.000367107
-3.37672e-05
-3.48194e-06
0.00036021
-1.37956e-05
-3.97412e-06
0.0003578
-9.22918e-06
7.1287e-07
0.000363608
-1.0651e-05
1.59684e-05
0.000376035
-1.02972e-05
3.09537e-05
0.000385877
-9.2177e-06
3.25874e-05
0.000382682
-1.48848e-05
2.13214e-05
0.000368166
-2.5983e-05
1.18798e-05
0.000353475
-2.98182e-05
1.38766e-05
0.0003441
-2.03534e-05
2.30236e-05
0.000339967
-6.0306e-06
2.95701e-05
0.00034077
6.18114e-06
2.57096e-05
0.000342511
1.32535e-05
9.86365e-06
0.00034106
5.14384e-06
-9.78165e-06
0.000343175
-2.68767e-05
-2.56801e-05
0.000358144
-6.37039e-05
-3.20704e-05
0.000376245
-6.83718e-05
-2.68943e-05
0.000377101
-3.93672e-05
-7.27264e-06
0.000357938
-1.54844e-05
2.59345e-05
0.000335585
-1.08426e-05
5.10737e-05
0.000322617
-8.13368e-06
5.16263e-05
0.000320435
7.25249e-06
3.30309e-05
0.000324348
2.4292e-05
9.1336e-06
0.000331013
2.70444e-05
-1.04966e-05
2.19652e-05
-2.21701e-05
0.000368328
1.13317e-05
-2.03145e-05
0.000378952
7.70005e-06
-2.78024e-05
0.000380747
4.56388e-06
-2.52452e-05
0.000372316
-4.56738e-07
-1.56594e-05
0.00036753
-3.35613e-06
-6.94966e-06
0.000381037
2.92953e-07
-4.72204e-06
0.000406264
9.64482e-06
-9.23365e-06
0.000418649
2.21023e-05
-1.98232e-05
0.000407003
2.98685e-05
-3.8145e-05
0.000388664
2.7189e-05
-6.45247e-05
0.000383714
9.53725e-06
-9.12365e-05
0.000393174
-2.5205e-05
-0.000103853
0.000406242
-6.63004e-05
-9.45262e-05
0.000415324
-8.70648e-05
-6.69024e-05
0.000417608
-7.1504e-05
-3.48909e-05
0.000413103
-3.64146e-05
-1.44907e-05
0.00040631
-9.27211e-06
-7.78697e-06
0.000402835
1.95766e-07
-3.23115e-06
0.000405259
-1.70686e-06
9.65901e-06
0.000413052
-6.64248e-06
2.63982e-05
0.00042129
-1.18472e-05
3.50239e-05
0.000420837
-1.55594e-05
2.86006e-05
0.000406678
-1.55668e-05
1.55531e-05
0.000385831
-1.24189e-05
8.287e-06
0.000371996
-1.08165e-05
9.03939e-06
0.000372634
-1.30389e-05
1.17648e-05
0.000382751
-1.11934e-05
9.77829e-06
0.000389639
1.0348e-06
4.12733e-07
0.000387515
9.58511e-06
-1.1157e-05
0.000385355
-7.99021e-06
-1.97298e-05
0.000394803
-4.73944e-05
-2.29873e-05
0.000412701
-6.91783e-05
-1.89413e-05
0.000419954
-5.26853e-05
-2.95368e-06
0.000406947
-2.64117e-05
2.55341e-05
0.000385864
-1.03479e-05
4.95951e-05
0.000370182
4.0029e-06
5.13213e-05
0.000362499
2.40564e-05
3.60519e-05
0.000358336
3.9515e-05
2.00797e-05
0.000355894
3.71919e-05
6.93996e-06
2.24593e-05
-6.79881e-06
0.000391386
5.33733e-06
-1.56286e-06
0.000406131
-5.92001e-06
-1.24613e-05
0.000415559
-8.98971e-06
-1.50829e-05
0.000412616
-5.84025e-06
-7.64326e-06
0.000404499
3.62802e-06
2.90485e-06
0.000406961
1.54121e-05
6.56692e-06
0.000427039
2.32545e-05
-4.84133e-07
0.000451101
2.90757e-05
-1.3749e-05
0.000460636
3.71227e-05
-2.85328e-05
0.000456217
4.33236e-05
-4.85408e-05
0.000454813
3.68301e-05
-7.57088e-05
0.00046304
7.50433e-06
-9.93775e-05
0.000472881
-3.80672e-05
-0.000104637
0.000476985
-6.94219e-05
-8.7986e-05
0.000474448
-6.38609e-05
-5.84847e-05
0.000466403
-3.29687e-05
-3.12189e-05
0.000457524
-6.06767e-06
-1.43754e-05
0.000453119
4.81925e-06
-4.95285e-06
0.000453531
5.53515e-06
5.68092e-06
0.000455382
1.71968e-06
2.10109e-05
0.000455639
-6.20831e-06
3.26856e-05
0.00045143
-1.18946e-05
3.04361e-05
0.000441227
-8.25409e-06
1.64951e-05
0.000429001
4.91022e-07
2.30274e-06
0.000423074
2.3853e-08
-3.86092e-06
0.000427657
-1.52414e-05
-3.23434e-07
0.000436218
-2.7651e-05
6.17911e-06
0.000437584
-1.71464e-05
6.19057e-06
0.000430396
5.1815e-06
-4.21572e-07
0.000425049
5.66445e-06
-5.74399e-06
0.000430785
-2.56832e-05
-8.45518e-06
0.000447289
-5.88463e-05
-6.86961e-06
0.00046177
-6.09038e-05
4.63474e-06
0.000460459
-3.87774e-05
2.61392e-05
0.000444373
-1.37115e-05
4.70178e-05
0.00042371
1.15557e-05
5.09293e-05
0.00040554
3.75535e-05
3.87746e-05
0.000391224
5.47208e-05
2.47585e-05
0.000382159
5.01436e-05
1.6389e-05
2.75862e-05
9.30219e-06
0.00043126
1.64103e-05
2.10821e-05
0.000444119
1.30909e-06
1.06642e-05
0.000452344
-5.00173e-06
3.87685e-06
0.000451463
-9.8386e-07
3.38201e-06
0.00044486
1.30924e-05
9.15146e-06
0.000443122
3.2027e-05
1.49464e-05
0.000454075
4.4291e-05
1.40015e-05
0.000474553
4.4603e-05
5.48981e-06
0.000495692
4.07301e-05
-8.85565e-06
0.000513028
4.04323e-05
-2.49245e-05
0.000529791
4.06347e-05
-4.7795e-05
0.000545835
2.59685e-05
-7.58416e-05
0.000554659
-8.62482e-06
-9.70526e-05
0.000552637
-4.09494e-05
-9.70037e-05
0.000542709
-4.52783e-05
-7.48662e-05
0.000529279
-2.46429e-05
-4.52315e-05
0.000516395
-3.36429e-06
-2.25896e-05
0.000506879
7.61591e-06
-9.08426e-06
0.000501372
1.12241e-05
2.23094e-06
0.000497883
1.00635e-05
1.61755e-05
0.000492404
3.96963e-06
2.81894e-05
0.000483708
-5.72851e-07
2.78322e-05
0.000476609
2.95466e-06
1.2338e-05
0.000478256
1.01267e-05
-6.51558e-06
0.00048937
5.54516e-06
-1.32111e-05
0.000500745
-1.82552e-05
-3.56973e-06
0.000500692
-3.97526e-05
1.06957e-05
0.000487957
-3.33641e-05
1.73007e-05
0.000474221
-5.20278e-06
1.96496e-05
0.000470115
1.04155e-05
2.21312e-05
0.000478038
-4.19064e-06
1.76476e-05
0.000494269
-3.64446e-05
6.97374e-06
0.000511055
-5.46461e-05
6.90969e-06
0.000516295
-4.29379e-05
2.42296e-05
0.000504268
-1.36999e-05
4.38975e-05
0.000479719
1.88026e-05
4.59332e-05
0.000451897
4.67796e-05
3.27298e-05
0.000429824
6.26583e-05
2.32361e-05
0.000419486
5.8748e-05
2.47656e-05
3.89039e-05
2.7132e-05
0.000475444
3.82433e-05
3.90892e-05
0.000490747
2.4563e-05
2.79879e-05
0.000504479
1.68867e-05
1.32179e-05
0.000510279
1.56516e-05
6.818e-06
0.000506932
2.28149e-05
1.33243e-05
0.000502142
3.82522e-05
2.62014e-05
0.000504522
5.50781e-05
3.25084e-05
0.000515139
6.17657e-05
2.4529e-05
0.000530436
5.29608e-05
9.27777e-06
0.000550835
3.50161e-05
-2.31656e-06
0.000578358
1.95519e-05
-1.2655e-05
0.000607885
9.78407e-06
-3.5735e-05
0.000625155
-2.09546e-06
-6.82145e-05
0.000623648
-1.65498e-05
-8.87601e-05
0.000612835
-2.22491e-05
-8.5461e-05
0.000602472
-1.38459e-05
-6.53817e-05
0.000593356
-1.88435e-06
-4.06733e-05
0.000582285
6.64306e-06
-1.87979e-05
0.000568261
1.42162e-05
-4.02401e-06
0.000553882
1.78918e-05
5.81111e-06
0.000540612
1.48505e-05
1.60229e-05
0.000530816
8.51279e-06
2.48023e-05
0.000529559
4.19258e-06
2.40058e-05
0.000542411
4.09454e-07
1.22593e-05
0.000566834
-1.17786e-05
-1.09737e-07
0.000585911
-3.53009e-05
1.14803e-06
0.000582567
-5.46337e-05
1.83418e-05
0.000559515
-4.82171e-05
3.9356e-05
0.000537459
-1.51762e-05
5.42116e-05
0.00053041
1.83626e-05
5.77341e-05
0.00053637
2.57815e-05
4.29668e-05
0.000548977
1.81256e-06
1.6625e-05
0.000562846
-3.07835e-05
1.22691e-06
0.000568135
-3.83034e-05
9.19594e-06
0.000554751
-1.31691e-05
2.87303e-05
0.000525372
2.35172e-05
3.78546e-05
0.000492154
5.47031e-05
2.98129e-05
0.000468893
7.12577e-05
2.20289e-05
0.000460727
7.08388e-05
2.71056e-05
5.65412e-05
3.7555e-05
0.00053652
6.42674e-05
1.41676e-05
0.000550221
4.48978e-05
1.40581e-05
0.000562589
3.25995e-05
1.4811e-05
0.000568172
2.69188e-05
1.71048e-05
0.000565673
2.81053e-05
2.19312e-05
0.000560173
3.59699e-05
2.96318e-05
0.000559803
4.63199e-05
3.77024e-05
0.000568392
4.9935e-05
4.02124e-05
0.000582496
4.10281e-05
3.22264e-05
0.000598693
2.14649e-05
1.62174e-05
0.000618475
1.44578e-06
-2.275e-06
0.000644469
-9.93373e-06
-2.37014e-05
0.000672753
-1.64321e-05
-4.72305e-05
0.000690303
-1.74846e-05
-6.72375e-05
0.000690825
-1.10704e-05
-7.69967e-05
0.000680989
1.13574e-06
-7.50918e-05
0.000670272
1.14181e-05
-6.35087e-05
0.000661489
1.61651e-05
-4.4656e-05
0.000652089
1.75497e-05
-2.54943e-05
0.000638712
1.66329e-05
-1.36203e-05
0.000621658
1.46087e-05
-5.79623e-06
0.000607084
1.20993e-05
4.80867e-06
0.000603389
5.97238e-06
1.86503e-05
0.000613719
-9.41956e-06
2.68021e-05
0.000631879
-3.32391e-05
2.45811e-05
0.000645133
-5.59735e-05
1.93921e-05
0.000642824
-6.49839e-05
2.61194e-05
0.000625435
-5.03906e-05
4.64541e-05
0.000605289
-1.34521e-05
6.43444e-05
0.000591634
2.7559e-05
6.1637e-05
0.000586277
4.43681e-05
3.58052e-05
0.000590001
2.38932e-05
2.21983e-06
0.00060111
-1.69984e-05
-1.54928e-05
0.000610165
-4.12714e-05
-7.37453e-06
0.00060344
-2.66399e-05
1.54378e-05
0.000577888
1.45811e-05
3.2233e-05
0.000547564
5.61472e-05
3.39207e-05
0.000527752
8.46406e-05
2.70791e-05
0.000522187
9.48052e-05