/*--------------------------------*- C++ -*----------------------------------*\
| =========                 |                                                 |
| \\      /  F ield         | OpenFOAM: The Open Source CFD Toolbox           |
|  \\    /   O peration     | Version:  2306                                  |
|   \\  /    A nd           | Website:  www.openfoam.com                      |
|    \\/     M anipulation  |                                                 |
\*---------------------------------------------------------------------------*/
FoamFile
{
    version     2.0;
    format      ascii;
    arch        "LSB;label=32;scalar=64";
    class       surfaceScalarField;
    location    "9.5";
    object      phi_0;
}
// * * * * * * * * * * * * * * * * * * * * * * * * * * * * * * * * * * * * * //

dimensions      [0 3 -1 0 0 0 0];

oriented        oriented;

internalField   nonuniform List<scalar> 
175300
(
4.14388e-06
3.09273e-07
-9.84205e-07
4.31605e-06
4.01705e-07
-7.47978e-07
4.55457e-06
3.82075e-07
-5.43589e-07
4.88048e-06
2.73506e-07
-2.31434e-07
5.23981e-06
2.20726e-07
1.71613e-07
5.54193e-06
3.17077e-07
6.01337e-07
5.64758e-06
5.51538e-07
1.07586e-06
5.52273e-06
8.06374e-07
1.51657e-06
5.26549e-06
9.2103e-07
1.81305e-06
5.02447e-06
8.21207e-07
1.87615e-06
4.85201e-06
6.36655e-07
1.72201e-06
4.71601e-06
4.57184e-07
1.48613e-06
4.57314e-06
3.02694e-07
1.31352e-06
4.40173e-06
1.52565e-07
1.26604e-06
4.18536e-06
7.84472e-09
1.3092e-06
3.90621e-06
-7.79223e-08
1.36847e-06
3.61045e-06
-1.45821e-07
1.38371e-06
3.41267e-06
-2.54961e-07
1.31987e-06
3.36733e-06
-3.4339e-07
1.14248e-06
3.41369e-06
-3.51863e-07
8.59226e-07
3.48152e-06
-3.58464e-07
5.5853e-07
3.59579e-06
-4.47168e-07
3.25855e-07
3.7919e-06
-4.2833e-07
9.76809e-08
4.02576e-06
-2.78738e-07
-1.25568e-07
4.24414e-06
9.29119e-09
-3.17571e-07
4.4447e-06
2.42074e-07
-3.49328e-07
4.63533e-06
2.67224e-07
-2.23938e-07
4.78751e-06
4.35924e-08
-8.33247e-08
4.91163e-06
-4.5129e-07
-8.50859e-08
5.07204e-06
-1.00865e-06
-3.62195e-07
5.24362e-06
-1.15541e-06
-8.96673e-07
5.26109e-06
-7.60236e-07
-1.38881e-06
5.09546e-06
-2.19197e-07
-1.69326e-06
4.7969e-06
2.38022e-07
-1.94111e-06
4.41965e-06
4.85986e-07
-2.13171e-06
4.0253e-06
4.55566e-07
-2.11351e-06
3.74865e-06
1.78597e-07
-1.92775e-06
3.6845e-06
-5.92106e-08
-1.74064e-06
3.80538e-06
-8.54784e-08
-1.54239e-06
9.24752e-08
-1.27616e-06
1.35528e-05
1.0037e-06
-2.85689e-06
1.42578e-05
1.17957e-06
-2.14552e-06
1.52044e-05
9.25898e-07
-1.44032e-06
1.63638e-05
4.79511e-07
-4.37126e-07
1.75811e-05
3.56618e-07
7.43074e-07
1.85712e-05
7.19925e-07
2.11221e-06
1.89454e-05
1.54951e-06
3.56734e-06
1.85803e-05
2.44229e-06
4.86858e-06
1.77565e-05
2.87475e-06
5.68141e-06
1.69365e-05
2.60102e-06
5.7632e-06
1.63458e-05
1.98066e-06
5.22809e-06
1.59238e-05
1.35796e-06
4.48765e-06
1.5512e-05
8.42716e-07
3.93896e-06
1.49835e-05
3.80433e-07
3.72889e-06
1.42609e-05
-2.70843e-08
3.77174e-06
1.33535e-05
-3.10485e-07
3.90197e-06
1.24409e-05
-6.16112e-07
3.95742e-06
1.17946e-05
-1.06282e-06
3.8005e-06
1.15307e-05
-1.43025e-06
3.33304e-06
1.15358e-05
-1.50369e-06
2.58472e-06
1.16804e-05
-1.48926e-06
1.7751e-06
1.19952e-05
-1.58097e-06
1.06576e-06
1.25127e-05
-1.33011e-06
3.50701e-07
1.3135e-05
-6.68049e-07
-3.14544e-07
1.37928e-05
2.28604e-07
-7.73639e-07
1.4502e-05
7.3377e-07
-7.55901e-07
1.52773e-05
4.24631e-07
-3.71723e-07
1.6058e-05
-7.66896e-07
-1.49812e-09
1.68332e-05
-2.69024e-06
-8.96531e-08
1.75743e-05
-4.4443e-06
-9.05948e-07
1.80391e-05
-4.54469e-06
-2.35377e-06
1.78948e-05
-2.86523e-06
-3.73813e-06
1.72048e-05
-8.06309e-07
-4.72919e-06
1.62171e-05
7.61256e-07
-5.47415e-06
1.51099e-05
1.43565e-06
-5.84623e-06
1.39948e-05
1.15217e-06
-5.66696e-06
1.30832e-05
2.7772e-07
-5.22642e-06
1.26169e-05
-3.2897e-07
-4.84744e-06
1.26625e-05
-2.69327e-07
-4.38072e-06
3.5353e-07
-3.66656e-06
2.476e-05
1.76839e-06
-5.17657e-06
2.6108e-05
1.93237e-06
-4.03372e-06
2.79458e-05
1.12379e-06
-2.87272e-06
3.01649e-05
7.20094e-09
-1.25975e-06
3.25143e-05
-4.07983e-07
8.20727e-07
3.45402e-05
3.12882e-07
3.22256e-06
3.55645e-05
2.02366e-06
5.82642e-06
3.52192e-05
3.95862e-06
8.1846e-06
3.38266e-05
5.10456e-06
9.72677e-06
3.22152e-05
4.86564e-06
1.00266e-05
3.09783e-05
3.76684e-06
9.22017e-06
3.01549e-05
2.5172e-06
7.9738e-06
2.94631e-05
1.46229e-06
6.95978e-06
2.86076e-05
5.69769e-07
6.43142e-06
2.74056e-05
-1.63262e-07
6.29297e-06
2.58586e-05
-6.92148e-07
6.36891e-06
2.42146e-05
-1.31034e-06
6.46547e-06
2.28617e-05
-2.21566e-06
6.3344e-06
2.20459e-05
-3.01074e-06
5.74295e-06
2.17256e-05
-3.27231e-06
4.6796e-06
2.1768e-05
-3.30023e-06
3.4574e-06
2.21824e-05
-3.36998e-06
2.30691e-06
2.29589e-05
-2.71146e-06
1.098e-06
2.39569e-05
-1.12391e-06
-1.23914e-07
2.51144e-05
5.93478e-07
-8.58296e-07
2.64884e-05
1.23984e-06
-7.8473e-07
2.80926e-05
-1.16861e-08
6.69255e-09
2.98095e-05
-2.98161e-06
7.41773e-07
3.15718e-05
-7.42125e-06
8.68969e-07
3.32174e-05
-1.10819e-05
-2.71542e-07
3.42069e-05
-1.09828e-05
-2.60054e-06
3.39957e-05
-7.06985e-06
-5.0958e-06
3.27814e-05
-2.39551e-06
-7.08132e-06
3.10945e-05
1.06703e-06
-8.5301e-06
2.92826e-05
2.46e-06
-9.16092e-06
2.74198e-05
1.82484e-06
-8.84745e-06
2.56194e-05
1.65311e-07
-8.20083e-06
2.42376e-05
-8.47816e-07
-7.77528e-06
2.36707e-05
-6.03405e-07
-7.30336e-06
6.02057e-07
-6.38236e-06
3.76739e-05
2.25941e-06
-8.24087e-06
3.95464e-05
2.27115e-06
-6.98237e-06
4.23082e-05
5.41274e-07
-5.63478e-06
4.57423e-05
-1.90194e-06
-3.65243e-06
4.953e-05
-3.41923e-06
-5.43594e-07
5.31153e-05
-2.3423e-06
2.82325e-06
5.55056e-05
5.34097e-07
6.79432e-06
5.58534e-05
4.05481e-06
1.06005e-05
5.41972e-05
6.61174e-06
1.33763e-05
5.16444e-05
7.0246e-06
1.44133e-05
4.94151e-05
5.74455e-06
1.37117e-05
4.79508e-05
3.82594e-06
1.21118e-05
4.69385e-05
2.0673e-06
1.0613e-05
4.58595e-05
6.20297e-07
9.62785e-06
4.43444e-05
-4.79681e-07
9.06361e-06
4.22915e-05
-1.21553e-06
8.81741e-06
3.98821e-05
-2.04555e-06
8.82387e-06
3.75042e-05
-3.29697e-06
8.81087e-06
3.55829e-05
-4.50349e-06
8.33683e-06
3.43544e-05
-5.12876e-06
7.21944e-06
3.38488e-05
-5.51931e-06
5.80519e-06
3.40879e-05
-5.86471e-06
4.39e-06
3.49786e-05
-4.80203e-06
2.76992e-06
3.62964e-05
-1.93408e-06
9.67584e-07
3.79792e-05
9.25692e-07
-2.16487e-07
4.01297e-05
1.57213e-06
-6.7396e-08
4.27279e-05
-1.04395e-06
1.10243e-06
4.55039e-05
-6.85803e-06
2.83915e-06
4.83834e-05
-1.50801e-05
3.84533e-06
5.12805e-05
-2.18415e-05
2.84563e-06
5.3381e-05
-2.19371e-05
-2.8664e-07
5.36669e-05
-1.49547e-05
-4.30733e-06
5.22927e-05
-6.30831e-06
-7.89013e-06
5.01066e-05
2.83745e-07
-1.06299e-05
4.77364e-05
3.15532e-06
-1.19486e-05
4.52315e-05
2.39273e-06
-1.16508e-05
4.24228e-05
-1.1913e-07
-1.07405e-05
3.956e-05
-1.56477e-06
-1.02691e-05
3.75093e-05
-1.11677e-06
-1.00698e-05
6.34154e-07
-9.41845e-06
5.2506e-05
2.38729e-06
-1.178e-05
5.42014e-05
2.03588e-06
-1.11313e-05
5.74272e-05
-1.11274e-06
-1.02624e-05
6.18288e-05
-5.86552e-06
-8.52141e-06
6.71251e-05
-9.68037e-06
-5.30286e-06
7.27998e-05
-9.81313e-06
-3.42676e-07
7.76255e-05
-5.32675e-06
4.85358e-06
7.99857e-05
6.51653e-07
1.06895e-05
7.90714e-05
5.81884e-06
1.55348e-05
7.58588e-05
8.06962e-06
1.81931e-05
7.2326e-05
7.43675e-06
1.83214e-05
6.98197e-05
5.12596e-06
1.67755e-05
6.83238e-05
2.57867e-06
1.49713e-05
6.71175e-05
4.205e-07
1.36034e-05
6.55486e-05
-1.1141e-06
1.25068e-05
6.33077e-05
-1.96672e-06
1.15887e-05
6.03636e-05
-2.75424e-06
1.11158e-05
5.68702e-05
-3.9788e-06
1.10792e-05
5.32711e-05
-5.24671e-06
1.08851e-05
5.02225e-05
-6.18731e-06
1.00084e-05
4.82549e-05
-7.408e-06
8.71428e-06
4.76602e-05
-8.82808e-06
7.38549e-06
4.83047e-05
-7.83827e-06
5.63942e-06
4.97667e-05
-3.48417e-06
3.32759e-06
5.18834e-05
1.06684e-06
1.52608e-06
5.47705e-05
1.96432e-06
1.55399e-06
5.83001e-05
-2.47933e-06
3.53752e-06
6.18175e-05
-1.20092e-05
6.76498e-06
6.52305e-05
-2.50966e-05
9.46158e-06
6.92581e-05
-3.67482e-05
9.55709e-06
7.34188e-05
-3.89659e-05
6.19054e-06
7.569e-05
-2.91946e-05
5.68883e-07
7.53717e-05
-1.48511e-05
-5.7547e-06
7.34063e-05
-3.16893e-06
-1.09279e-05
7.08813e-05
2.75627e-06
-1.38959e-05
6.80416e-05
2.72461e-06
-1.40701e-05
6.44497e-05
-4.33576e-07
-1.28365e-05
5.99153e-05
-2.27175e-06
-1.20946e-05
5.55171e-05
-1.61261e-06
-1.21652e-05
5.20678e-07
-1.2217e-05
7.08265e-05
2.54984e-06
-1.46273e-05
7.0973e-05
1.58454e-06
-1.53381e-05
7.32603e-05
-3.39331e-06
-1.58876e-05
7.72152e-05
-1.14747e-05
-1.5506e-05
8.27952e-05
-1.93771e-05
-1.33142e-05
9.00705e-05
-2.28144e-05
-8.90558e-06
9.82672e-05
-1.93218e-05
-1.96276e-06
0.000104891
-1.00941e-05
5.88768e-06
0.000107077
-1.98953e-07
1.40732e-05
0.000104636
6.0746e-06
1.9829e-05
0.000100033
7.76026e-06
2.20584e-05
9.60874e-05
5.95905e-06
2.13415e-05
9.37838e-05
2.8261e-06
1.96247e-05
9.24316e-05
-1.91539e-07
1.82761e-05
9.10277e-05
-2.30109e-06
1.70221e-05
8.90053e-05
-3.20542e-06
1.53606e-05
8.60943e-05
-3.63726e-06
1.38436e-05
8.19866e-05
-4.32684e-06
1.32186e-05
7.66891e-05
-4.9992e-06
1.3143e-05
7.10056e-05
-5.65457e-06
1.26684e-05
6.61845e-05
-7.7034e-06
1.1743e-05
6.33662e-05
-1.11978e-05
1.08803e-05
6.28397e-05
-1.14935e-05
9.4935e-06
6.39549e-05
-5.91293e-06
6.94568e-06
6.61834e-05
9.33974e-07
4.57797e-06
6.95444e-05
2.59871e-06
4.5403e-06
7.38132e-05
-3.79373e-06
7.37685e-06
7.77185e-05
-1.73163e-05
1.20863e-05
8.04002e-05
-3.53333e-05
1.64886e-05
8.35875e-05
-5.28414e-05
1.84658e-05
8.93833e-05
-6.00698e-05
1.65903e-05
9.5832e-05
-5.12349e-05
1.05053e-05
9.95446e-05
-3.16441e-05
1.6496e-06
9.9879e-05
-1.21168e-05
-7.78327e-06
9.82835e-05
-3.49715e-07
-1.41481e-05
9.5711e-05
2.25746e-06
-1.59219e-05
9.19036e-05
-7.23008e-07
-1.46255e-05
8.61831e-05
-2.67911e-06
-1.33187e-05
7.93244e-05
-1.68285e-06
-1.32555e-05
7.21751e-07
-1.39103e-05
9.5381e-05
3.18005e-06
-1.56278e-05
9.34106e-05
1.52825e-06
-1.76542e-05
9.35132e-05
-5.05806e-06
-1.98145e-05
9.46349e-05
-1.63441e-05
-2.15959e-05
9.72682e-05
-2.90595e-05
-2.20285e-05
0.000102484
-3.77805e-05
-2.00477e-05
0.000111363
-3.85602e-05
-1.49684e-05
0.000123135
-3.06054e-05
-6.20453e-06
0.000132689
-1.69132e-05
5.32944e-06
0.000135163
-3.0786e-06
1.63258e-05
0.00013147
4.27323e-06
2.29908e-05
0.000126324
5.0572e-06
2.46241e-05
0.000122951
2.26821e-06
2.35397e-05
0.000121377
-1.4999e-06
2.26271e-05
0.000120212
-4.3444e-06
2.21439e-05
0.00011864
-5.3198e-06
2.05725e-05
0.000116416
-5.12513e-06
1.78782e-05
0.000112839
-4.83336e-06
1.57966e-05
0.000106965
-4.27504e-06
1.51491e-05
9.895e-05
-3.72161e-06
1.49285e-05
9.02713e-05
-5.6111e-06
1.44411e-05
8.3206e-05
-1.1267e-05
1.42054e-05
7.95331e-05
-1.43069e-05
1.35982e-05
7.91015e-05
-8.66559e-06
1.12777e-05
8.0813e-05
6.66038e-07
8.52678e-06
8.42556e-05
3.85341e-06
8.4025e-06
8.92519e-05
-4.10316e-06
1.18e-05
9.43957e-05
-2.1388e-05
1.69551e-05
9.73035e-05
-4.28409e-05
2.11743e-05
9.78367e-05
-6.36738e-05
2.38876e-05
0.000100537
-7.72469e-05
2.54862e-05
0.00010868
-7.51019e-05
2.32954e-05
0.000118835
-5.59634e-05
1.47188e-05
0.000125627
-3.01165e-05
1.39469e-06
0.000127807
-9.05371e-06
-1.08601e-05
0.000126793
-4.23796e-07
-1.63783e-05
0.000123521
-1.27026e-06
-1.6085e-05
0.000117586
-2.60264e-06
-1.42359e-05
0.000109239
-1.00943e-06
-1.3507e-05
1.62545e-06
-1.41226e-05
0.000126462
4.38946e-06
-1.45384e-05
0.000123754
2.19649e-06
-1.72067e-05
0.000122943
-4.99913e-06
-2.02067e-05
0.000120688
-1.73646e-05
-2.35709e-05
0.000117409
-3.31914e-05
-2.73431e-05
0.000116313
-4.73511e-05
-2.97926e-05
0.000120178
-5.45091e-05
-2.84427e-05
0.000130999
-5.23488e-05
-2.23534e-05
0.000146893
-4.11871e-05
-1.09986e-05
0.000159373
-2.3639e-05
4.38597e-06
0.000161944
-7.49461e-06
1.80714e-05
0.000157873
-4.11229e-07
2.48737e-05
0.000153942
-6.93939e-07
2.55114e-05
0.000152536
-4.33733e-06
2.487e-05
0.000151922
-7.69791e-06
2.57113e-05
0.000150674
-8.62743e-06
2.5969e-05
0.000149236
-7.59605e-06
2.34212e-05
0.000147399
-6.10519e-06
1.95726e-05
0.000143177
-4.11836e-06
1.72818e-05
0.000135072
-1.84487e-06
1.6738e-05
0.000123524
-2.22287e-06
1.66053e-05
0.00011101
-8.41988e-06
1.69609e-05
0.000101437
-1.42812e-05
1.7263e-05
9.70897e-05
-1.02236e-05
1.5609e-05
9.71333e-05
7.05775e-07
1.26776e-05
0.000100185
6.05799e-06
1.22332e-05
0.000105714
-2.32099e-06
1.56317e-05
0.000112825
-2.24883e-05
2.01669e-05
0.000118944
-4.63262e-05
2.23102e-05
0.000120295
-6.67199e-05
2.31041e-05
0.000117845
-8.13597e-05
2.6903e-05
0.000119765
-8.73474e-05
3.2046e-05
0.000130631
-7.80286e-05
2.97431e-05
0.000144816
-5.36722e-05
1.63708e-05
0.000154758
-2.53288e-05
-1.73111e-06
0.000157989
-7.2783e-06
-1.36709e-05
0.000156259
-2.61789e-06
-1.65902e-05
0.000151061
-1.94788e-06
-1.49737e-05
0.000142831
3.62742e-07
-1.32204e-05
3.25668e-06
-1.30306e-05
0.000158578
4.9508e-06
-1.10326e-05
0.000157792
3.0463e-06
-1.34401e-05
0.000159407
-3.40916e-06
-1.64915e-05
0.000157284
-1.39263e-05
-2.03333e-05
0.000148935
-2.88582e-05
-2.65582e-05
0.000139372
-4.60975e-05
-3.46603e-05
0.000134953
-5.99118e-05
-3.9743e-05
0.000139009
-6.53004e-05
-3.79875e-05
0.000152995
-6.15276e-05
-2.92818e-05
0.000172253
-4.81499e-05
-1.35461e-05
0.000184828
-2.88734e-05
6.11028e-06
0.000185558
-1.27116e-05
2.06223e-05
0.00018199
-7.61386e-06
2.49497e-05
0.000181709
-1.02832e-05
2.39318e-05
0.000183489
-1.38148e-05
2.4873e-05
0.000183138
-1.35689e-05
2.77391e-05
0.000181422
-1.05735e-05
2.77396e-05
0.000181163
-7.82579e-06
2.36702e-05
0.000180938
-5.25304e-06
1.938e-05
0.000176764
-1.9841e-06
1.77667e-05
0.000166339
-5.18264e-07
1.79195e-05
0.000150208
-4.87187e-06
1.89395e-05
0.000133094
-1.08373e-05
2.00741e-05
0.00012144
-8.48734e-06
1.94553e-05
0.000117363
2.12733e-06
1.68765e-05
0.000119144
8.77853e-06
1.60219e-05
0.000124953
6.83098e-07
1.8572e-05
0.000133396
-2.08681e-05
2.14584e-05
0.000142632
-4.59917e-05
2.08155e-05
0.000148491
-6.47035e-05
1.85589e-05
0.000146588
-7.50929e-05
2.19389e-05
0.00014101
-8.23578e-05
3.28115e-05
0.000143735
-8.49763e-05
4.01595e-05
0.00015855
-7.33364e-05
3.22489e-05
0.000176092
-4.68081e-05
1.24715e-05
0.000185187
-1.85729e-05
-6.21701e-06
0.000183526
-3.10511e-06
-1.48459e-05
0.000176985
1.63797e-06
-1.52456e-05
0.000170253
2.39403e-06
-1.24691e-05
3.80618e-06
-1.05239e-05
0.000177028
4.15013e-06
-4.67668e-06
0.000181731
1.44411e-06
-4.63993e-06
0.000190685
-4.20184e-06
-6.39453e-06
0.000195878
-1.04993e-05
-1.04983e-05
0.000189155
-1.90431e-05
-1.85925e-05
0.000173607
-3.40446e-05
-3.15368e-05
0.000160297
-5.28443e-05
-4.52487e-05
0.000155978
-6.57505e-05
-5.16801e-05
0.000162317
-6.95577e-05
-4.74387e-05
0.000179621
-6.55903e-05
-3.35867e-05
0.000200318
-5.25205e-05
-1.17261e-05
0.00021057
-3.26366e-05
1.07732e-05
0.000208362
-1.81888e-05
2.21899e-05
0.000205957
-1.77037e-05
2.20091e-05
0.000210283
-2.3704e-05
2.04764e-05
0.000214227
-2.27105e-05
2.34592e-05
0.000211797
-1.3553e-05
2.64056e-05
0.000208498
-6.04214e-06
2.42568e-05
0.000210336
-4.52062e-06
1.91421e-05
0.000214261
-5.00525e-06
1.63764e-05
0.000212544
-4.96018e-06
1.71346e-05
0.000199614
-6.0632e-06
1.93652e-05
0.000177613
-6.78315e-06
2.14127e-05
0.000156484
-2.21357e-06
2.19929e-05
0.000144726
7.07473e-06
2.07907e-05
0.000143241
1.1616e-05
2.02553e-05
0.000148996
1.49733e-06
2.14925e-05
0.000158749
-2.17163e-05
2.14091e-05
0.000170043
-4.66218e-05
1.63812e-05
0.000179389
-6.16045e-05
9.41906e-06
0.000181367
-6.533e-05
1.14221e-05
0.00017396
-6.68555e-05
2.61232e-05
0.000166983
-7.43009e-05
4.22436e-05
0.000173901
-7.94082e-05
4.27065e-05
0.000192195
-6.57133e-05
2.52158e-05
0.000204867
-3.35458e-05
3.40339e-06
0.000201856
-3.0044e-06
-1.13327e-05
0.000189947
1.06458e-05
-1.51679e-05
0.000180771
9.47132e-06
-1.18697e-05
5.59375e-06
-7.11041e-06
0.000188398
7.44078e-06
5.67293e-07
0.000192491
2.63783e-06
6.16823e-06
0.000205338
-6.03524e-06
9.7905e-06
0.000221979
-1.20836e-05
7.74658e-06
0.000227309
-1.27244e-05
-2.3346e-06
0.000214587
-1.70711e-05
-2.00404e-05
0.000194843
-3.50486e-05
-4.09545e-05
0.000182268
-5.51266e-05
-5.82279e-05
0.000181188
-6.58299e-05
-6.34148e-05
0.000190693
-6.93633e-05
-5.45195e-05
0.000210215
-6.80228e-05
-3.40876e-05
0.000231367
-5.70593e-05
-7.08243e-06
0.00024009
-3.78326e-05
1.41003e-05
0.00023567
-2.60631e-05
2.03651e-05
0.00023301
-2.98475e-05
1.75149e-05
0.000238554
-3.34467e-05
1.66649e-05
0.000242353
-2.21178e-05
1.98194e-05
0.000238397
-4.81363e-06
2.10891e-05
0.000234049
2.63404e-06
1.77463e-05
0.000237662
-3.27965e-06
1.4014e-05
0.000246893
-1.48271e-05
1.44642e-05
0.000248165
-1.96403e-05
1.7948e-05
0.000231687
-1.06054e-05
2.07232e-05
0.000204885
5.10282e-06
2.19468e-05
0.000183684
1.69964e-05
2.29241e-05
0.000175914
1.66807e-05
2.488e-05
0.000179162
9.93715e-07
2.61195e-05
0.00018862
-2.61517e-05
2.28078e-05
0.000201417
-5.23388e-05
1.19915e-05
0.000213884
-6.3662e-05
-1.95469e-06
0.000219505
-5.82879e-05
-5.4375e-06
0.000213244
-5.01955e-05
1.19863e-05
0.000200004
-5.32467e-05
3.67549e-05
0.000195622
-6.95556e-05
4.73358e-05
0.000206896
-7.3769e-05
3.44454e-05
0.000219421
-4.71732e-05
1.17031e-05
0.000218299
-5.50263e-06
-6.8773e-06
0.000206064
1.88553e-05
-1.49415e-05
0.000194718
1.94637e-05
-1.31713e-05
1.16301e-05
-6.0426e-06
0.000210914
1.55896e-05
-3.33967e-06
0.000208316
9.56721e-06
5.24598e-06
0.000215832
-4.81684e-06
1.60668e-05
0.000235833
-1.60973e-05
2.25507e-05
0.000255056
-1.28135e-05
1.61375e-05
0.00025542
-4.58349e-06
-2.88367e-06
0.000237519
-1.24138e-05
-2.89359e-05
0.000217365
-3.45667e-05
-5.40714e-05
0.000208611
-5.25512e-05
-7.11787e-05
0.000212283
-6.24677e-05
-7.28286e-05
0.000225221
-7.0024e-05
-5.80627e-05
0.000246158
-7.37353e-05
-3.08415e-05
0.000266346
-6.40335e-05
-1.97105e-06
0.000271782
-4.40791e-05
1.45567e-05
0.000264292
-3.32278e-05
1.53859e-05
0.000260164
-3.45623e-05
1.14257e-05
0.000265359
-2.98353e-05
1.23892e-05
0.00027049
-1.2914e-05
1.68618e-05
0.000268376
3.78526e-06
1.8045e-05
0.000263984
5.05089e-06
1.49108e-05
0.000268377
-1.51203e-05
1.31562e-05
0.000280247
-3.72623e-05
1.58807e-05
0.000281053
-3.00553e-05
1.8662e-05
0.000261763
1.4503e-06
1.93671e-05
0.000236778
2.49981e-05
2.21687e-05
0.000221646
2.43599e-05
2.87102e-05
0.000217748
5.71391e-06
3.20099e-05
0.000220876
-2.34726e-05
2.53153e-05
0.000231011
-5.42144e-05
8.90635e-06
0.00024686
-7.13313e-05
-9.40482e-06
0.000258346
-6.23052e-05
-1.93117e-05
0.000255679
-4.03517e-05
-7.41379e-06
0.000240132
-3.23593e-05
2.46822e-05
0.0002259
-4.83886e-05
4.69898e-05
0.000225564
-6.65153e-05
4.26501e-05
0.000233617
-5.24298e-05
2.09653e-05
0.000236402
-1.05201e-05
-9.62307e-08
0.000231219
2.05882e-05
-1.35958e-05
0.000223579
2.6153e-05
-1.70508e-05
2.00092e-05
-1.17392e-05
0.000248096
2.57329e-05
-1.36954e-05
0.000239501
2.02435e-05
-8.10721e-06
0.000239056
1.58893e-06
2.14289e-06
0.000253504
-1.77255e-05
1.67087e-05
0.000277813
-1.7321e-05
2.16883e-05
0.000292201
-5.77911e-07
9.15186e-06
0.000284534
5.81345e-06
-1.60969e-05
0.000262643
-1.05995e-05
-4.32727e-05
0.000245063
-3.15979e-05
-6.82511e-05
0.000242612
-4.76228e-05
-8.28091e-05
0.000252067
-6.23695e-05
-7.88241e-05
0.000268074
-7.79247e-05
-5.59747e-05
0.000287722
-8.30601e-05
-2.35594e-05
0.000301008
-6.66789e-05
2.51454e-06
0.00029941
-4.25395e-05
1.05561e-05
0.000290569
-3.07492e-05
7.22281e-06
0.000288457
-2.7788e-05
6.43025e-06
0.000295735
-2.01384e-05
1.2872e-05
0.000303477
-5.56859e-06
1.94051e-05
0.000303554
5.16621e-06
1.93946e-05
0.000299529
-6.34415e-06
1.5325e-05
0.000302575
-3.66541e-05
1.33979e-05
0.000311439
-4.64587e-05
1.43255e-05
0.00031089
-1.8724e-05
1.55786e-05
0.000296331
1.50366e-05
2.08437e-05
0.000278705
2.44655e-05
3.18691e-05
0.000265703
1.47714e-05
3.73202e-05
0.000257908
-6.15523e-06
2.66069e-05
0.000258794
-3.72584e-05
4.57823e-06
0.000273235
-6.90685e-05
-1.50266e-05
0.000292227
-7.28508e-05
-2.69111e-05
0.000297658
-4.54542e-05
-2.05562e-05
0.000284425
-2.24721e-05
1.03899e-05
0.000264547
-2.62403e-05
4.24908e-05
0.000252924
-4.65868e-05
4.96995e-05
0.000252879
-4.4755e-05
3.24234e-05
0.000256665
-1.23386e-05
8.78749e-06
0.000259659
1.76996e-05
-1.05562e-05
0.000260234
2.60581e-05
-2.02862e-05
2.52023e-05
-1.92681e-05
0.000297873
2.89371e-05
-2.33096e-05
0.000288962
2.81296e-05
-2.29097e-05
0.000281923
1.03039e-05
-1.8185e-05
0.000285937
-1.23666e-05
-4.5652e-06
0.000305712
-1.95815e-05
8.72959e-06
0.000328639
-4.3196e-06
7.22849e-06
0.000333635
1.21862e-05
-9.53729e-06
0.000315882
8.7032e-06
-3.32495e-05
0.00029195
-7.57635e-06
-5.99973e-05
0.000281286
-2.61361e-05
-8.32951e-05
0.000287362
-4.72315e-05
-9.15631e-05
0.000301478
-7.18747e-05
-7.82213e-05
0.000317383
-8.99457e-05
-4.77188e-05
0.000330241
-8.28639e-05
-1.558e-05
0.000332917
-5.40354e-05
2.09055e-06
0.00032629
-2.91562e-05
2.88065e-06
0.000320294
-2.01113e-05
8.95891e-07
0.000322594
-1.78572e-05
7.48202e-06
0.000332462
-1.24945e-05
1.97438e-05
0.000342341
-3.61934e-06
2.6735e-05
0.000343916
-4.40372e-06
2.29689e-05
0.000338232
-2.39016e-05
1.40017e-05
0.000335524
-4.21764e-05
1.00339e-05
0.000336738
-3.43109e-05
1.40995e-05
0.000332058
-8.4383e-06
2.47678e-05
0.000319522
1.12433e-05
3.70103e-05
0.000307093
1.71408e-05
3.84573e-05
0.00029872
9.68948e-06
2.23214e-05
0.000295195
-1.41419e-05
-1.89466e-06
0.000303629
-5.19341e-05
-2.14574e-05
0.000323917
-7.4197e-05
-3.07127e-05
0.000337383
-5.7219e-05
-2.55648e-05
0.000330145
-2.53488e-05
-4.69265e-07
0.000309169
-1.44133e-05
3.52922e-05
0.000290222
-2.43089e-05
5.39297e-05
0.000282008
-2.55547e-05
4.42791e-05
0.000283193
-4.37962e-06
2.05624e-05
0.00029005
1.71226e-05
-4.13576e-06
0.000298398
2.26339e-05
-2.00791e-05
2.34501e-05
-2.45758e-05
0.000344647
2.22157e-05
-2.91017e-05
0.000344083
2.36068e-05
-3.28845e-05
0.000336524
1.3747e-05
-3.03868e-05
0.000329937
-3.46328e-06
-1.87807e-05
0.000337836
-1.34027e-05
-6.18789e-06
0.000360857
-6.18902e-06
-2.70097e-06
0.000378403
9.99778e-06
-1.05016e-05
0.00037207
1.85474e-05
-2.64841e-05
0.000348411
1.36642e-05
-5.01111e-05
0.000330676
-2.71093e-08
-7.76441e-05
0.000331161
-2.32268e-05
-9.65652e-05
0.000343865
-5.58064e-05
-9.48549e-05
0.000358174
-8.56077e-05
-7.1682e-05
0.000368593
-8.98764e-05
-3.77772e-05
0.000371378
-6.32895e-05
-1.1455e-05
0.000366313
-3.00523e-05
-3.05349e-06
0.000359512
-1.21499e-05
-3.89486e-06
0.000357971
-9.12796e-06
2.02289e-06
0.000364853
-1.08231e-05
1.78598e-05
0.000377625
-1.02592e-05
3.18142e-05
0.000386328
-9.67138e-06
3.16199e-05
0.000381297
-1.62635e-05
1.97031e-05
0.000365973
-2.72261e-05
1.13457e-05
0.000351657
-2.95423e-05
1.46442e-05
0.000342921
-1.88913e-05
2.40211e-05
0.000339547
-4.30796e-06
2.96576e-05
0.000340924
7.75339e-06
2.42831e-05
0.000342507
1.37545e-05
7.22701e-06
0.000340921
2.80751e-06
-1.23455e-05
0.000344239
-3.14377e-05
-2.7361e-05
0.000360557
-6.65455e-05
-3.22662e-05
0.000377644
-6.66083e-05
-2.53286e-05
0.000375726
-3.59862e-05
-3.73753e-06
0.000355101
-1.41159e-05
2.98027e-05
0.000333312
-1.0793e-05
5.26111e-05
0.00032182
-7.01679e-06
5.01746e-05
0.00032072
9.62482e-06
3.02503e-05
0.000325066
2.58229e-05
6.45966e-06
0.000331839
2.69072e-05
-1.23532e-05
2.13929e-05
-2.32331e-05
0.000369444
1.01537e-05
-2.16014e-05
0.000379658
7.1954e-06
-2.80607e-05
0.000380302
4.11528e-06
-2.43716e-05
0.000371462
-8.8107e-07
-1.43472e-05
0.000368247
-3.34739e-06
-6.03436e-06
0.00038376
9.56996e-07
-4.71293e-06
0.000408806
1.08828e-05
-1.01212e-05
0.000418671
2.33282e-05
-2.18442e-05
0.000405325
2.97901e-05
-4.1359e-05
0.000388062
2.54905e-05
-6.82183e-05
0.000385349
6.07798e-06
-9.35272e-05
0.000395965
-3.01478e-05
-0.000103441
0.000408692
-7.02656e-05
-9.14622e-05
0.000416683
-8.70819e-05
-6.2485e-05
0.000417714
-6.7687e-05
-3.12846e-05
0.000412378
-3.19961e-05
-1.28509e-05
0.000405582
-6.73415e-06
-7.17446e-06
0.000402701
6.66414e-07
-2.07892e-06
0.000405904
-2.22877e-06
1.15804e-05
0.000414172
-7.38357e-06
2.79051e-05
0.000421857
-1.25381e-05
3.49226e-05
0.000419743
-1.59198e-05
2.71375e-05
0.000404116
-1.54715e-05
1.4141e-05
0.000383345
-1.2226e-05
7.87013e-06
0.000370999
-1.0967e-05
9.20601e-06
0.000373262
-1.30886e-05
1.16938e-05
0.00038381
-9.91142e-06
8.8622e-06
0.000389806
2.8354e-06
-9.56063e-07
0.000387115
9.29372e-06
-1.27333e-05
0.000385893
-1.17703e-05
-2.08197e-05
0.000396937
-5.16982e-05
-2.3234e-05
0.000414712
-6.9416e-05
-1.78166e-05
0.0004195
-4.98505e-05
2.97684e-07
0.000404505
-2.38321e-05
2.90131e-05
0.000383367
-8.59174e-06
5.12157e-05
0.000368742
6.1854e-06
5.01919e-05
0.000361859
2.64726e-05
3.39283e-05
0.00035794
4.0485e-05
1.83193e-05
0.000355821
3.60706e-05
5.37164e-06
2.06166e-05
-8.43211e-06
0.00039291
3.13935e-06
-2.9214e-06
0.000407685
-6.88268e-06
-1.32528e-05
0.000415976
-8.90613e-06
-1.46943e-05
0.000411888
-4.99291e-06
-6.32451e-06
0.000404214
5.02509e-06
4.02194e-06
0.000408596
1.64966e-05
6.48125e-06
0.000430073
2.39407e-05
-1.83894e-06
0.00045325
2.97764e-05
-1.57288e-05
0.000460917
3.77038e-05
-3.10154e-05
0.000456305
4.28146e-05
-5.18913e-05
0.000456353
3.4163e-05
-7.89545e-05
0.000465538
2.25593e-06
-0.000100717
0.000474887
-4.31637e-05
-0.000103164
0.000477852
-7.07639e-05
-8.4307e-05
0.000474143
-6.07832e-05
-5.4396e-05
0.000465379
-2.86636e-05
-2.83317e-05
0.000456616
-3.35233e-06
-1.27823e-05
0.000452816
5.6182e-06
-3.64279e-06
0.000453631
5.33305e-06
7.42474e-06
0.000455485
8.87082e-07
2.27396e-05
0.000455346
-7.17757e-06
3.3127e-05
0.00045039
-1.21245e-05
2.92685e-05
0.000439606
-7.47924e-06
1.45903e-05
0.000427696
9.41332e-07
9.35685e-07
0.000422883
-1.11118e-06
-4.04111e-06
0.000428414
-1.71938e-05
3.17094e-07
0.000436726
-2.74561e-05
6.45757e-06
0.000437026
-1.44513e-05
5.42549e-06
0.000429513
6.95688e-06
-1.32474e-06
0.000425183
3.50666e-06
-6.53302e-06
0.000432524
-3.02613e-05
-8.85381e-06
0.00044966
-6.12833e-05
-6.21249e-06
0.000462694
-5.94193e-05
6.73951e-06
0.000459084
-3.55534e-05
2.9001e-05
0.000441765
-1.03721e-05
4.86085e-05
0.000421183
1.49414e-05
5.02334e-05
0.000403513
4.0356e-05
3.70285e-05
0.000389758
5.54248e-05
2.34346e-05
0.000381562
4.8251e-05
1.5564e-05
2.45988e-05
8.34888e-06
0.000432696
1.40268e-05
2.00585e-05
0.000445514
-1.28229e-07
9.56961e-06
0.000452836
-4.98661e-06
3.42647e-06
0.000451041
1.36278e-07
3.88398e-06
0.000444427
1.52849e-05
1.01648e-05
0.000443935
3.39556e-05
1.54666e-05
0.000456376
4.49092e-05
1.34349e-05
0.000477362
4.40941e-05
3.986e-06
0.000498136
4.01018e-05
-1.1027e-05
0.000515329
3.99666e-05
-2.78079e-05
0.000532398
3.9257e-05
-5.13056e-05
0.000548152
2.22308e-05
-7.89086e-05
0.000555791
-1.33888e-05
-9.78979e-05
0.00055239
-4.32256e-05
-9.4847e-05
0.000541511
-4.35174e-05
-7.09297e-05
0.000527685
-2.12727e-05
-4.16598e-05
0.000514861
-7.7665e-07
-2.0363e-05
0.000505811
8.71835e-06
-7.59102e-06
0.000500705
1.14713e-05
3.87305e-06
0.000497205
9.53558e-06
1.79279e-05
0.000491347
3.10294e-06
2.90232e-05
0.000482551
-7.58045e-07
2.67404e-05
0.000476229
3.4909e-06
1.0067e-05
0.000479118
1.02088e-05
-8.19691e-06
0.000490853
3.46233e-06
-1.28904e-05
0.000501239
-2.13566e-05
-1.97452e-06
0.000499467
-4.04639e-05
1.19474e-05
0.000485939
-3.04637e-05
1.75849e-05
0.000473021
-1.98436e-06
1.97866e-05
0.000470512
1.05764e-05
2.17526e-05
0.00047981
-7.50783e-06
1.61555e-05
0.000496612
-4.00293e-05
5.97849e-06
0.000512525
-5.50963e-05
8.17792e-06
0.000515592
-3.99373e-05
2.6915e-05
0.000501558
-9.30939e-06
4.53433e-05
0.000476126
2.2937e-05
4.50279e-05
0.000448606
4.95799e-05
3.12214e-05
0.000427751
6.31274e-05
2.29327e-05
0.00041896
5.69498e-05
2.52804e-05
3.60928e-05
2.70376e-05
0.00047704
3.62312e-05
3.81542e-05
0.000492521
2.31708e-05
2.59093e-05
0.000505745
1.63352e-05
1.16381e-05
0.000510431
1.60452e-05
6.79775e-06
0.000506479
2.43209e-05
1.4761e-05
0.000502214
4.03225e-05
2.76601e-05
0.000505709
5.64777e-05
3.24745e-05
0.000517101
6.1307e-05
2.28935e-05
0.000532898
5.07009e-05
7.33535e-06
0.000554151
3.2254e-05
-3.97771e-06
0.000582379
1.75479e-05
-1.52298e-05
0.000611237
8.05279e-06
-3.97492e-05
0.000626215
-4.09541e-06
-7.16144e-05
0.000622811
-1.80158e-05
-8.93927e-05
0.000611612
-2.17578e-05
-8.34129e-05
0.000601362
-1.191e-05
-6.21629e-05
0.00059215
-3.08729e-07
-3.74408e-05
0.000580525
8.08217e-06
-1.64841e-05
0.00056622
1.51841e-05
-2.52425e-06
0.000551888
1.79302e-05
7.12004e-06
0.000538916
1.40528e-05
1.74013e-05
0.000529973
7.52706e-06
2.54757e-05
0.000530395
3.22551e-06
2.32097e-05
0.000545079
-8.25815e-07
1.06296e-05
0.000569945
-1.45046e-05
-8.34958e-07
0.000586826
-3.81557e-05
2.42188e-06
0.00058035
-5.51525e-05
2.09913e-05
0.000556198
-4.49979e-05
4.17739e-05
0.000535537
-1.03015e-05
5.5439e-05
0.000530503
2.13227e-05
5.66154e-05
0.000537714
2.45765e-05
3.93442e-05
0.000550804
-2.22263e-06
1.32607e-05
0.000564194
-3.36974e-05
8.15234e-07
0.000567449
-3.68277e-05
1.1423e-05
0.000551596
-8.52628e-06
3.08391e-05
0.000520973
2.82989e-05
3.78008e-05
0.00048838
5.7772e-05
2.8744e-05
0.000466931
7.21024e-05
2.21048e-05
0.000460487
6.97842e-05
2.83266e-05
5.44476e-05
3.82493e-05
0.000538423
6.13762e-05
1.35896e-05
0.000552087
4.26479e-05
1.37161e-05
0.000563841
3.13502e-05
1.47577e-05
0.000568407
2.66089e-05
1.74871e-05
0.000565183
2.87439e-05
2.28042e-05
0.000559902
3.71696e-05
3.0824e-05
0.000560579
4.70667e-05
3.86264e-05
0.000570178
4.91375e-05
4.00185e-05
0.000584707
3.85601e-05
3.05951e-05
0.000601301
1.81757e-05
1.36793e-05
0.00062169
-6.96296e-07
-5.42154e-06
0.000648459
-1.14669e-05
-2.7037e-05
0.000676092
-1.70907e-05
-5.01733e-05
0.000691428
-1.70549e-05
-6.90193e-05
0.000689914
-9.53128e-06
-7.72251e-05
0.000679444
3.09964e-06
-7.39405e-05
0.000668856
1.27045e-05
-6.12538e-05
0.000660188
1.67764e-05
-4.18807e-05
0.000650439
1.77131e-05
-2.34298e-05
0.00063652
1.65066e-05
-1.24812e-05
0.000619372
1.42877e-05
-4.5362e-06
0.000605751
1.13834e-05
6.62346e-06
0.000603733
4.14152e-06
2.02748e-05
0.000615701
-1.26173e-05
2.73164e-05
0.000634088
-3.68697e-05
2.40282e-05
0.00064585
-5.81939e-05
1.94996e-05
0.000641347
-6.4307e-05
2.79853e-05
0.000622852
-4.6477e-05
4.91614e-05
0.000603158
-7.83877e-06
6.53264e-05
0.000590541
3.14931e-05
5.93191e-05
0.000586195
4.38587e-05
3.116e-05
0.000591092
1.93991e-05
-1.64788e-06
0.000602596
-2.16774e-05
-1.60578e-05
0.000610346
-4.17239e-05
-5.00279e-06
0.000601067
-2.23221e-05
1.82184e-05
0.000574032
2.04425e-05
3.3476e-05
0.000544461
6.07172e-05
3.35926e-05
0.000526684
8.69956e-05
2.6328e-05