/*--------------------------------*- C++ -*----------------------------------*\
| =========                 |                                                 |
| \\      /  F ield         | OpenFOAM: The Open Source CFD Toolbox           |
|  \\    /   O peration     | Version:  2306                                  |
|   \\  /    A nd           | Website:  www.openfoam.com                      |
|    \\/     M anipulation  |                                                 |
\*---------------------------------------------------------------------------*/
FoamFile
{
    version     2.0;
    format      ascii;
    arch        "LSB;label=32;scalar=64";
    class       volScalarField;
    location    "9.5";
    object      pMean;
}
// * * * * * * * * * * * * * * * * * * * * * * * * * * * * * * * * * * * * * //

dimensions      [0 2 -2 0 0 0 0];

internalField   nonuniform List<scalar> 
60000
(
-7.60197e-06
-1.25242e-05
-8.10005e-06
6.34863e-07
9.29455e-06
1.36148e-05
1.0159e-05
-3.81843e-09
-1.08762e-05
-1.4313e-05
-7.22688e-06
6.76752e-06
2.18426e-05
3.35892e-05
4.01618e-05
4.15529e-05
3.82865e-05
3.03577e-05
1.72985e-05
1.40386e-07
-1.63161e-05
-2.75056e-05
-3.41944e-05
-3.90735e-05
-4.15557e-05
-3.86277e-05
-2.606e-05
-1.02804e-06
3.30998e-05
6.67312e-05
8.96454e-05
9.89171e-05
9.99698e-05
9.82089e-05
9.57231e-05
9.2117e-05
8.36733e-05
6.49367e-05
3.73102e-05
9.98987e-06
-7.42599e-06
-1.27226e-05
-8.5142e-06
1.08537e-07
8.68492e-06
1.2901e-05
9.32057e-06
-9.77697e-07
-1.19592e-05
-1.54498e-05
-8.3122e-06
5.78462e-06
2.09587e-05
3.28272e-05
3.95685e-05
4.1171e-05
3.80908e-05
3.03137e-05
1.73704e-05
2.86163e-07
-1.61389e-05
-2.73221e-05
-3.41051e-05
-3.92534e-05
-4.21558e-05
-3.97456e-05
-2.76286e-05
-2.84089e-06
3.13492e-05
6.53138e-05
8.86923e-05
9.8436e-05
9.98987e-05
9.84736e-05
9.62512e-05
9.2942e-05
8.47903e-05
6.6179e-05
3.83815e-05
1.06385e-05
-8.49565e-06
-1.41027e-05
-9.98522e-06
-1.35383e-06
7.26183e-06
1.15173e-05
7.91698e-06
-2.51446e-06
-1.37161e-05
-1.73022e-05
-9.99726e-06
4.39463e-06
1.98243e-05
3.19108e-05
3.88841e-05
4.07185e-05
3.78308e-05
3.01921e-05
1.73355e-05
2.74267e-07
-1.61628e-05
-2.73581e-05
-3.42707e-05
-3.9717e-05
-4.30973e-05
-4.12867e-05
-2.97987e-05
-5.34203e-06
2.89436e-05
6.33203e-05
8.71901e-05
9.73929e-05
9.92887e-05
9.81635e-05
9.61208e-05
9.29829e-05
8.50526e-05
6.64972e-05
3.83921e-05
1.00948e-05
-1.08789e-05
-1.67337e-05
-1.25615e-05
-3.81312e-06
4.90065e-06
9.25529e-06
5.64731e-06
-4.95369e-06
-1.64301e-05
-2.01207e-05
-1.24915e-05
2.50109e-06
1.84701e-05
3.09449e-05
3.82311e-05
4.03204e-05
3.76249e-05
3.00895e-05
1.72625e-05
1.8809e-07
-1.62732e-05
-2.74743e-05
-3.45296e-05
-4.03325e-05
-4.42294e-05
-4.30624e-05
-3.23188e-05
-8.39418e-06
2.59582e-05
6.07699e-05
8.50651e-05
9.56315e-05
9.79467e-05
9.71596e-05
9.52718e-05
9.21855e-05
8.43523e-05
6.57668e-05
3.72492e-05
8.27286e-06
-1.40169e-05
-2.02039e-05
-1.59952e-05
-7.08983e-06
1.73724e-06
6.05393e-06
2.4593e-06
-8.22635e-06
-1.99022e-05
-2.37007e-05
-1.5701e-05
1.33437e-07
1.69837e-05
3.00881e-05
3.779e-05
4.01499e-05
3.75964e-05
3.01035e-05
1.72257e-05
8.24039e-08
-1.63916e-05
-2.75954e-05
-3.49135e-05
-4.13033e-05
-4.58817e-05
-4.55107e-05
-3.57317e-05
-1.25718e-05
2.18035e-05
5.72197e-05
8.21211e-05
9.3114e-05
9.59763e-05
9.57035e-05
9.41839e-05
9.12848e-05
8.34763e-05
6.47008e-05
3.56388e-05
5.85419e-06
-1.7648e-05
-2.4529e-05
-2.0564e-05
-1.15951e-05
-2.64259e-06
1.60387e-06
-2.1151e-06
-1.24786e-05
-2.38947e-05
-2.75632e-05
-1.92068e-05
-2.46633e-06
1.55516e-05
2.95939e-05
3.78726e-05
4.05434e-05
3.80965e-05
3.05008e-05
1.73147e-05
-1.65912e-07
-1.68586e-05
-2.82159e-05
-3.626e-05
-4.41057e-05
-5.01059e-05
-5.08051e-05
-4.21407e-05
-1.99334e-05
1.45595e-05
5.12484e-05
7.75635e-05
8.95188e-05
9.34361e-05
9.42759e-05
9.35644e-05
9.13633e-05
8.39137e-05
6.46025e-05
3.43888e-05
3.34497e-06
-2.1119e-05
-2.94315e-05
-2.61838e-05
-1.76775e-05
-8.90128e-06
-4.84026e-06
-8.85912e-06
-1.91141e-05
-2.9512e-05
-3.17179e-05
-2.24742e-05
-4.76065e-06
1.45331e-05
2.97311e-05
3.87627e-05
4.18095e-05
3.9449e-05
3.16206e-05
1.77916e-05
-5.58927e-07
-1.79357e-05
-2.96209e-05
-3.84964e-05
-4.85057e-05
-5.72246e-05
-5.99062e-05
-5.26108e-05
-3.13486e-05
3.52701e-06
4.22336e-05
7.10697e-05
8.47683e-05
9.00575e-05
9.24573e-05
9.34528e-05
9.29334e-05
8.68742e-05
6.75371e-05
3.56015e-05
2.07981e-06
-2.35355e-05
-3.43955e-05
-3.23846e-05
-2.47433e-05
-1.66019e-05
-1.28637e-05
-1.72478e-05
-2.80583e-05
-3.83333e-05
-3.89677e-05
-2.68646e-05
-6.79889e-06
1.43836e-05
3.08869e-05
4.06396e-05
4.39798e-05
4.17252e-05
3.36499e-05
1.89823e-05
-6.45943e-07
-1.90185e-05
-3.05255e-05
-3.89127e-05
-4.99659e-05
-6.12429e-05
-6.64431e-05
-6.06937e-05
-4.03534e-05
-5.44904e-06
3.42976e-05
6.44936e-05
7.9445e-05
8.54847e-05
8.90802e-05
9.17134e-05
9.35703e-05
9.06553e-05
7.32884e-05
4.03563e-05
3.31687e-06
-2.33119e-05
-3.72403e-05
-3.75236e-05
-3.15741e-05
-2.47897e-05
-2.17789e-05
-2.6457e-05
-3.78945e-05
-4.88196e-05
-4.95429e-05
-3.58404e-05
-1.23217e-05
1.24657e-05
3.16232e-05
4.27139e-05
4.6379e-05
4.42177e-05
3.6287e-05
2.1306e-05
8.30458e-07
-1.78874e-05
-2.79438e-05
-3.37351e-05
-4.35991e-05
-5.61823e-05
-6.36583e-05
-5.95288e-05
-4.01006e-05
-5.66871e-06
3.33671e-05
6.18363e-05
7.43619e-05
7.85901e-05
8.15808e-05
8.49232e-05
8.9128e-05
9.03106e-05
7.70167e-05
4.57468e-05
7.11444e-06
-1.95045e-05
-3.6614e-05
-3.93148e-05
-3.56875e-05
-3.12386e-05
-2.97656e-05
-3.50484e-05
-4.72735e-05
-5.97485e-05
-6.19865e-05
-4.83879e-05
-2.2972e-05
5.30067e-06
2.76621e-05
4.09679e-05
4.58551e-05
4.42644e-05
3.69865e-05
2.29491e-05
3.63321e-06
-1.35706e-05
-2.11868e-05
-2.26916e-05
-2.91117e-05
-4.11593e-05
-5.00536e-05
-4.73712e-05
-2.91799e-05
3.76972e-06
4.01742e-05
6.44071e-05
7.18734e-05
7.13427e-05
7.1443e-05
7.41824e-05
8.00431e-05
8.58726e-05
7.87168e-05
5.18087e-05
1.36092e-05
-8.48845e-06
-2.83651e-05
-3.43569e-05
-3.42126e-05
-3.31262e-05
-3.38843e-05
-3.98343e-05
-5.29469e-05
-6.76126e-05
-7.31646e-05
-6.21845e-05
-3.70318e-05
-7.00829e-06
1.74895e-05
3.26016e-05
3.89521e-05
3.88768e-05
3.30778e-05
2.0412e-05
3.10549e-06
-1.07181e-05
-1.3851e-05
-9.76384e-06
-1.11031e-05
-2.04877e-05
-2.91677e-05
-2.78741e-05
-1.17801e-05
1.77701e-05
4.97301e-05
6.91242e-05
7.13623e-05
6.5398e-05
6.14973e-05
6.27452e-05
6.98609e-05
8.01691e-05
8.07507e-05
6.08242e-05
2.57961e-05
1.18378e-05
-1.0751e-05
-2.02522e-05
-2.46325e-05
-2.81169e-05
-3.25181e-05
-3.92085e-05
-5.24184e-05
-6.91416e-05
-7.88548e-05
-7.2421e-05
-4.99829e-05
-2.01511e-05
4.65152e-06
1.95451e-05
2.57835e-05
2.64645e-05
2.27137e-05
1.27769e-05
-1.81842e-06
-1.24519e-05
-1.12474e-05
-8.57331e-07
5.31773e-06
1.43353e-06
-4.94454e-06
-4.43619e-06
8.34151e-06
3.16977e-05
5.73575e-05
7.30753e-05
7.40294e-05
6.55387e-05
5.82848e-05
5.70882e-05
6.42389e-05
7.72443e-05
8.50528e-05
7.38873e-05
4.4945e-05
3.30443e-05
9.24318e-06
-2.08333e-06
-9.28252e-06
-1.71931e-05
-2.55719e-05
-3.36737e-05
-4.61287e-05
-6.3993e-05
-7.78579e-05
-7.73732e-05
-5.96067e-05
-3.12443e-05
-6.33173e-06
7.16129e-06
1.1322e-05
1.12516e-05
8.8651e-06
2.17499e-06
-8.512e-06
-1.58433e-05
-1.25508e-05
1.36313e-06
1.54731e-05
2.04914e-05
1.96474e-05
2.07121e-05
2.94171e-05
4.57372e-05
6.37496e-05
7.65449e-05
7.94436e-05
7.31665e-05
6.48292e-05
6.11391e-05
6.59083e-05
7.78846e-05
8.87744e-05
8.53456e-05
6.36708e-05
4.88652e-05
2.64597e-05
1.40556e-05
6.62797e-06
-2.83662e-06
-1.36197e-05
-2.31361e-05
-3.44881e-05
-5.24455e-05
-6.96956e-05
-7.53775e-05
-6.38101e-05
-3.88113e-05
-1.4017e-05
-7.55177e-07
2.00172e-06
7.85093e-07
-1.23266e-06
-5.13295e-06
-1.21631e-05
-1.78329e-05
-1.48902e-05
-1.82022e-06
1.55351e-05
2.88623e-05
3.50325e-05
3.83522e-05
4.44777e-05
5.52938e-05
6.81655e-05
7.94562e-05
8.52999e-05
8.46309e-05
7.81285e-05
7.2722e-05
7.31664e-05
8.03367e-05
8.88964e-05
8.93129e-05
7.42057e-05
5.97915e-05
4.2429e-05
3.09215e-05
2.36689e-05
1.44841e-05
2.97265e-06
-7.66328e-06
-1.87617e-05
-3.6249e-05
-5.55145e-05
-6.6258e-05
-6.15238e-05
-4.18636e-05
-1.78079e-05
-2.53252e-06
9.97119e-07
-1.05247e-06
-3.416e-06
-6.17728e-06
-1.05021e-05
-1.44837e-05
-1.29235e-05
-3.36145e-06
1.26557e-05
2.99279e-05
4.19355e-05
4.77429e-05
5.21035e-05
5.83289e-05
6.67835e-05
7.58058e-05
8.41651e-05
8.91318e-05
8.695e-05
8.29328e-05
8.04813e-05
8.17029e-05
8.46668e-05
8.49142e-05
7.67091e-05
6.82511e-05
5.7762e-05
4.79092e-05
3.99323e-05
3.10632e-05
2.00557e-05
8.50247e-06
-3.55736e-06
-1.99848e-05
-3.91433e-05
-5.27846e-05
-5.34874e-05
-4.02326e-05
-1.96526e-05
-3.44165e-06
2.04815e-06
5.42167e-07
-2.45732e-06
-5.31097e-06
-7.80844e-06
-9.21452e-06
-6.81581e-06
9.35519e-07
1.3579e-05
3.01265e-05
4.52086e-05
5.39665e-05
5.67647e-05
5.80212e-05
6.14409e-05
6.67254e-05
7.45335e-05
8.22398e-05
8.48842e-05
8.42188e-05
8.21209e-05
8.02905e-05
7.91756e-05
7.81978e-05
7.55147e-05
7.24967e-05
6.70618e-05
5.87885e-05
5.01944e-05
4.14655e-05
3.13368e-05
2.03862e-05
7.7247e-06
-7.52888e-06
-2.49973e-05
-3.87857e-05
-4.27545e-05
-3.45239e-05
-1.88743e-05
-4.31713e-06
1.8967e-06
1.0755e-06
-1.70574e-06
-3.88227e-06
-4.61546e-06
-2.99128e-06
1.09598e-06
7.90493e-06
1.74916e-05
3.05735e-05
4.56746e-05
5.63796e-05
5.90579e-05
5.76495e-05
5.79106e-05
6.08858e-05
6.72216e-05
7.48974e-05
7.96386e-05
8.068e-05
7.88361e-05
7.61064e-05
7.37746e-05
7.28352e-05
7.35632e-05
7.24685e-05
7.05016e-05
6.44353e-05
5.68391e-05
4.811e-05
3.8023e-05
2.69612e-05
1.43948e-05
2.31177e-07
-1.47826e-05
-2.6013e-05
-2.99461e-05
-2.52124e-05
-1.41409e-05
-2.53298e-06
3.85841e-06
4.23665e-06
1.77289e-06
6.84714e-08
2.45432e-07
2.07618e-06
5.81206e-06
1.14611e-05
1.87714e-05
2.87791e-05
4.25066e-05
5.41559e-05
5.72031e-05
5.49596e-05
5.34796e-05
5.58195e-05
6.0882e-05
6.81223e-05
7.47819e-05
7.85995e-05
7.84573e-05
7.49503e-05
7.06411e-05
6.89532e-05
7.04439e-05
6.82146e-05
6.74894e-05
6.18358e-05
5.41057e-05
4.56674e-05
3.69315e-05
2.80919e-05
1.79796e-05
4.77485e-06
-9.37767e-06
-2.05042e-05
-2.43996e-05
-2.08809e-05
-1.33027e-05
-5.40198e-06
-2.51572e-07
2.21432e-06
3.61529e-06
4.70187e-06
6.85716e-06
9.40688e-06
1.31692e-05
1.8773e-05
2.58918e-05
3.49744e-05
4.66494e-05
5.73461e-05
6.04662e-05
5.67081e-05
5.27872e-05
5.27215e-05
5.5731e-05
6.10433e-05
6.79349e-05
7.27815e-05
7.35957e-05
6.9754e-05
6.54289e-05
6.3839e-05
6.55137e-05
5.34684e-05
5.18115e-05
4.59457e-05
3.8325e-05
3.07348e-05
2.33837e-05
1.6762e-05
1.00152e-05
9.03311e-07
-9.53658e-06
-1.85124e-05
-2.42561e-05
-2.43536e-05
-2.02245e-05
-1.42885e-05
-9.61824e-06
-6.93061e-06
-5.03705e-06
-2.82848e-06
-3.7604e-07
2.1047e-06
5.26077e-06
1.18252e-05
2.24772e-05
3.44653e-05
4.54365e-05
5.31558e-05
5.39615e-05
4.84908e-05
4.18037e-05
4.0129e-05
4.3805e-05
5.01291e-05
5.8077e-05
6.37366e-05
6.2617e-05
5.74453e-05
5.30307e-05
5.14686e-05
5.21743e-05
4.08238e-05
4.19765e-05
3.82487e-05
3.13286e-05
2.22972e-05
1.31926e-05
4.99632e-06
-2.73884e-06
-1.15516e-05
-2.06685e-05
-2.8426e-05
-3.20967e-05
-3.21126e-05
-2.99598e-05
-2.65189e-05
-2.30423e-05
-2.00025e-05
-1.6651e-05
-1.27065e-05
-9.29728e-06
-6.69582e-06
-3.41752e-06
3.10163e-06
1.49184e-05
2.95667e-05
4.19671e-05
4.86495e-05
4.72774e-05
3.74117e-05
2.59919e-05
2.08529e-05
2.43487e-05
3.17772e-05
3.98753e-05
4.48259e-05
4.3507e-05
3.81587e-05
3.39732e-05
3.31653e-05
3.66518e-05
4.07781e-05
4.50508e-05
4.35588e-05
3.77389e-05
2.99725e-05
2.18976e-05
1.40007e-05
6.40027e-06
-2.48493e-06
-1.34066e-05
-2.3745e-05
-3.03341e-05
-3.2796e-05
-3.23014e-05
-3.08871e-05
-2.88566e-05
-2.63578e-05
-2.27089e-05
-1.81772e-05
-1.38201e-05
-9.33271e-06
-4.25504e-06
3.13506e-06
1.52662e-05
3.06563e-05
4.46555e-05
5.28745e-05
5.20696e-05
4.08339e-05
2.5404e-05
1.54193e-05
1.59344e-05
2.30856e-05
3.10228e-05
3.53389e-05
3.16058e-05
2.47899e-05
2.12989e-05
2.40066e-05
3.2199e-05
3.46615e-05
3.85626e-05
3.80776e-05
3.41735e-05
2.81831e-05
2.12762e-05
1.47643e-05
8.78201e-06
2.67786e-06
-4.89297e-06
-1.3053e-05
-2.03735e-05
-2.52287e-05
-2.7227e-05
-2.70384e-05
-2.42108e-05
-1.98669e-05
-1.42617e-05
-8.80347e-06
-3.80451e-06
1.74683e-06
8.2866e-06
1.55584e-05
2.41881e-05
3.45715e-05
4.47523e-05
5.15386e-05
5.24762e-05
4.58054e-05
3.35038e-05
2.36472e-05
2.25227e-05
2.79631e-05
3.48619e-05
3.86946e-05
3.66832e-05
2.96013e-05
2.36911e-05
2.34544e-05
2.82834e-05
2.44579e-05
2.4606e-05
2.26865e-05
1.95745e-05
1.54698e-05
1.15646e-05
7.86989e-06
3.49252e-06
-1.67291e-06
-7.86671e-06
-1.49401e-05
-2.09503e-05
-2.37866e-05
-2.34549e-05
-2.06454e-05
-1.59719e-05
-9.87911e-06
-3.24173e-06
2.52597e-06
6.55279e-06
1.01636e-05
1.44035e-05
1.94491e-05
2.59429e-05
3.39687e-05
4.16541e-05
4.61395e-05
4.59595e-05
4.01906e-05
2.89999e-05
1.71536e-05
1.14413e-05
1.33047e-05
1.87929e-05
2.40897e-05
2.58838e-05
2.43005e-05
2.15057e-05
2.06727e-05
2.23415e-05
1.48023e-05
1.17539e-05
7.74506e-06
4.06609e-06
1.33365e-06
-4.18418e-07
-2.54421e-06
-5.64332e-06
-9.08971e-06
-1.40531e-05
-2.02725e-05
-2.50964e-05
-2.70167e-05
-2.5767e-05
-2.17127e-05
-1.56338e-05
-7.28508e-06
2.57267e-06
1.23427e-05
1.99691e-05
2.47899e-05
2.83212e-05
3.0995e-05
3.25474e-05
3.4664e-05
3.79254e-05
3.99816e-05
3.76092e-05
3.01874e-05
1.76106e-05
3.47082e-06
-4.84097e-06
-4.16668e-06
2.22296e-06
9.61073e-06
1.61647e-05
2.0217e-05
2.05683e-05
1.90477e-05
1.69571e-05
2.25251e-05
5.75825e-09
-8.88763e-06
-1.12541e-05
-1.36047e-05
-1.94317e-05
-3.01308e-05
-4.38434e-05
-5.47005e-05
-5.60971e-05
-4.69199e-05
-3.2455e-05
-1.87304e-05
-8.17962e-06
-3.13777e-08
6.54331e-06
1.08474e-05
1.12946e-05
6.05867e-06
-4.27165e-06
-1.48289e-05
-1.98281e-05
-1.77701e-05
-1.09108e-05
-1.20084e-06
1.13802e-05
2.95211e-05
5.63574e-05
9.22024e-05
0.000130728
0.000159827
0.00017313
0.0001758
0.00017505
0.000172744
0.000168505
0.000159653
0.000139198
0.000103386
5.98647e-05
2.3654e-05
8.13982e-07
-8.3687e-06
-1.09021e-05
-1.3344e-05
-1.92406e-05
-3.00834e-05
-4.40347e-05
-5.51793e-05
-5.67975e-05
-4.77065e-05
-3.32515e-05
-1.95154e-05
-8.95168e-06
-7.68565e-07
5.88442e-06
1.0313e-05
1.08988e-05
5.76253e-06
-4.56706e-06
-1.52797e-05
-2.058e-05
-1.89093e-05
-1.2476e-05
-3.19197e-06
9.03658e-06
2.68899e-05
5.35014e-05
8.92237e-05
0.00012783
0.000157254
0.000170995
0.000174074
0.000173724
0.000171836
0.000168064
0.000159805
0.000139991
0.000104642
6.12094e-05
2.42931e-05
1.04509e-06
-8.40995e-06
-1.1068e-05
-1.36509e-05
-1.97195e-05
-3.08512e-05
-4.5199e-05
-5.67359e-05
-5.85419e-05
-4.93835e-05
-3.47428e-05
-2.08708e-05
-1.02458e-05
-1.98824e-06
4.81554e-06
9.46578e-06
1.02947e-05
5.34934e-06
-4.92964e-06
-1.5776e-05
-2.13394e-05
-1.9982e-05
-1.38972e-05
-4.99899e-06
6.91028e-06
2.45093e-05
5.09102e-05
8.65051e-05
0.000125149
0.000154823
0.000168893
0.000172336
0.000172375
0.000170936
0.000167699
0.000160093
0.000140909
0.000105874
6.22889e-05
2.39991e-05
3.10459e-07
-9.35485e-06
-1.21748e-05
-1.50737e-05
-2.15629e-05
-3.31788e-05
-4.79928e-05
-5.98561e-05
-6.16509e-05
-5.21299e-05
-3.70171e-05
-2.28241e-05
-1.2055e-05
-3.6766e-06
3.35001e-06
8.3165e-06
9.50786e-06
4.87646e-06
-5.22087e-06
-1.60491e-05
-2.17001e-05
-2.0456e-05
-1.45237e-05
-5.90773e-06
5.71878e-06
2.30581e-05
4.92705e-05
8.46968e-05
0.000123265
0.00015296
0.000167009
0.000170549
0.000170903
0.000169927
0.000167309
0.000160402
0.000141738
0.000106727
6.26474e-05
2.24795e-05
-1.59385e-06
-1.13708e-05
-1.43862e-05
-1.79076e-05
-2.50942e-05
-3.73756e-05
-5.25474e-05
-6.44181e-05
-6.59012e-05
-5.57557e-05
-3.99056e-05
-2.51724e-05
-1.41561e-05
-5.6367e-06
1.61972e-06
6.92229e-06
8.50568e-06
4.27135e-06
-5.51655e-06
-1.61727e-05
-2.17575e-05
-2.04933e-05
-1.46044e-05
-6.25735e-06
5.0533e-06
2.20574e-05
4.79005e-05
8.30283e-05
0.00012152
0.000151258
0.000165103
0.000168397
0.000168931
0.000168442
0.000166558
0.000160485
0.000142274
0.000106996
6.20083e-05
1.99828e-05
-4.54061e-06
-1.44149e-05
-1.77585e-05
-2.21995e-05
-3.06038e-05
-4.36217e-05
-5.89865e-05
-7.02824e-05
-7.08265e-05
-5.97244e-05
-4.29607e-05
-2.74763e-05
-1.60405e-05
-7.34051e-06
8.75711e-08
5.64657e-06
7.55933e-06
3.65576e-06
-5.91008e-06
-1.65118e-05
-2.2231e-05
-2.1287e-05
-1.5965e-05
-8.48898e-06
1.94594e-06
1.8185e-05
4.33189e-05
7.80626e-05
0.000116891
0.000147525
0.000161891
0.000165218
0.000165894
0.000165968
0.00016503
0.000160087
0.000142557
0.00010687
6.06151e-05
1.84116e-05
-6.54717e-06
-1.64706e-05
-2.03702e-05
-2.64558e-05
-3.69815e-05
-5.16099e-05
-6.74793e-05
-7.79648e-05
-7.67533e-05
-6.39435e-05
-4.58833e-05
-2.93842e-05
-1.72239e-05
-8.16173e-06
-5.93672e-07
5.06443e-06
7.14438e-06
3.33294e-06
-6.5358e-06
-1.79497e-05
-2.47781e-05
-2.51565e-05
-2.15525e-05
-1.62767e-05
-8.01672e-06
6.59379e-06
3.07598e-05
6.53597e-05
0.000105449
0.000138457
0.000154849
0.000159049
0.000160209
0.000161015
0.000161527
0.000158577
0.000142715
0.000107475
6.02587e-05
2.15997e-05
-3.83612e-06
-1.41326e-05
-1.87513e-05
-2.67815e-05
-4.03246e-05
-5.8181e-05
-7.61057e-05
-8.71501e-05
-8.50265e-05
-7.02991e-05
-5.01341e-05
-3.18143e-05
-1.82626e-05
-8.41124e-06
-5.14764e-07
5.30951e-06
7.53557e-06
3.608e-06
-7.3e-06
-2.09181e-05
-3.04539e-05
-3.3378e-05
-3.24218e-05
-3.01851e-05
-2.49134e-05
-1.25994e-05
1.05416e-05
4.55782e-05
8.73826e-05
0.000123356
0.000142795
0.000148552
0.000150239
0.000151839
0.000154012
0.000154186
0.000142146
0.000109899
6.38056e-05
3.24271e-05
6.71291e-06
-4.77698e-06
-1.10499e-05
-2.12877e-05
-3.81025e-05
-5.99011e-05
-8.16814e-05
-9.54372e-05
-9.44143e-05
-7.92249e-05
-5.71386e-05
-3.64622e-05
-2.08199e-05
-9.58438e-06
-1.11142e-06
4.98165e-06
7.54171e-06
3.78653e-06
-8.00286e-06
-2.41882e-05
-3.71028e-05
-4.28339e-05
-4.39158e-05
-4.38822e-05
-4.104e-05
-3.0844e-05
-8.80159e-06
2.64757e-05
6.92892e-05
0.000106305
0.000127029
0.000134028
0.000136194
0.000138473
0.000142463
0.000146682
0.000140654
0.000114561
7.29163e-05
4.87861e-05
2.28792e-05
1.00011e-05
1.46209e-06
-1.10507e-05
-3.03141e-05
-5.55251e-05
-8.22693e-05
-0.00010092
-0.000103364
-8.96476e-05
-6.65836e-05
-4.37904e-05
-2.60846e-05
-1.3484e-05
-4.23562e-06
2.37578e-06
5.34366e-06
1.99044e-06
-9.53051e-06
-2.64235e-05
-4.11035e-05
-4.86237e-05
-5.06786e-05
-5.15677e-05
-5.02891e-05
-4.19604e-05
-2.14994e-05
1.30974e-05
5.55458e-05
9.16705e-05
0.000111389
0.000118243
0.000120894
0.000124258
0.000130493
0.000139258
0.000140876
0.000122488
8.64997e-05
6.89684e-05
4.10183e-05
2.5062e-05
1.42354e-05
5.33194e-07
-1.90239e-05
-4.53685e-05
-7.59519e-05
-0.000100781
-0.000108758
-9.8862e-05
-7.68896e-05
-5.27931e-05
-3.34701e-05
-2.02499e-05
-1.0819e-05
-3.68449e-06
-4.30617e-10
-2.71109e-06
-1.32843e-05
-2.90023e-05
-4.29923e-05
-4.98337e-05
-5.07322e-05
-5.08722e-05
-5.00065e-05
-4.3244e-05
-2.54666e-05
6.28141e-06
4.63472e-05
8.00853e-05
9.83937e-05
0.000104759
0.000108262
0.000113674
0.000122749
0.000136141
0.000145921
0.000136162
0.000105605
8.90995e-05
5.88565e-05
3.88087e-05
2.45078e-05
9.99013e-06
-7.5684e-06
-3.2012e-05
-6.38004e-05
-9.3677e-05
-0.000109044
-0.000105174
-8.63511e-05
-6.25229e-05
-4.2058e-05
-2.87923e-05
-2.01136e-05
-1.29748e-05
-8.67293e-06
-1.07534e-05
-2.06144e-05
-3.44069e-05
-4.57758e-05
-5.00484e-05
-4.80833e-05
-4.5374e-05
-4.36133e-05
-3.81443e-05
-2.3831e-05
3.23974e-06
3.93298e-05
7.04237e-05
8.79958e-05
9.48302e-05
9.85211e-05
0.000105296
0.000116756
0.000133608
0.000149707
0.000148455
0.000124201
0.000104503
7.3964e-05
5.06557e-05
3.3334e-05
1.81658e-05
2.39645e-06
-1.88225e-05
-4.94366e-05
-8.26816e-05
-0.000104116
-0.000106733
-9.33367e-05
-7.11082e-05
-4.99774e-05
-3.62309e-05
-2.86774e-05
-2.2637e-05
-1.84459e-05
-2.05965e-05
-3.038e-05
-4.28005e-05
-5.17569e-05
-5.37633e-05
-4.91446e-05
-4.24255e-05
-3.67508e-05
-3.06749e-05
-1.92543e-05
2.51752e-06
3.32385e-05
6.11825e-05
7.95151e-05
8.85826e-05
9.32293e-05
9.98954e-05
0.000111434
0.000128284
0.000146831
0.000152193
0.000135535
0.000111877
8.44776e-05
6.09247e-05
4.2436e-05
2.69045e-05
1.21635e-05
-6.29687e-06
-3.43803e-05
-6.85407e-05
-9.40748e-05
-0.000102065
-9.39887e-05
-7.53683e-05
-5.44881e-05
-3.97794e-05
-3.2229e-05
-2.73312e-05
-2.35803e-05
-2.46462e-05
-3.21219e-05
-4.23343e-05
-5.00414e-05
-5.18823e-05
-4.64976e-05
-3.63809e-05
-2.63945e-05
-1.84522e-05
-8.65649e-06
8.30276e-06
3.22608e-05
5.48722e-05
7.22572e-05
8.32996e-05
9.0291e-05
9.65186e-05
0.000105883
0.000119656
0.000136213
0.000144815
0.000135788
0.000110376
8.89836e-05
6.91003e-05
5.15176e-05
3.56093e-05
2.04389e-05
3.31201e-06
-2.16569e-05
-5.44157e-05
-8.09939e-05
-9.19678e-05
-8.7733e-05
-7.33128e-05
-5.39953e-05
-3.72482e-05
-2.82953e-05
-2.46435e-05
-2.23516e-05
-2.21547e-05
-2.58385e-05
-3.26762e-05
-3.85713e-05
-4.03646e-05
-3.59019e-05
-2.51952e-05
-1.29931e-05
-2.9755e-06
5.80921e-06
1.88485e-05
3.58072e-05
5.23424e-05
6.68755e-05
7.87036e-05
8.72767e-05
9.29989e-05
9.98162e-05
0.000108833
0.00012014
0.000128664
0.0001259
0.00010963
9.5661e-05
7.94505e-05
6.27235e-05
4.52178e-05
2.80027e-05
1.06136e-05
-1.18462e-05
-4.11281e-05
-6.62203e-05
-7.80533e-05
-7.67401e-05
-6.59874e-05
-4.96592e-05
-3.30304e-05
-2.27449e-05
-1.97211e-05
-2.04083e-05
-2.1428e-05
-2.29851e-05
-2.63203e-05
-2.95763e-05
-3.02957e-05
-2.59899e-05
-1.55648e-05
-1.37908e-06
1.11125e-05
1.98026e-05
2.90898e-05
4.03671e-05
5.14266e-05
6.27033e-05
7.48741e-05
8.49661e-05
9.12683e-05
9.65615e-05
0.000102565
0.000109138
0.00011513
0.000116476
0.000109074
0.000101319
8.86881e-05
7.27598e-05
5.40451e-05
3.48364e-05
1.68437e-05
-3.81411e-06
-2.86373e-05
-5.12621e-05
-6.36423e-05
-6.35306e-05
-5.6023e-05
-4.38856e-05
-2.98582e-05
-1.9221e-05
-1.44946e-05
-1.39628e-05
-1.50822e-05
-1.60282e-05
-1.70902e-05
-1.78983e-05
-1.74702e-05
-1.34376e-05
-4.34017e-06
9.64384e-06
2.31379e-05
3.17434e-05
3.72262e-05
4.42954e-05
5.2436e-05
6.17678e-05
7.35347e-05
8.45007e-05
9.18021e-05
9.58139e-05
9.87183e-05
0.00010195
0.000106037
0.000109691
0.000103157
0.000100524
9.12064e-05
7.76232e-05
6.06783e-05
4.2117e-05
2.42065e-05
5.97434e-06
-1.40043e-05
-3.10409e-05
-4.04395e-05
-4.25936e-05
-3.97976e-05
-3.4027e-05
-2.59616e-05
-1.80268e-05
-1.26053e-05
-9.70587e-06
-7.74877e-06
-6.5393e-06
-6.6262e-06
-7.81805e-06
-7.31341e-06
-3.38927e-06
4.79141e-06
1.77181e-05
3.14245e-05
4.00052e-05
4.34608e-05
4.71933e-05
5.37664e-05
6.2456e-05
7.2884e-05
8.33637e-05
9.07691e-05
9.42736e-05
9.50058e-05
9.4845e-05
9.63756e-05
0.000100231
8.77186e-05
8.81109e-05
8.29601e-05
7.37931e-05
6.13203e-05
4.66375e-05
3.21154e-05
1.7935e-05
2.42216e-06
-1.22241e-05
-2.15778e-05
-2.24991e-05
-1.9847e-05
-1.87015e-05
-1.77801e-05
-1.55441e-05
-1.22025e-05
-8.61863e-06
-5.44072e-06
-3.73163e-06
-3.38415e-06
-2.89474e-06
-5.66202e-07
5.02518e-06
1.32778e-05
2.42833e-05
3.71426e-05
4.59552e-05
4.84858e-05
4.92752e-05
5.30492e-05
6.01028e-05
6.85235e-05
7.7085e-05
8.28074e-05
8.4468e-05
8.38502e-05
8.22421e-05
8.16052e-05
8.39199e-05
7.13025e-05
7.08269e-05
6.59369e-05
5.82854e-05
4.92789e-05
3.94119e-05
2.88539e-05
1.79044e-05
6.36316e-06
-4.92965e-06
-1.38656e-05
-1.8849e-05
-2.03599e-05
-2.00851e-05
-1.85101e-05
-1.66614e-05
-1.46328e-05
-1.17472e-05
-8.63044e-06
-6.29324e-06
-6.47236e-06
-7.46711e-06
-4.73112e-06
3.14019e-06
1.41601e-05
2.53967e-05
3.48827e-05
4.16501e-05
4.35996e-05
4.30347e-05
4.54238e-05
5.23683e-05
6.09375e-05
6.83035e-05
7.22428e-05
7.19021e-05
6.96521e-05
6.78519e-05
6.76413e-05
6.91477e-05
6.08622e-05
6.15509e-05
5.75933e-05
5.03059e-05
4.16326e-05
3.16845e-05
2.18059e-05
1.15431e-05
-1.35371e-08
-1.13669e-05
-2.06332e-05
-2.64011e-05
-3.03783e-05
-3.23427e-05
-3.27408e-05
-3.17733e-05
-2.95803e-05
-2.61877e-05
-2.22956e-05
-1.89931e-05
-1.69385e-05
-1.51623e-05
-1.0654e-05
-1.24946e-06
1.12972e-05
2.3195e-05
3.18485e-05
3.6428e-05
3.6779e-05
3.54604e-05
3.74357e-05
4.39137e-05
5.18261e-05
5.73943e-05
5.89822e-05
5.68704e-05
5.4112e-05
5.30624e-05
5.47841e-05
5.76536e-05
5.85484e-05
6.10914e-05
5.92637e-05
5.36279e-05
4.5805e-05
3.69347e-05
2.87445e-05
2.03113e-05
1.03771e-05
-2.03424e-06
-1.38307e-05
-2.37132e-05
-3.12905e-05
-3.69448e-05
-4.0495e-05
-4.2569e-05
-4.25226e-05
-4.00566e-05
-3.62164e-05
-3.22192e-05
-2.80847e-05
-2.35658e-05
-1.7711e-05
-7.77005e-06
6.10246e-06
2.09153e-05
3.32363e-05
3.96808e-05
3.92911e-05
3.46671e-05
3.26131e-05
3.66479e-05
4.40834e-05
4.99618e-05
5.15387e-05
4.84913e-05
4.41848e-05
4.34648e-05
4.73351e-05
5.31507e-05
4.65788e-05
4.95509e-05
4.91989e-05
4.58898e-05
4.00079e-05
3.27918e-05
2.57854e-05
1.93962e-05
1.30435e-05
6.33941e-06
-7.85244e-07
-7.5332e-06
-1.34543e-05
-1.83337e-05
-2.26254e-05
-2.56394e-05
-2.62899e-05
-2.43178e-05
-2.08998e-05
-1.71843e-05
-1.30584e-05
-8.54264e-06
-3.92151e-06
1.72143e-06
1.0226e-05
2.01971e-05
2.88056e-05
3.35233e-05
3.23623e-05
2.69662e-05
2.3052e-05
2.52981e-05
3.25945e-05
3.98021e-05
4.34138e-05
4.26795e-05
3.93713e-05
3.70956e-05
3.78597e-05
4.19726e-05
3.48301e-05
3.57227e-05
3.42256e-05
3.07324e-05
2.59087e-05
2.09218e-05
1.64453e-05
1.2265e-05
7.49946e-06
1.27895e-06
-6.18014e-06
-1.28574e-05
-1.69453e-05
-1.83975e-05
-1.81625e-05
-1.67315e-05
-1.39093e-05
-9.94939e-06
-5.59586e-06
-2.0954e-06
6.76714e-07
4.10184e-06
8.27721e-06
1.34725e-05
1.99831e-05
2.73555e-05
3.28012e-05
3.44897e-05
3.16227e-05
2.47312e-05
1.74068e-05
1.46914e-05
1.7761e-05
2.31921e-05
2.77532e-05
2.98386e-05
2.95675e-05
2.85838e-05
2.91232e-05
3.18042e-05
2.40404e-05
2.02591e-05
1.55897e-05
1.05381e-05
6.51664e-06
3.84774e-06
1.59247e-06
-1.39042e-06
-4.91889e-06
-9.93564e-06
-1.60231e-05
-2.0875e-05
-2.30992e-05
-2.25634e-05
-2.00116e-05
-1.55174e-05
-8.59452e-06
1.73515e-07
9.08141e-06
1.60697e-05
2.01559e-05
2.23638e-05
2.39533e-05
2.56457e-05
2.86858e-05
3.30695e-05
3.6569e-05
3.63263e-05
3.10719e-05
2.2205e-05
1.2822e-05
7.1598e-06
7.81772e-06
1.26332e-05
1.86804e-05
2.38212e-05
2.70075e-05
2.80139e-05
2.7638e-05
2.64428e-05
7.46981e-05
4.44128e-05
1.84327e-05
-1.41241e-06
-1.2441e-05
-1.69434e-05
-2.08282e-05
-2.80826e-05
-3.70522e-05
-4.30775e-05
-4.35997e-05
-4.04931e-05
-3.66919e-05
-3.31694e-05
-2.8911e-05
-2.27416e-05
-1.48135e-05
-7.42328e-06
-3.90322e-06
-5.05599e-06
-7.35961e-06
-6.21278e-06
-3.47208e-07
7.54442e-06
1.46463e-05
2.23203e-05
3.44545e-05
5.4521e-05
8.39607e-05
0.000120516
0.000157684
0.000188036
0.000208117
0.000217866
0.000217999
0.000209884
0.000195025
0.000173307
0.000144177
0.000109359
7.59766e-05
4.59348e-05
2.00624e-05
1.62593e-07
-1.10174e-05
-1.57099e-05
-1.97843e-05
-2.72567e-05
-3.64713e-05
-4.27294e-05
-4.34181e-05
-4.04081e-05
-3.6673e-05
-3.32252e-05
-2.90762e-05
-2.30232e-05
-1.52261e-05
-7.96148e-06
-4.54257e-06
-5.7895e-06
-8.17937e-06
-7.10308e-06
-1.27566e-06
6.55207e-06
1.35207e-05
2.09642e-05
3.27438e-05
5.2334e-05
8.12712e-05
0.000117378
0.00015432
0.000184744
0.000205109
0.00021522
0.000215808
0.000208253
0.000194036
0.00017302
0.000144571
0.000110285
7.74232e-05
4.74308e-05
2.13665e-05
9.91616e-07
-1.06244e-05
-1.56299e-05
-1.98684e-05
-2.7472e-05
-3.68514e-05
-4.32608e-05
-4.40165e-05
-4.10128e-05
-3.73104e-05
-3.39032e-05
-2.97725e-05
-2.37446e-05
-1.59465e-05
-8.65671e-06
-5.21753e-06
-6.49874e-06
-8.97437e-06
-7.9863e-06
-2.176e-06
5.65003e-06
1.2537e-05
1.97962e-05
3.12318e-05
5.02945e-05
7.85971e-05
0.000114113
0.000150794
0.000181437
0.00020231
0.000213015
0.000214218
0.000207274
0.000193653
0.000173234
0.000145373
0.000111516
7.8917e-05
4.87146e-05
2.19994e-05
6.03042e-07
-1.19779e-05
-1.75829e-05
-2.20032e-05
-2.96035e-05
-3.89394e-05
-4.53014e-05
-4.5953e-05
-4.28457e-05
-3.91062e-05
-3.56927e-05
-3.15097e-05
-2.53342e-05
-1.72842e-05
-9.68815e-06
-6.01352e-06
-7.17564e-06
-9.6149e-06
-8.61159e-06
-2.71148e-06
5.23777e-06
1.21223e-05
1.92482e-05
3.03896e-05
4.90008e-05
7.668e-05
0.000111552
0.000147895
0.000178782
0.000200329
0.000211823
0.000213766
0.000207467
0.000194325
0.000174242
0.000146687
0.000113027
8.05453e-05
4.99358e-05
2.2247e-05
-8.54905e-07
-1.514e-05
-2.18735e-05
-2.66327e-05
-3.4054e-05
-4.30293e-05
-4.90599e-05
-4.94517e-05
-4.61804e-05
-4.23848e-05
-3.89584e-05
-3.47519e-05
-2.82796e-05
-1.97065e-05
-1.1481e-05
-7.36663e-06
-8.26106e-06
-1.04801e-05
-9.25596e-06
-3.05633e-06
5.21265e-06
1.22272e-05
1.9218e-05
3.00744e-05
4.83203e-05
7.55489e-05
0.000109917
0.000145915
0.000176958
0.000199253
0.000211673
0.000214491
0.000208936
0.000196235
0.00017621
0.00014858
0.000114847
8.26429e-05
5.15859e-05
2.27475e-05
-2.69944e-06
-1.96683e-05
-2.83233e-05
-3.38082e-05
-4.09043e-05
-4.90438e-05
-5.43204e-05
-5.43109e-05
-5.08999e-05
-4.71185e-05
-4.38181e-05
-3.95039e-05
-3.26236e-05
-2.33011e-05
-1.42353e-05
-9.52032e-06
-1.01405e-05
-1.22411e-05
-1.09445e-05
-4.48914e-06
4.28717e-06
1.16438e-05
1.84823e-05
2.8853e-05
4.66e-05
7.35533e-05
0.000107954
0.000144099
0.000175481
0.000198636
0.000212192
0.000216099
0.000211554
0.000199491
0.000179442
0.000151406
0.00011732
8.60206e-05
5.44029e-05
2.45127e-05
-3.71958e-06
-2.45155e-05
-3.62877e-05
-4.32899e-05
-5.01257e-05
-5.68062e-05
-6.0535e-05
-5.97423e-05
-5.61673e-05
-5.2515e-05
-4.94048e-05
-4.50998e-05
-3.77683e-05
-2.75781e-05
-1.75159e-05
-1.20607e-05
-1.24915e-05
-1.49817e-05
-1.45339e-05
-8.9103e-06
-5.17364e-07
6.71907e-06
1.30964e-05
2.26086e-05
3.94752e-05
6.61683e-05
0.000101544
0.000138987
0.000171519
0.000196057
0.00021143
0.000217126
0.000214331
0.000203759
0.000184194
0.000155774
0.000121197
9.16177e-05
5.93208e-05
2.84179e-05
-2.36266e-06
-2.76788e-05
-4.40634e-05
-5.40313e-05
-6.16228e-05
-6.67512e-05
-6.79791e-05
-6.55444e-05
-6.1362e-05
-5.76013e-05
-5.46105e-05
-5.04957e-05
-4.28413e-05
-3.19491e-05
-2.10942e-05
-1.50327e-05
-1.53799e-05
-1.87209e-05
-2.02175e-05
-1.69778e-05
-1.05271e-05
-4.74366e-06
2.23018e-07
8.27563e-06
2.39505e-05
5.00869e-05
8.6596e-05
0.000126195
0.000160749
0.000187134
0.000205061
0.000213913
0.000214428
0.000206917
0.000189565
0.000162079
0.000127357
9.98111e-05
6.66894e-05
3.48548e-05
2.09869e-06
-2.69079e-05
-4.82844e-05
-6.27721e-05
-7.32997e-05
-7.87578e-05
-7.83744e-05
-7.42644e-05
-6.91556e-05
-6.50342e-05
-6.1705e-05
-5.73028e-05
-4.94704e-05
-3.81511e-05
-2.69148e-05
-2.06848e-05
-2.133e-05
-2.59518e-05
-2.98446e-05
-2.92741e-05
-2.49572e-05
-2.0852e-05
-1.74642e-05
-1.06319e-05
4.25954e-06
3.01147e-05
6.65588e-05
0.000106407
0.000141873
0.000169435
0.000189613
0.000202428
0.000208208
0.000205904
0.000192792
0.00016845
0.000135538