/*--------------------------------*- C++ -*----------------------------------*\
| =========                 |                                                 |
| \\      /  F ield         | OpenFOAM: The Open Source CFD Toolbox           |
|  \\    /   O peration     | Version:  2306                                  |
|   \\  /    A nd           | Website:  www.openfoam.com                      |
|    \\/     M anipulation  |                                                 |
\*---------------------------------------------------------------------------*/
FoamFile
{
    version     2.0;
    format      ascii;
    arch        "LSB;label=32;scalar=64";
    class       volScalarField;
    location    "5";
    object      nut;
}
// * * * * * * * * * * * * * * * * * * * * * * * * * * * * * * * * * * * * * //

dimensions      [0 2 -1 0 0 0 0];

internalField   nonuniform List<scalar> 
60000
(
8.17628e-05
8.77289e-05
9.17115e-05
9.25676e-05
9.02632e-05
8.66349e-05
8.35468e-05
8.12345e-05
7.92577e-05
7.69898e-05
7.32762e-05
6.73977e-05
6.05862e-05
5.51177e-05
5.23729e-05
5.1985e-05
5.26725e-05
5.34276e-05
5.43684e-05
5.62366e-05
5.90418e-05
6.20879e-05
6.51068e-05
6.8642e-05
7.3246e-05
7.87709e-05
8.37069e-05
8.58303e-05
8.40211e-05
7.88434e-05
7.19182e-05
6.56132e-05
6.12174e-05
5.84844e-05
5.73793e-05
5.80346e-05
6.01886e-05
6.36767e-05
6.86464e-05
7.49817e-05
8.09319e-05
8.71262e-05
9.22373e-05
9.47849e-05
9.35352e-05
8.96855e-05
8.59303e-05
8.34554e-05
8.1744e-05
7.98418e-05
7.66999e-05
7.17461e-05
6.5717e-05
6.00738e-05
5.60768e-05
5.39869e-05
5.30911e-05
5.28595e-05
5.35003e-05
5.52005e-05
5.76832e-05
6.06244e-05
6.4146e-05
6.8733e-05
7.43572e-05
8.04184e-05
8.55465e-05
8.79518e-05
8.6571e-05
8.19218e-05
7.60334e-05
7.07323e-05
6.60057e-05
6.15843e-05
5.83257e-05
5.74092e-05
5.89929e-05
6.25486e-05
6.77765e-05
7.4267e-05
7.56264e-05
8.25264e-05
8.94366e-05
9.47083e-05
9.56255e-05
9.19203e-05
8.70841e-05
8.39911e-05
8.25207e-05
8.14783e-05
7.98843e-05
7.69802e-05
7.24621e-05
6.65491e-05
6.03757e-05
5.55117e-05
5.2504e-05
5.10497e-05
5.09699e-05
5.20691e-05
5.40005e-05
5.65838e-05
5.99637e-05
6.45031e-05
7.01586e-05
7.65211e-05
8.26927e-05
8.70411e-05
8.79972e-05
8.55549e-05
8.13612e-05
7.69584e-05
7.21485e-05
6.63547e-05
6.03279e-05
5.62703e-05
5.56304e-05
5.80546e-05
6.26744e-05
6.88695e-05
6.57479e-05
7.29174e-05
8.13828e-05
8.99438e-05
9.45763e-05
9.24158e-05
8.66574e-05
8.2479e-05
8.10672e-05
8.10661e-05
8.13405e-05
8.09945e-05
7.90439e-05
7.43223e-05
6.67328e-05
5.84734e-05
5.21657e-05
4.8544e-05
4.70898e-05
4.71475e-05
4.81567e-05
4.98034e-05
5.21237e-05
5.5359e-05
5.98178e-05
6.56387e-05
7.27978e-05
8.01377e-05
8.534e-05
8.69728e-05
8.55638e-05
8.26467e-05
7.8766e-05
7.31883e-05
6.53239e-05
5.72099e-05
5.22115e-05
5.15065e-05
5.41702e-05
5.9197e-05
5.16215e-05
5.72234e-05
6.52537e-05
7.63715e-05
8.62971e-05
8.84559e-05
8.3158e-05
7.76814e-05
7.6014e-05
7.70129e-05
7.90114e-05
8.10043e-05
8.21684e-05
8.08739e-05
7.49105e-05
6.47226e-05
5.42274e-05
4.68385e-05
4.28661e-05
4.12061e-05
4.0784e-05
4.08466e-05
4.12337e-05
4.22794e-05
4.43999e-05
4.78187e-05
5.35543e-05
6.30293e-05
7.38731e-05
8.18301e-05
8.52248e-05
8.48181e-05
8.25759e-05
7.91386e-05
7.27084e-05
6.26681e-05
5.25552e-05
4.64016e-05
4.49172e-05
4.70597e-05
4.09292e-05
4.24163e-05
4.47247e-05
5.19447e-05
6.5663e-05
7.56553e-05
7.41635e-05
6.79403e-05
6.57489e-05
6.78778e-05
7.1376e-05
7.48007e-05
7.82786e-05
8.16582e-05
8.15059e-05
7.42483e-05
6.13698e-05
4.89364e-05
4.07974e-05
3.64689e-05
3.42233e-05
3.27326e-05
3.17656e-05
3.18818e-05
3.3268e-05
3.60484e-05
3.97824e-05
4.2116e-05
5.03626e-05
6.49671e-05
7.60161e-05
8.00609e-05
7.95095e-05
7.85305e-05
7.67619e-05
7.05544e-05
5.95998e-05
4.8266e-05
4.12215e-05
3.96807e-05
3.74944e-05
3.69895e-05
3.81371e-05
4.05437e-05
4.0778e-05
5.12376e-05
5.65869e-05
5.1056e-05
4.77797e-05
5.18199e-05
5.77306e-05
6.19395e-05
6.53461e-05
7.15488e-05
7.94816e-05
8.17878e-05
7.3184e-05
5.76874e-05
4.41199e-05
3.5916e-05
3.16733e-05
2.95908e-05
2.88627e-05
2.94317e-05
3.01464e-05
2.95818e-05
3.31763e-05
4.02351e-05
3.77929e-05
3.88135e-05
5.44972e-05
6.53808e-05
6.68519e-05
6.66975e-05
6.93522e-05
7.09213e-05
6.7243e-05
5.82287e-05
4.71212e-05
3.9432e-05
3.80847e-05
3.28656e-05
2.99865e-05
3.61324e-05
3.95994e-05
3.1991e-05
3.69521e-05
3.36744e-05
2.47042e-05
2.78345e-05
3.8478e-05
4.44965e-05
4.42116e-05
4.67569e-05
6.02507e-05
7.65849e-05
8.2083e-05
7.16423e-05
5.44681e-05
4.10173e-05
3.37074e-05
3.10576e-05
3.1387e-05
3.35533e-05
3.60256e-05
3.56322e-05
2.77764e-05
2.76066e-05
3.80842e-05
3.33363e-05
3.06515e-05
4.01011e-05
3.77173e-05
3.15819e-05
3.60464e-05
4.86888e-05
5.94587e-05
6.29721e-05
5.89196e-05
4.8196e-05
4.6575e-05
3.43012e-05
2.57083e-05
2.15296e-05
3.20911e-05
3.29895e-05
2.58726e-05
3.00437e-05
1.86794e-05
1.10365e-05
1.76231e-05
2.71056e-05
2.76342e-05
1.95713e-05
2.38084e-05
4.76261e-05
7.37562e-05
8.10283e-05
6.90683e-05
5.16703e-05
3.90341e-05
3.35958e-05
3.3905e-05
3.75784e-05
4.20822e-05
4.54479e-05
4.2334e-05
2.72433e-05
2.38132e-05
3.22067e-05
2.28085e-05
1.64164e-05
2.23656e-05
2.5802e-05
2.88077e-05
2.74505e-05
3.33941e-05
4.69358e-05
5.65096e-05
5.68642e-05
5.17435e-05
4.22191e-05
2.89358e-05
2.14592e-05
2.04297e-05
2.97386e-05
2.67696e-05
2.77732e-05
3.072e-05
1.27316e-05
1.46677e-05
1.30337e-05
1.93783e-05
1.76258e-05
9.8258e-06
1.83922e-05
4.16928e-05
7.07766e-05
7.70941e-05
6.4683e-05
4.7661e-05
3.6777e-05
3.48816e-05
3.91633e-05
4.66293e-05
5.29424e-05
5.40379e-05
4.35411e-05
2.23413e-05
2.19487e-05
2.32266e-05
1.68832e-05
2.85835e-05
2.98312e-05
2.86049e-05
3.27138e-05
3.16228e-05
3.07215e-05
3.70427e-05
4.75035e-05
4.16766e-05
4.76385e-05
3.62269e-05
2.53746e-05
2.36097e-05
2.29083e-05
2.81933e-05
2.56304e-05
2.93768e-05
2.77041e-05
5.44335e-06
1.85053e-05
9.71095e-06
1.95884e-05
1.62069e-05
1.50719e-05
2.34917e-05
3.8901e-05
6.45242e-05
6.95548e-05
5.73429e-05
4.16676e-05
3.32152e-05
3.44266e-05
4.36264e-05
5.54147e-05
6.16452e-05
5.55372e-05
3.49918e-05
1.65505e-05
2.05414e-05
1.97885e-05
2.67604e-05
2.98751e-05
2.25475e-05
1.48333e-05
1.85516e-05
2.54563e-05
2.88648e-05
2.96485e-05
2.50457e-05
4.19997e-05
4.31198e-05
3.17349e-05
2.85879e-05
2.8081e-05
2.41115e-05
2.76646e-05
2.31512e-05
2.30184e-05
1.81957e-05
4.55936e-06
1.81453e-05
1.02306e-05
1.82941e-05
1.20833e-05
2.0462e-05
2.57549e-05
3.28236e-05
5.23837e-05
5.52245e-05
4.33247e-05
2.7612e-05
2.20781e-05
3.06863e-05
4.33739e-05
5.84565e-05
6.12465e-05
4.67927e-05
2.49333e-05
1.91615e-05
1.91453e-05
2.07227e-05
2.77529e-05
3.29811e-05
3.14972e-05
2.21713e-05
1.52675e-05
2.28412e-05
2.52568e-05
1.86589e-05
2.71632e-05
4.12324e-05
3.75182e-05
3.22287e-05
3.35057e-05
2.79431e-05
2.28973e-05
2.383e-05
1.59083e-05
1.61433e-05
1.05927e-05
9.27904e-06
1.66438e-05
1.19324e-05
1.60811e-05
1.23231e-05
2.25761e-05
2.44056e-05
1.9249e-05
2.58024e-05
2.77824e-05
2.63761e-05
2.22144e-05
2.49183e-05
2.64378e-05
3.90346e-05
5.49764e-05
5.18482e-05
3.49331e-05
2.4062e-05
2.01849e-05
1.66853e-05
2.04925e-05
2.98578e-05
3.89081e-05
3.97016e-05
3.28771e-05
2.60144e-05
2.63757e-05
2.42201e-05
1.2246e-05
2.80466e-05
3.70343e-05
3.58494e-05
3.75923e-05
3.4632e-05
2.60012e-05
2.21314e-05
1.764e-05
1.19665e-05
1.29557e-05
8.26485e-06
1.33602e-05
1.46383e-05
1.30682e-05
1.66795e-05
1.51854e-05
2.56689e-05
3.2785e-05
2.43651e-05
1.17454e-05
2.40146e-05
2.94274e-05
2.31236e-05
2.14852e-05
1.96667e-05
3.796e-05
4.73192e-05
3.83739e-05
2.84324e-05
2.34587e-05
1.73583e-05
1.44353e-05
1.66384e-05
2.57352e-05
3.58667e-05
3.92627e-05
3.43996e-05
2.78638e-05
2.38501e-05
2.05521e-05
1.10595e-05
2.72439e-05
3.54262e-05
3.936e-05
3.86113e-05
3.25231e-05
2.80619e-05
2.22587e-05
1.3818e-05
1.2493e-05
1.34363e-05
1.21486e-05
1.38947e-05
1.17392e-05
1.54209e-05
2.04823e-05
2.09951e-05
2.27964e-05
2.06411e-05
1.71192e-05
2.13531e-05
2.90367e-05
2.93708e-05
2.06777e-05
1.60485e-05
2.34262e-05
3.90857e-05
3.70732e-05
2.87686e-05
2.40194e-05
1.65161e-05
1.19054e-05
1.40961e-05
1.24062e-05
1.37285e-05
2.12254e-05
2.36552e-05
2.08165e-05
2.25227e-05
2.89138e-05
2.27263e-05
1.66889e-05
2.97071e-05
3.76212e-05
3.82106e-05
3.38038e-05
3.26472e-05
2.78277e-05
1.73302e-05
1.02766e-05
1.42372e-05
1.52567e-05
1.26377e-05
1.10066e-05
1.31617e-05
1.85592e-05
2.15782e-05
1.89667e-05
1.67295e-05
2.07615e-05
2.12259e-05
2.25084e-05
2.9635e-05
2.61108e-05
1.4713e-05
1.57304e-05
3.28318e-05
3.56013e-05
2.88565e-05
2.17521e-05
1.64414e-05
2.02313e-05
2.21714e-05
1.99183e-05
1.79401e-05
1.62334e-05
1.55246e-05
1.77182e-05
2.52024e-05
2.89203e-05
3.18054e-05
2.79564e-05
2.53787e-05
2.98167e-05
3.22336e-05
2.91735e-05
3.0942e-05
3.14476e-05
2.22827e-05
1.05379e-05
7.04057e-06
1.12598e-05
1.17981e-05
1.20973e-05
1.40156e-05
1.30079e-05
1.44722e-05
1.95568e-05
2.25236e-05
2.3017e-05
1.91774e-05
1.6902e-05
2.63396e-05
3.08952e-05
1.96957e-05
4.67633e-06
2.12599e-05
3.12763e-05
3.08296e-05
2.36107e-05
1.93443e-05
2.00729e-05
1.85146e-05
1.70945e-05
1.58474e-05
1.28482e-05
1.37235e-05
2.07342e-05
2.96375e-05
2.87399e-05
2.75445e-05
2.84018e-05
3.04194e-05
3.07769e-05
2.59617e-05
2.03196e-05
2.27418e-05
2.95693e-05
2.93342e-05
2.20911e-05
1.24377e-05
6.89286e-06
8.5292e-06
1.07035e-05
1.34404e-05
1.62234e-05
2.08693e-05
2.4438e-05
2.43865e-05
2.30006e-05
1.95874e-05
1.52341e-05
2.1584e-05
3.09275e-05
2.58583e-05
8.94467e-06
1.21503e-05
2.21409e-05
2.67657e-05
2.66639e-05
2.25602e-05
1.50238e-05
1.30409e-05
2.01822e-05
2.01922e-05
1.1499e-05
1.26022e-05
2.44377e-05
2.30937e-05
2.20085e-05
2.11281e-05
2.16593e-05
2.36314e-05
2.76586e-05
2.55227e-05
1.78636e-05
1.58845e-05
1.85294e-05
2.17252e-05
2.3791e-05
2.38087e-05
2.19777e-05
1.6035e-05
7.45918e-06
1.04397e-05
2.25083e-05
3.07497e-05
2.85486e-05
1.96496e-05
2.17839e-05
2.43451e-05
1.67508e-05
1.72038e-05
3.49542e-05
3.91116e-05
2.16143e-05
1.21752e-05
2.61018e-05
3.07459e-05
3.07267e-05
3.01269e-05
3.04303e-05
2.85936e-05
2.45103e-05
2.31066e-05
2.09792e-05
1.56314e-05
1.85564e-05
2.00906e-05
2.29929e-05
2.21568e-05
1.91356e-05
1.70505e-05
1.81252e-05
1.87096e-05
1.80394e-05
1.95496e-05
1.95115e-05
1.47988e-05
1.40281e-05
1.61587e-05
1.89423e-05
2.30262e-05
2.27328e-05
1.7861e-05
1.72754e-05
2.49228e-05
2.92845e-05
2.4122e-05
2.06923e-05
2.5104e-05
2.3815e-05
1.54772e-05
1.3862e-05
2.42247e-05
2.08347e-05
7.68118e-06
2.6619e-05
3.67825e-05
4.1435e-05
4.77781e-05
5.00021e-05
4.45664e-05
3.46219e-05
2.42352e-05
1.70393e-05
1.25277e-05
1.40835e-05
2.23132e-05
2.42259e-05
2.46972e-05
2.15106e-05
1.85064e-05
1.57717e-05
1.21507e-05
1.51781e-05
1.9738e-05
1.87669e-05
1.31705e-05
1.15557e-05
1.66319e-05
1.93406e-05
1.85933e-05
1.77644e-05
1.88033e-05
1.85959e-05
1.34603e-05
6.69545e-06
7.56124e-06
1.20576e-05
2.08687e-05
2.58489e-05
2.50886e-05
1.86644e-05
9.00413e-06
1.13286e-05
6.4927e-06
2.03693e-05
3.56743e-05
4.3566e-05
4.65747e-05
4.34715e-05
3.70177e-05
3.20417e-05
2.94549e-05
2.71401e-05
2.40422e-05
2.20762e-05
2.8263e-05
2.63273e-05
2.32489e-05
1.78208e-05
1.34266e-05
1.72543e-05
2.01275e-05
2.09372e-05
2.2865e-05
2.29192e-05
1.92134e-05
1.39234e-05
9.37472e-06
6.86435e-06
9.8244e-06
1.30719e-05
1.19604e-05
1.02643e-05
1.37672e-05
1.90338e-05
1.83108e-05
1.59697e-05
2.25677e-05
3.03471e-05
3.3044e-05
2.92954e-05
2.05288e-05
1.29932e-05
1.16953e-05
1.91296e-05
3.12385e-05
3.6601e-05
3.3821e-05
2.6813e-05
2.14626e-05
2.04931e-05
2.41507e-05
2.92347e-05
3.08444e-05
2.95932e-05
1.95807e-05
1.49197e-05
1.20232e-05
1.17996e-05
1.26681e-05
1.31242e-05
1.2273e-05
1.01754e-05
1.13785e-05
1.4315e-05
1.41728e-05
1.48143e-05
1.87026e-05
2.03089e-05
1.74907e-05
1.2924e-05
1.24983e-05
1.43655e-05
1.33693e-05
1.26053e-05
1.74867e-05
1.91614e-05
1.86999e-05
2.56591e-05
3.21309e-05
3.17856e-05
2.54689e-05
1.74631e-05
1.38581e-05
1.66898e-05
2.26496e-05
2.46693e-05
2.21533e-05
1.98943e-05
1.81338e-05
1.47263e-05
1.11956e-05
1.62525e-05
2.3034e-05
2.35632e-05
1.17859e-05
1.28511e-05
1.28545e-05
1.25896e-05
1.11296e-05
9.11121e-06
8.43272e-06
9.27027e-06
1.27911e-05
1.64124e-05
1.7559e-05
2.0458e-05
2.42061e-05
2.26668e-05
1.65524e-05
1.23553e-05
1.23724e-05
1.28584e-05
1.01538e-05
6.18073e-06
1.05707e-05
1.49266e-05
1.76856e-05
1.9499e-05
1.80513e-05
1.28664e-05
8.18997e-06
8.76655e-06
1.04243e-05
1.17572e-05
1.40447e-05
1.5553e-05
1.67462e-05
1.71526e-05
1.48436e-05
1.07859e-05
8.50691e-06
9.35125e-06
1.04833e-05
1.10063e-05
7.36668e-06
1.23005e-05
1.41547e-05
1.46849e-05
1.43072e-05
1.11473e-05
8.40449e-06
9.43351e-06
1.2297e-05
1.42006e-05
1.30742e-05
9.52132e-06
8.33947e-06
9.85704e-06
9.91476e-06
9.25051e-06
1.17676e-05
1.80753e-05
2.34383e-05
2.39189e-05
2.00928e-05
1.77818e-05
1.93357e-05
2.23285e-05
2.59832e-05
2.68604e-05
2.20814e-05
1.25369e-05
3.07294e-06
6.50299e-06
1.07539e-05
1.44793e-05
1.86627e-05
2.16674e-05
2.19902e-05
1.80311e-05
1.32639e-05
1.30519e-05
1.22074e-05
7.03706e-06
6.57051e-05
7.1453e-05
7.5826e-05
7.92078e-05
8.20292e-05
8.38973e-05
8.4313e-05
8.34861e-05
8.23094e-05
8.11997e-05
7.92787e-05
7.57705e-05
7.1416e-05
6.77488e-05
6.55152e-05
6.42756e-05
6.33028e-05
6.242e-05
6.22945e-05
6.36675e-05
6.63744e-05
6.94548e-05
7.2219e-05
7.52161e-05
7.93103e-05
8.43871e-05
8.88117e-05
9.03877e-05
8.82363e-05
8.35546e-05
7.80723e-05
7.29858e-05
6.80883e-05
6.2534e-05
5.7351e-05
5.42086e-05
5.29705e-05
5.30477e-05
5.50154e-05
5.95356e-05
6.43395e-05
6.95991e-05
7.44197e-05
7.8982e-05
8.29967e-05
8.58135e-05
8.70233e-05
8.67501e-05
8.56346e-05
8.42029e-05
8.23072e-05
7.9536e-05
7.60528e-05
7.25569e-05
6.97302e-05
6.74e-05
6.51821e-05
6.34036e-05
6.28755e-05
6.38849e-05
6.59417e-05
6.84171e-05
7.11801e-05
7.4966e-05
8.03975e-05
8.67757e-05
9.18489e-05
9.36778e-05
9.20569e-05
8.78596e-05
8.237e-05
7.75827e-05
7.36053e-05
6.83889e-05
6.15598e-05
5.55406e-05
5.22819e-05
5.18953e-05
5.4288e-05
5.88376e-05
5.94735e-05
6.49631e-05
7.06122e-05
7.62435e-05
8.12612e-05
8.4996e-05
8.71482e-05
8.76765e-05
8.69194e-05
8.56522e-05
8.45036e-05
8.32233e-05
8.10466e-05
7.77511e-05
7.41414e-05
7.0685e-05
6.7246e-05
6.41629e-05
6.22958e-05
6.20066e-05
6.29199e-05
6.45522e-05
6.67978e-05
7.03318e-05
7.58657e-05
8.29506e-05
8.93727e-05
9.31304e-05
9.39634e-05
9.19033e-05
8.72913e-05
8.28139e-05
8.00938e-05
7.64607e-05
6.88786e-05
5.92088e-05
5.21821e-05
4.9565e-05
5.07247e-05
5.44217e-05
5.19784e-05
5.76659e-05
6.40675e-05
7.05933e-05
7.64705e-05
8.09276e-05
8.39022e-05
8.54144e-05
8.542e-05
8.4663e-05
8.44226e-05
8.48912e-05
8.47067e-05
8.25328e-05
7.87291e-05
7.43874e-05
6.98245e-05
6.51857e-05
6.12911e-05
5.88673e-05
5.7876e-05
5.79068e-05
5.8711e-05
6.06654e-05
6.47366e-05
7.13522e-05
7.8995e-05
8.54788e-05
9.02494e-05
9.24268e-05
9.04931e-05
8.66456e-05
8.50114e-05
8.42114e-05
7.86171e-05
6.68774e-05
5.48676e-05
4.77789e-05
4.58824e-05
4.77307e-05
4.2833e-05
4.76919e-05
5.40206e-05
6.08812e-05
6.73773e-05
7.23111e-05
7.5624e-05
7.79474e-05
7.91513e-05
7.93703e-05
7.99108e-05
8.16652e-05
8.36625e-05
8.39231e-05
8.15879e-05
7.74457e-05
7.23931e-05
6.65734e-05
6.06067e-05
5.55826e-05
5.19347e-05
4.93713e-05
4.75589e-05
4.65908e-05
4.76466e-05
5.18449e-05
5.87957e-05
6.7072e-05
7.60077e-05
8.43719e-05
8.82077e-05
8.65105e-05
8.53103e-05
8.73742e-05
8.67646e-05
7.77117e-05
6.30119e-05
5.02021e-05
4.2793e-05
4.07784e-05
3.52852e-05
3.68433e-05
4.08722e-05
4.65354e-05
5.30362e-05
5.84247e-05
6.14202e-05
6.35955e-05
6.60101e-05
6.7932e-05
6.9371e-05
7.1396e-05
7.4356e-05
7.74259e-05
7.88607e-05
7.74385e-05
7.35759e-05
6.77858e-05
6.0684e-05
5.35664e-05
4.72862e-05
4.18392e-05
3.7308e-05
3.434e-05
3.36716e-05
3.56049e-05
3.894e-05
4.25033e-05
4.95779e-05
6.28002e-05
7.54623e-05
7.94363e-05
7.85662e-05
8.18099e-05
8.71245e-05
8.57676e-05
7.50571e-05
6.04117e-05
4.7039e-05
3.80763e-05
3.42864e-05
3.02544e-05
3.00015e-05
3.15633e-05
3.56467e-05
4.09788e-05
4.34006e-05
4.29915e-05
4.45756e-05
4.86642e-05
5.19634e-05
5.34844e-05
5.48336e-05
5.84361e-05
6.4603e-05
6.96132e-05
7.0601e-05
6.73758e-05
6.09793e-05
5.31689e-05
4.54343e-05
3.84959e-05
3.30829e-05
3.00559e-05
2.90951e-05
2.87851e-05
3.04286e-05
3.08173e-05
2.85538e-05
3.30986e-05
4.97763e-05
6.26178e-05
6.37808e-05
6.5305e-05
7.41295e-05
8.21662e-05
8.19246e-05
7.42388e-05
6.19898e-05
4.62564e-05
4.44683e-05
3.05559e-05
2.68055e-05
2.62732e-05
2.60391e-05
2.63216e-05
2.94103e-05
2.79415e-05
2.30018e-05
2.38735e-05
2.96961e-05
3.26682e-05
3.05495e-05
2.85886e-05
3.46649e-05
4.76868e-05
5.86762e-05
6.29516e-05
6.04386e-05
5.34975e-05
4.53842e-05
3.86561e-05
3.47443e-05
3.47979e-05
3.81655e-05
3.88242e-05
3.35617e-05
2.90418e-05
2.35544e-05
2.0369e-05
2.53663e-05
3.97483e-05
4.2988e-05
3.64467e-05
4.15251e-05
5.80921e-05
7.19253e-05
7.79449e-05
7.73627e-05
6.54709e-05
6.40315e-05
3.88782e-05
2.7165e-05
2.69172e-05
2.88207e-05
2.52552e-05
2.0596e-05
2.3387e-05
1.89547e-05
1.08558e-05
1.20556e-05
1.67297e-05
1.87561e-05
1.18544e-05
1.00894e-05
1.75604e-05
3.50651e-05
5.12162e-05
5.75914e-05
5.41544e-05
4.56945e-05
3.86335e-05
3.53485e-05
3.57559e-05
4.02723e-05
4.60875e-05
4.38332e-05
3.46165e-05
2.65727e-05
1.79693e-05
1.86851e-05
2.19236e-05
2.52729e-05
1.45764e-05
1.59713e-05
1.88447e-05
3.48375e-05
5.77785e-05
7.56763e-05
8.07465e-05
7.92146e-05
5.63449e-05
3.23423e-05
2.47567e-05
2.8609e-05
3.23544e-05
2.50644e-05
1.77686e-05
2.13078e-05
1.36047e-05
1.16295e-05
1.78045e-05
1.70683e-05
1.64021e-05
1.19647e-05
1.94857e-05
1.65941e-05
2.77927e-05
4.68498e-05
5.28917e-05
4.63161e-05
3.71653e-05
3.18219e-05
2.92439e-05
3.15261e-05
4.01256e-05
4.63081e-05
3.93432e-05
2.99834e-05
2.18995e-05
1.52656e-05
1.58652e-05
1.59843e-05
2.02825e-05
1.81689e-05
2.71776e-05
2.39257e-05
1.97353e-05
4.74292e-05
7.55494e-05
7.56002e-05
7.04614e-05
4.56606e-05
2.54793e-05
2.22564e-05
3.00942e-05
3.36779e-05
2.38105e-05
1.63468e-05
1.79967e-05
1.16657e-05
1.99011e-05
2.32559e-05
1.6247e-05
1.49429e-05
1.83613e-05
2.84955e-05
2.12028e-05
2.21876e-05
3.96144e-05
4.25203e-05
3.41061e-05
2.56034e-05
1.95707e-05
2.0149e-05
2.94021e-05
3.96503e-05
4.02695e-05
3.02364e-05
2.32932e-05
1.44766e-05
1.07721e-05
1.6189e-05
2.50757e-05
3.0762e-05
2.07453e-05
2.33516e-05
2.95846e-05
1.92833e-05
4.61461e-05
5.21937e-05
7.05225e-05
5.67112e-05
3.48497e-05
2.08342e-05
2.22353e-05
3.01879e-05
3.0906e-05
2.12615e-05
1.745e-05
1.68681e-05
1.34799e-05
1.96443e-05
2.12451e-05
1.85447e-05
1.64716e-05
2.15221e-05
3.04089e-05
2.20007e-05
1.39359e-05
2.53667e-05
2.6323e-05
2.12291e-05
1.56721e-05
1.52562e-05
2.25983e-05
2.80799e-05
3.36937e-05
2.75157e-05
2.16221e-05
1.55122e-05
6.64911e-06
1.3021e-05
2.08289e-05
3.01769e-05
3.74969e-05
2.68539e-05
2.19481e-05
3.21752e-05
1.73892e-05
2.03264e-05
5.74694e-05
6.09572e-05
4.41592e-05
2.76471e-05
2.15263e-05
2.35896e-05
2.75991e-05
2.51156e-05
1.91586e-05
1.82396e-05
1.4751e-05
1.28729e-05
1.92851e-05
2.25897e-05
2.03044e-05
1.50456e-05
1.94743e-05
2.69778e-05
2.31845e-05
1.21343e-05
9.45614e-06
1.78379e-05
2.01491e-05
1.45586e-05
1.59137e-05
1.90772e-05
2.20963e-05
2.39513e-05
1.73471e-05
1.6802e-05
1.23275e-05
9.98069e-06
1.61708e-05
2.032e-05
2.39599e-05
3.27833e-05
2.64034e-05
2.85522e-05
2.65676e-05
1.04957e-05
3.43459e-05
5.79148e-05
5.32054e-05
3.84497e-05
2.89316e-05
2.5221e-05
2.38554e-05
2.27634e-05
1.89766e-05
1.82786e-05
1.77991e-05
1.52409e-05
1.83267e-05
2.35135e-05
2.30385e-05
1.71822e-05
9.83898e-06
1.80006e-05
2.72044e-05
2.27566e-05
1.69085e-05
2.02312e-05
2.04033e-05
1.92039e-05
1.16998e-05
1.24277e-05
1.36617e-05
2.19185e-05
1.62574e-05
1.56077e-05
1.70015e-05
1.56936e-05
1.13875e-05
1.30277e-05
1.37856e-05
1.65232e-05
2.41731e-05
2.27568e-05
2.86809e-05
2.10942e-05
1.03854e-05
4.67097e-05
6.02829e-05
5.20859e-05
4.01717e-05
3.38907e-05
2.9672e-05
2.59754e-05
2.12434e-05
1.95917e-05
2.10669e-05
2.11787e-05
2.11235e-05
2.30822e-05
2.24834e-05
1.91419e-05
1.55526e-05
1.51315e-05
1.68128e-05
1.8519e-05
2.46089e-05
2.42085e-05
1.48271e-05
1.37149e-05
1.48036e-05
1.20551e-05
1.17644e-05
2.08678e-05
2.06751e-05
1.5385e-05
1.70535e-05
1.66331e-05
1.31549e-05
1.02299e-05
9.23335e-06
1.1327e-05
1.75228e-05
1.8659e-05
2.02818e-05
2.42228e-05
1.68531e-05
2.21155e-05
5.55014e-05
6.73993e-05
6.03167e-05
4.96365e-05
4.0781e-05
3.33526e-05
2.6329e-05
2.12973e-05
2.25444e-05
2.60585e-05
2.6309e-05
2.29517e-05
2.00071e-05
1.88325e-05
1.69223e-05
1.43773e-05
1.60823e-05
2.12041e-05
2.56226e-05
2.09649e-05
9.53018e-06
1.06218e-05
1.5125e-05
1.35708e-05
1.25757e-05
1.79089e-05
2.33339e-05
1.83361e-05
1.48171e-05
1.30101e-05
1.25602e-05
1.41294e-05
1.76775e-05
1.46585e-05
1.27581e-05
2.17266e-05
2.24889e-05
2.38208e-05
2.47463e-05
1.91326e-05
2.4808e-05
5.32749e-05
6.96028e-05
6.80016e-05
5.50736e-05
3.87118e-05
2.63055e-05
1.93451e-05
1.80284e-05
2.08869e-05
2.49682e-05
2.45918e-05
2.15232e-05
2.13726e-05
1.92435e-05
1.34531e-05
1.12408e-05
1.51001e-05
1.71369e-05
1.34164e-05
9.75524e-06
1.53617e-05
2.08207e-05
2.00225e-05
1.56538e-05
1.41883e-05
1.96441e-05
2.17919e-05
1.80143e-05
1.48831e-05
1.42026e-05
1.62024e-05
1.76958e-05
1.89346e-05
1.79589e-05
2.20395e-05
2.54082e-05
2.8747e-05
2.30159e-05
2.04631e-05
2.31493e-05
2.46e-05
3.74954e-05
5.50373e-05
5.94354e-05
4.71516e-05
2.87734e-05
1.55382e-05
1.37889e-05
1.61345e-05
1.491e-05
1.40873e-05
2.09206e-05
2.60784e-05
2.41859e-05
1.92492e-05
1.83144e-05
1.72645e-05
1.15178e-05
7.51577e-06
9.64495e-06
1.61272e-05
2.60026e-05
3.09379e-05
2.57667e-05
1.74798e-05
1.62651e-05
1.96976e-05
2.33614e-05
2.42446e-05
1.99762e-05
1.53396e-05
1.55313e-05
1.60464e-05
1.90141e-05
2.65994e-05
3.07297e-05
2.46616e-05
2.02185e-05
1.47696e-05
1.51458e-05
2.3701e-05
2.56536e-05
2.03486e-05
3.61644e-05
4.84151e-05
4.30776e-05
2.95532e-05
1.61406e-05
5.70835e-06
7.32115e-06
1.22671e-05
1.4116e-05
1.75073e-05
2.55854e-05
3.32359e-05
3.39789e-05
2.64058e-05
1.69242e-05
1.47178e-05
1.58264e-05
1.50212e-05
1.63366e-05
2.4272e-05
2.75829e-05
2.15274e-05
2.03226e-05
2.46829e-05
3.03575e-05
3.48388e-05
3.324e-05
2.51566e-05
1.63272e-05
1.65161e-05
2.29257e-05
2.75735e-05
2.76335e-05
1.90851e-05
2.26502e-05
2.1746e-05
1.70563e-05
1.54296e-05
2.04423e-05
2.40955e-05
1.92808e-05
1.65978e-05
2.26148e-05
2.18967e-05
1.81872e-05
1.81984e-05
1.69463e-05
1.41009e-05
1.63036e-05
2.10401e-05
2.73751e-05
3.62333e-05
3.81873e-05
2.7707e-05
1.28958e-05
1.25148e-05
1.73308e-05
2.00157e-05
2.10561e-05
1.56277e-05
1.3071e-05
1.68354e-05
2.21108e-05
2.89491e-05
3.2135e-05
3.2555e-05
3.23797e-05
3.11877e-05
2.63239e-05
1.84247e-05
1.52818e-05
1.62705e-05
1.62291e-05
1.58086e-05
1.92437e-05
2.00678e-05
1.78594e-05
1.57974e-05
1.54126e-05
1.4329e-05
1.29773e-05
1.52619e-05
1.65904e-05
1.27297e-05
8.14478e-06
1.14702e-05
1.46019e-05
1.63121e-05
2.06785e-05
2.66214e-05
2.8746e-05
2.5859e-05
2.34074e-05
2.04704e-05
1.15822e-05
9.35842e-06
1.82275e-05
2.50894e-05
2.83521e-05
2.59466e-05
2.02553e-05
1.82422e-05
2.02287e-05
2.48698e-05
2.49202e-05
2.07562e-05
2.31509e-05
3.07721e-05
3.42114e-05
3.09684e-05
2.37258e-05
1.60871e-05
1.27059e-05
2.00288e-05
1.68936e-05
1.36525e-05
1.31779e-05
1.55431e-05
1.34865e-05
1.15689e-05
1.75786e-05
2.36764e-05
2.57546e-05
2.28746e-05
1.70015e-05
1.04423e-05
6.93751e-06
1.07733e-05
1.4304e-05
1.60452e-05
1.87674e-05
1.96361e-05
1.51155e-05
1.05379e-05
8.47863e-06
3.95646e-06
1.16645e-05
2.20482e-05
2.81646e-05
2.87535e-05
2.40933e-05
1.99187e-05
2.00405e-05
2.14419e-05
1.95598e-05
1.50642e-05
1.57734e-05
2.05707e-05
2.49522e-05
2.84248e-05
3.00367e-05
2.80049e-05
2.37723e-05
1.36575e-05
1.18415e-05
1.15704e-05
1.02044e-05
9.39351e-06
1.21364e-05
1.39185e-05
1.4552e-05
1.728e-05
2.10856e-05
2.34932e-05
2.26157e-05
2.03823e-05
2.06194e-05
2.25e-05
2.45379e-05
2.54443e-05
2.26968e-05
1.84058e-05
1.54283e-05
1.18061e-05
7.19283e-06
6.03778e-06
7.68175e-06
9.3688e-06
1.5061e-05
2.18184e-05
2.25818e-05
1.9154e-05
1.85872e-05
1.76454e-05
1.37183e-05
1.2585e-05
1.18582e-05
7.23358e-06
5.38079e-06
8.83214e-06
1.32758e-05
1.74062e-05
1.72117e-05
1.04652e-05
1.11956e-05
1.01647e-05
9.52006e-06
1.13839e-05
1.313e-05
1.22333e-05
8.99467e-06
9.00364e-06
1.32918e-05
1.45217e-05
1.36622e-05
1.5038e-05
1.51326e-05
1.21788e-05
9.5419e-06
1.07766e-05
1.47977e-05
1.67971e-05
1.47043e-05
1.20327e-05
1.14023e-05
1.17243e-05
1.66296e-05
2.32121e-05
2.55523e-05
2.37749e-05
1.99835e-05
1.50395e-05
1.13995e-05
1.19969e-05
1.50342e-05
1.76851e-05
1.76001e-05
1.39516e-05
9.67216e-06
9.65993e-06
1.15626e-05
1.17179e-05
1.04274e-05
1.15788e-05
1.70388e-05
1.84055e-05
1.74764e-05
1.68552e-05
1.89357e-05
2.19621e-05
2.3483e-05
2.40983e-05
2.43027e-05
2.20956e-05
1.65424e-05
1.12606e-05
1.24719e-05
1.43608e-05
1.22666e-05
9.6611e-06
1.33379e-05
1.76064e-05
1.84327e-05
1.78179e-05
1.72314e-05
1.56239e-05
1.93606e-05
2.75519e-05
2.96663e-05
2.44852e-05
1.97841e-05
1.74812e-05
1.60376e-05
1.81113e-05
2.32376e-05
2.68892e-05
2.51511e-05
2.08933e-05
1.65766e-05
1.0205e-05
7.02511e-06
8.08159e-06
6.78478e-06
4.81741e-05
5.24892e-05
5.73692e-05
6.19589e-05
6.58861e-05
6.88375e-05
7.03737e-05
7.06e-05
7.02702e-05
6.98684e-05
6.89748e-05
6.72471e-05
6.54817e-05
6.47339e-05
6.50642e-05
6.57678e-05
6.634e-05
6.68777e-05
6.79294e-05
6.97352e-05
7.16891e-05
7.29265e-05
7.34994e-05
7.42009e-05
7.59646e-05
7.92059e-05
8.30229e-05
8.56748e-05
8.61378e-05
8.46221e-05
8.17419e-05
7.73636e-05
7.03366e-05
6.0821e-05
5.21721e-05
4.69555e-05
4.43426e-05
4.33587e-05
4.35604e-05
4.50533e-05
4.65609e-05
5.06317e-05
5.55667e-05
6.09373e-05
6.62708e-05
7.07063e-05
7.35359e-05
7.47019e-05
7.46952e-05
7.39191e-05
7.25606e-05
7.09546e-05
6.96661e-05
6.90086e-05
6.87892e-05
6.85688e-05
6.81897e-05
6.81006e-05
6.89086e-05
7.04811e-05
7.20482e-05
7.29953e-05
7.3545e-05
7.46018e-05
7.71674e-05
8.12752e-05
8.56425e-05
8.87161e-05
8.96563e-05
8.8345e-05
8.57127e-05
8.24902e-05
7.74707e-05
6.90713e-05
5.862e-05
4.9954e-05
4.4958e-05
4.28761e-05
4.26564e-05
4.38419e-05
4.28434e-05
4.67449e-05
5.20086e-05
5.82226e-05
6.47639e-05
7.06335e-05
7.49939e-05
7.75008e-05
7.8314e-05
7.78081e-05
7.66706e-05
7.5584e-05
7.47521e-05
7.39956e-05
7.31329e-05
7.1989e-05
7.04326e-05
6.89275e-05
6.83097e-05
6.87639e-05
6.96411e-05
7.02905e-05
7.06839e-05
7.16165e-05
7.42083e-05
7.86287e-05
8.37113e-05
8.80618e-05
9.05952e-05
9.0516e-05
8.8789e-05
8.73352e-05
8.55879e-05
8.0123e-05
6.87706e-05
5.5439e-05
4.61201e-05
4.17957e-05
4.03925e-05
4.07083e-05
3.81401e-05
4.17193e-05
4.7024e-05
5.36346e-05
6.08916e-05
6.78849e-05
7.37537e-05
7.79378e-05
8.02065e-05
8.06663e-05
8.02237e-05
7.99686e-05
7.99994e-05
7.96335e-05
7.85853e-05
7.68507e-05
7.41912e-05
7.07065e-05
6.74262e-05
6.53966e-05
6.45871e-05
6.4271e-05
6.40302e-05
6.43471e-05
6.6302e-05
7.04947e-05
7.60777e-05
8.19509e-05
8.69761e-05
8.92956e-05
8.88081e-05
8.87079e-05
9.04305e-05
9.00344e-05
8.13632e-05
6.48844e-05
4.96447e-05
4.12925e-05
3.77507e-05
3.67581e-05
3.31094e-05
3.59099e-05
4.07514e-05
4.69168e-05
5.39004e-05
6.10368e-05
6.771e-05
7.34168e-05
7.76815e-05
7.99944e-05
8.07998e-05
8.15199e-05
8.27962e-05
8.37342e-05
8.35504e-05
8.22154e-05
7.94124e-05
7.44802e-05
6.8041e-05
6.20475e-05
5.77837e-05
5.49375e-05
5.29155e-05
5.17781e-05
5.24081e-05
5.58087e-05
6.12617e-05
6.78234e-05
7.55612e-05
8.19213e-05
8.34898e-05
8.36203e-05
8.76577e-05
9.36019e-05
9.24314e-05
7.82094e-05
5.80224e-05
4.3533e-05
3.63613e-05
3.31529e-05
2.89199e-05
3.03281e-05
3.44607e-05
3.93915e-05
4.45713e-05
4.99392e-05
5.54651e-05
6.13169e-05
6.73718e-05
7.2379e-05
7.52781e-05
7.70405e-05
7.92497e-05
8.19652e-05
8.38948e-05
8.46138e-05
8.36013e-05
7.92964e-05
7.11056e-05
6.11219e-05
5.2116e-05
4.48815e-05
3.94208e-05
3.61571e-05
3.59973e-05
3.92849e-05
4.41837e-05
4.80938e-05
5.43605e-05
6.55032e-05
7.14881e-05
7.06192e-05
7.382e-05
8.52456e-05
9.53308e-05
9.10413e-05
7.1719e-05
5.08773e-05
3.82498e-05
3.15621e-05
2.74643e-05
2.6111e-05
2.96326e-05
3.38373e-05
3.68096e-05
3.88898e-05
4.03258e-05
4.21913e-05
4.66935e-05
5.35861e-05
5.96964e-05
6.3157e-05
6.54026e-05
6.86693e-05
7.28709e-05
7.71355e-05
8.04368e-05
8.01933e-05
7.37534e-05
6.23697e-05
4.99541e-05
3.89287e-05
3.05831e-05
2.6065e-05
2.57152e-05
2.93585e-05
3.52236e-05
3.85175e-05
3.61763e-05
4.08953e-05
5.3002e-05
5.16984e-05
4.80835e-05
6.01696e-05
8.21601e-05
9.45606e-05
8.61839e-05
6.43586e-05
4.51644e-05
3.38949e-05
3.10824e-05
2.48723e-05
2.54156e-05
2.9899e-05
3.26044e-05
3.28272e-05
3.13987e-05
2.88879e-05
2.80938e-05
3.05793e-05
3.4974e-05
3.9054e-05
4.02771e-05
4.00351e-05
4.23636e-05
4.93776e-05
6.01513e-05
6.86746e-05
6.90173e-05
6.07352e-05
4.86777e-05
3.80477e-05
3.10342e-05
2.73027e-05
2.58596e-05
2.72286e-05
3.20476e-05
3.54613e-05
3.36052e-05
2.89541e-05
3.29734e-05
3.65572e-05
2.2049e-05
2.12545e-05
4.57626e-05
7.81588e-05
9.09773e-05
8.03329e-05
5.85855e-05
4.14126e-05
4.00591e-05
3.04184e-05
2.33823e-05
2.46095e-05
2.94014e-05
3.14121e-05
2.989e-05
2.68849e-05
2.31371e-05
2.28868e-05
2.37036e-05
2.22328e-05
2.01241e-05
1.7741e-05
2.13337e-05
2.52655e-05
2.37447e-05
3.49292e-05
4.89629e-05
5.05858e-05
4.32679e-05
3.59673e-05
3.36484e-05
3.54683e-05
3.76858e-05
3.69239e-05
3.47743e-05
3.83343e-05
3.70587e-05
2.76565e-05
2.47729e-05
2.75266e-05
2.2092e-05
1.1016e-05
1.92354e-05
3.66236e-05
7.37244e-05
8.73643e-05
7.62731e-05
5.49672e-05
5.22021e-05
4.08607e-05
3.08278e-05
2.15429e-05
2.40369e-05
3.10006e-05
3.32725e-05
3.04042e-05
2.59736e-05
2.07022e-05
2.02277e-05
2.12252e-05
1.98734e-05
2.00875e-05
2.48037e-05
3.40598e-05
3.84063e-05
2.5827e-05
1.67836e-05
3.09755e-05
3.42493e-05
3.09441e-05
3.05102e-05
3.51915e-05
4.11053e-05
4.27574e-05
3.55162e-05
2.88589e-05
3.73991e-05
3.11792e-05
2.2273e-05
1.89614e-05
2.67363e-05
1.77131e-05
1.99796e-05
2.60355e-05
3.12113e-05
7.07923e-05
8.57389e-05
7.25528e-05
6.56185e-05
4.98761e-05
4.16171e-05
2.9017e-05
1.92507e-05
2.60629e-05
3.44888e-05
3.64336e-05
3.26451e-05
2.51339e-05
1.69051e-05
1.71345e-05
2.0323e-05
1.90671e-05
1.4604e-05
1.37145e-05
2.43905e-05
3.28468e-05
2.18778e-05
1.23721e-05
2.54904e-05
2.83236e-05
2.78201e-05
2.96444e-05
3.21699e-05
3.54041e-05
3.2793e-05
2.11686e-05
1.57701e-05
2.87789e-05
1.65521e-05
2.17892e-05
1.28579e-05
2.59963e-05
1.64948e-05
2.62919e-05
2.96781e-05
2.959e-05
7.04206e-05
8.22216e-05
7.30701e-05
5.63067e-05
4.58653e-05
3.67496e-05
2.3082e-05
1.91886e-05
2.84357e-05