/*--------------------------------*- C++ -*----------------------------------*\
| =========                 |                                                 |
| \\      /  F ield         | OpenFOAM: The Open Source CFD Toolbox           |
|  \\    /   O peration     | Version:  2306                                  |
|   \\  /    A nd           | Website:  www.openfoam.com                      |
|    \\/     M anipulation  |                                                 |
\*---------------------------------------------------------------------------*/
FoamFile
{
    version     2.0;
    format      ascii;
    arch        "LSB;label=32;scalar=64";
    class       volScalarField;
    location    "5";
    object      p;
}
// * * * * * * * * * * * * * * * * * * * * * * * * * * * * * * * * * * * * * //

dimensions      [0 2 -2 0 0 0 0];

internalField   nonuniform List<scalar> 
60000
(
-6.36043e-05
-0.000103359
-0.000176452
-0.000221501
-0.000216676
-0.000188312
-0.000165914
-0.000154061
-0.00014211
-0.000129924
-0.000131609
-0.000149268
-0.000159236
-0.000140212
-9.47653e-05
-4.08232e-05
-9.54221e-06
-2.36852e-05
-6.4907e-05
-0.000100973
-0.000135216
-0.000189866
-0.000253306
-0.000288331
-0.000264826
-0.000189119
-0.000101352
-4.84219e-05
-4.52095e-05
-8.06845e-05
-0.000119918
-0.000102365
-3.98717e-05
7.1466e-06
1.86864e-05
4.31157e-06
-2.65638e-05
-6.12611e-05
-7.70009e-05
-6.83575e-05
-6.18049e-05
-0.000101563
-0.000175803
-0.000222397
-0.00021845
-0.000189911
-0.000166794
-0.000154458
-0.000142519
-0.000130623
-0.000132576
-0.00015048
-0.000160586
-0.000141545
-9.60318e-05
-4.18834e-05
-1.00378e-05
-2.3563e-05
-6.44683e-05
-0.000100233
-0.000134285
-0.000189185
-0.000253067
-0.000289126
-0.000266261
-0.000190702
-0.000102823
-4.98755e-05
-4.64556e-05
-8.14711e-05
-0.000121176
-0.000104044
-4.11078e-05
6.76598e-06
1.89791e-05
5.37144e-06
-2.51366e-05
-5.96628e-05
-7.55282e-05
-6.69476e-05
-6.06082e-05
-0.000100589
-0.000177122
-0.000225781
-0.000222599
-0.000193281
-0.000168566
-0.000155138
-0.000143054
-0.000131168
-0.000133192
-0.000151505
-0.000162317
-0.000143825
-9.83323e-05
-4.34603e-05
-1.02139e-05
-2.26415e-05
-6.33403e-05
-9.92255e-05
-0.000133384
-0.000188715
-0.000253909
-0.000291103
-0.000268444
-0.000192377
-0.000104022
-5.13808e-05
-4.78359e-05
-8.28704e-05
-0.000123782
-0.000107353
-4.34032e-05
5.70417e-06
1.86559e-05
6.05874e-06
-2.36794e-05
-5.85588e-05
-7.50799e-05
-6.59162e-05
-5.98028e-05
-0.00010032
-0.000180812
-0.000232158
-0.000229586
-0.00019902
-0.000171777
-0.000156421
-0.000143799
-0.000131657
-0.000133461
-0.000152244
-0.000164172
-0.000146831
-0.00010173
-4.56663e-05
-9.94731e-06
-2.06065e-05
-6.12686e-05
-9.76304e-05
-0.000132414
-0.000189084
-0.000256263
-0.000294309
-0.000271185
-0.000193684
-0.000104225
-5.25663e-05
-4.98093e-05
-8.54219e-05
-0.00012816
-0.000112274
-4.64664e-05
4.11247e-06
1.75067e-05
6.2268e-06
-2.22317e-05
-5.68368e-05
-7.5779e-05
-6.61949e-05
-5.7894e-05
-9.9626e-05
-0.000186057
-0.000240648
-0.000239162
-0.000207345
-0.000176904
-0.000158656
-0.000144927
-0.000132142
-0.000133353
-0.000152315
-0.000165321
-0.000149651
-0.000105876
-4.89802e-05
-9.81706e-06
-1.75592e-05
-5.79856e-05
-9.51372e-05
-0.000131157
-0.000189787
-0.000259051
-0.000298942
-0.000275339
-0.000196331
-0.000105473
-5.45156e-05
-5.27098e-05
-8.9507e-05
-0.000134482
-0.000118287
-4.95842e-05
2.72069e-06
1.57561e-05
5.59405e-06
-2.07284e-05
-5.49438e-05
-7.55225e-05
-6.67541e-05
-5.48934e-05
-9.62241e-05
-0.000193253
-0.000250271
-0.000250187
-0.000218362
-0.000184389
-0.000162013
-0.00014647
-0.000132921
-0.0001332
-0.000151786
-0.000165089
-0.000150826
-0.000109391
-5.31115e-05
-1.04732e-05
-1.38779e-05
-5.32539e-05
-9.12115e-05
-0.000129078
-0.000190552
-0.000263231
-0.000306347
-0.000283591
-0.000202684
-0.000111363
-6.41723e-05
-6.07485e-05
-9.57586e-05
-0.000142883
-0.000125129
-5.21439e-05
2.78809e-06
1.46329e-05
4.63371e-06
-1.89996e-05
-5.22087e-05
-7.49854e-05
-6.70416e-05
-5.0278e-05
-8.58646e-05
-0.000190464
-0.000263838
-0.000266799
-0.00023474
-0.000196123
-0.000167116
-0.000148051
-0.0001337
-0.000133914
-0.00015144
-0.000163664
-0.000149549
-0.000110434
-5.65477e-05
-1.18738e-05
-1.00441e-05
-4.70615e-05
-8.52846e-05
-0.000125324
-0.000191286
-0.000268903
-0.000317421
-0.000297445
-0.000212908
-0.000119137
-7.6106e-05
-7.89931e-05
-0.000109912
-0.000155153
-0.000133593
-5.47864e-05
4.63644e-06
1.58821e-05
4.99159e-06
-1.65562e-05
-4.86073e-05
-7.43962e-05
-6.85983e-05
-4.80673e-05
-6.90651e-05
-0.00017763
-0.000273026
-0.000286709
-0.000259528
-0.000215216
-0.000176873
-0.000151005
-0.000133756
-0.000134874
-0.000153739
-0.000163902
-0.000145761
-0.000108038
-5.68795e-05
-1.27915e-05
-6.34796e-06
-3.97643e-05
-7.71698e-05
-0.000119444
-0.000191396
-0.000274068
-0.000326594
-0.000307879
-0.000218927
-0.000118466
-7.63403e-05
-9.01014e-05
-0.000130468
-0.000176846
-0.000147201
-6.07548e-05
3.6931e-06
1.74876e-05
9.3421e-06
-1.03774e-05
-4.32624e-05
-7.50276e-05
-7.46377e-05
-5.12109e-05
-4.88337e-05
-0.00015533
-0.00027531
-0.000315171
-0.000291291
-0.000242758
-0.000191341
-0.000157135
-0.000135922
-0.000135752
-0.000156674
-0.000168458
-0.000147275
-0.000105408
-5.24442e-05
-1.07379e-05
-2.19584e-06
-3.20222e-05
-6.74272e-05
-0.000111785
-0.000187395
-0.000278087
-0.000328657
-0.00030366
-0.000206108
-9.72581e-05
-5.64251e-05
-8.53891e-05
-0.000147346
-0.000209223
-0.000170301
-6.99633e-05
2.07146e-06
1.39295e-05
5.14515e-06
-8.70327e-06
-3.67838e-05
-7.35256e-05
-8.28582e-05
-5.68992e-05
-2.77842e-05
-0.000120517
-0.000267254
-0.000336894
-0.000331762
-0.000279841
-0.000212356
-0.000165065
-0.0001395
-0.000139073
-0.000160419
-0.000171957
-0.000150743
-0.00011241
-5.98613e-05
-1.00703e-05
2.61173e-06
-2.4811e-05
-5.74941e-05
-0.000103514
-0.00018605
-0.000282856
-0.000326392
-0.000287643
-0.000174478
-5.09921e-05
-9.15178e-06
-6.08264e-05
-0.000155426
-0.000247506
-0.000201146
-8.70581e-05
-5.08873e-06
7.17248e-06
-5.77277e-07
-1.32533e-05
-3.38655e-05
-6.823e-05
-8.55444e-05
-6.03445e-05
-1.08187e-05
-7.56436e-05
-0.000237659
-0.000342134
-0.000363163
-0.000306267
-0.000242591
-0.000176148
-0.00014223
-0.000140178
-0.000162336
-0.000176615
-0.000159414
-0.000121909
-7.80641e-05
-2.95727e-05
-4.84261e-06
-2.03092e-05
-4.95836e-05
-9.61539e-05
-0.000192655
-0.000290239
-0.000326086
-0.000271626
-0.00014197
2.39388e-06
5.82241e-05
-1.11932e-05
-0.000144149
-0.00025677
-0.000231987
-0.000113005
-2.47673e-05
-7.9547e-06
-9.65398e-06
-1.32931e-05
-2.67908e-05
-5.20734e-05
-7.59361e-05
-5.73167e-05
-1.95464e-06
-3.55988e-05
-0.000189447
-0.000320154
-0.000372346
-0.000350673
-0.000279682
-0.000194288
-0.000144153
-0.000138935
-0.00016021
-0.000175011
-0.000161421
-0.000129725
-9.37075e-05
-5.76193e-05
-3.48505e-05
-3.76652e-05
-5.5138e-05
-9.37233e-05
-0.000186394
-0.000289549
-0.000319085
-0.000259496
-0.000127348
3.00365e-05
0.000115583
5.61701e-05
-0.000102633
-0.000243443
-0.000249448
-0.000142414
-5.4908e-05
-3.19007e-05
-2.30146e-05
-1.4329e-05
-1.09174e-05
-2.27277e-05
-4.53931e-05
-4.45171e-05
-4.60366e-06
-1.43785e-05
-0.00013804
-0.000273671
-0.000352524
-0.000368422
-0.000317711
-0.000218093
-0.000149713
-0.000137087
-0.000155619
-0.000174999
-0.000160199
-0.000130749
-0.000101857
-7.5022e-05
-6.38649e-05
-7.52761e-05
-8.60776e-05
-0.000106874
-0.000179162
-0.000271024
-0.000287932
-0.000244035
-0.000126089
1.2954e-05
0.000129696
0.000112526
-3.66763e-05
-0.000195133
-0.000236572
-0.000165724
-8.61836e-05
-5.54867e-05
-3.26096e-05
-2.25797e-05
-1.72849e-07
8.2605e-06
-1.03709e-05
-1.46047e-05
-1.87686e-05
-1.31476e-05
-9.47131e-05
-0.000211567
-0.000306549
-0.000355769
-0.000334357
-0.000238947
-0.000153662
-0.000136142
-0.000153224
-0.000176195
-0.000164522
-0.000131745
-0.000105
-7.99923e-05
-7.43118e-05
-0.000101311
-0.000123627
-0.00012479
-0.000172058
-0.000247685
-0.000272513
-0.000231841
-0.000130679
-1.80209e-05
0.000106338
0.000131785
2.31228e-05
-0.000125948
-0.000199898
-0.000182577
-0.00011184
-7.47577e-05
-4.27961e-05
-1.98402e-05
2.97117e-06
2.53506e-05
1.15342e-05
-1.0517e-05
-3.47735e-05
-2.19476e-05
-6.14021e-05
-0.000142982
-0.000243268
-0.00031759
-0.000327055
-0.000247527
-0.000151509
-0.000131737
-0.000150939
-0.000177015
-0.000171613
-0.000141459
-0.000110761
-8.12264e-05
-6.95969e-05
-0.000101066
-0.000127716
-0.00012988
-0.000159689
-0.000225412
-0.00026046
-0.000219252
-0.000137572
-5.15658e-05
6.09181e-05
0.000124096
5.7045e-05
-6.63483e-05
-0.000147482
-0.00016859
-0.00013136
-9.06924e-05
-5.41049e-05
-2.71383e-05
-5.59066e-06
-6.99453e-07
1.73906e-05
-1.24986e-05
-3.52563e-05
-3.513e-05
-1.75449e-05
-8.43152e-05
-0.000176748
-0.000262926
-0.000298898
-0.000240884
-0.000155165
-0.00012741
-0.000151993
-0.000180552
-0.000175289
-0.000148356
-0.000118646
-8.90791e-05
-6.98509e-05
-8.67611e-05
-0.000117775
-0.000132578
-0.000142464
-0.000203875
-0.000244051
-0.000198327
-0.000128383
-7.83595e-05
9.79455e-06
8.9612e-05
6.59265e-05
-3.22346e-05
-0.000113361
-0.000153009
-0.000145296
-0.000108657
-7.66769e-05
-4.29382e-05
-1.10455e-05
3.49229e-06
1.68023e-05
-9.02196e-06
-3.99756e-05
-6.08797e-05
-2.68085e-05
-6.09363e-05
-0.000135193
-0.000200987
-0.000250738
-0.000220098
-0.00015224
-0.000128773
-0.000146827
-0.000187288
-0.000185637
-0.000154067
-0.000121837
-9.32437e-05
-7.76257e-05
-8.61297e-05
-0.000113475
-0.000129101
-0.000133156
-0.00017677
-0.000218974
-0.000177668
-0.000110095
-7.88729e-05
-3.04805e-05
3.54104e-05
4.7909e-05
-9.37464e-06
-8.10704e-05
-0.000135884
-0.000148289
-0.000121904
-9.33446e-05
-5.53617e-05
-2.98269e-05
-1.82088e-06
1.69378e-05
-1.077e-05
-4.76302e-05
-6.72519e-05
-5.27083e-05
-6.54897e-05
-8.35946e-05
-0.000140595
-0.000184819
-0.000184351
-0.000150966
-0.000137493
-0.000160866
-0.000185826
-0.000183161
-0.000159673
-0.000130117
-9.93524e-05
-7.45025e-05
-7.7205e-05
-0.000109984
-0.000129662
-0.000133001
-0.000160657
-0.000197658
-0.000170943
-9.71255e-05
-7.26038e-05
-5.10377e-05
6.29551e-07
1.92778e-05
-1.36765e-05
-7.49909e-05
-0.00013093
-0.000151149
-0.000130656
-8.83399e-05
-4.84468e-05
-2.29732e-05
-8.30263e-07
1.51573e-05
-2.03863e-05
-6.81171e-05
-8.84569e-05
-8.02314e-05
-8.1997e-05
-0.000103148
-0.000122642
-0.000127502
-0.000126597
-0.000126223
-0.000146551
-0.000174038
-0.000196324
-0.000192738
-0.000178375
-0.000151167
-0.000127169
-9.12096e-05
-6.59513e-05
-8.3127e-05
-0.000111331
-0.000115619
-0.000125665
-0.000162468
-0.000163711
-9.55166e-05
-7.41444e-05
-6.38451e-05
-1.44709e-05
1.42923e-05
-1.40895e-05
-8.75475e-05
-0.000143737
-0.000150138
-0.000124208
-8.99817e-05
-5.12064e-05
-1.65135e-05
5.56028e-06
1.20207e-05
-4.07278e-05
-7.79083e-05
-0.00010678
-0.000116971
-0.000116491
-0.000124616
-0.000125652
-0.000127241
-0.00012487
-0.000122518
-0.000133827
-0.00015962
-0.000180556
-0.000187485
-0.000186597
-0.000187546
-0.000172477
-0.00014776
-0.000113607
-0.000102816
-0.000107599
-9.7655e-05
-9.07941e-05
-0.000120251
-0.000151714
-0.000132418
-0.000105423
-7.75716e-05
-3.44755e-05
4.72156e-06
-1.30244e-05
-8.86627e-05
-0.000148811
-0.000160109
-0.00014009
-0.000106567
-6.772e-05
-2.81426e-05
-7.43043e-06
-1.2252e-05
-3.87224e-05
-6.88734e-05
-0.000101873
-0.000126164
-0.000157354
-0.000167518
-0.00015992
-0.000129314
-0.000110043
-0.000114814
-0.000139273
-0.000165701
-0.000177236
-0.000178055
-0.0001828
-0.000191419
-0.000192969
-0.000182554
-0.000156842
-0.000132722
-0.000118851
-0.000100325
-7.97013e-05
-9.64001e-05
-0.0001425
-0.000160894
-0.000127479
-7.46688e-05
-2.1972e-05
1.10363e-05
-1.21052e-05
-0.000100853
-0.000186853
-0.000226693
-0.00019836
-0.000141908
-8.65611e-05
-4.27874e-05
-1.48806e-05
-1.55344e-05
-5.98541e-05
-7.39774e-05
-6.17112e-05
-7.23652e-05
-0.000109823
-0.000148906
-0.000167139
-0.000147558
-0.000122272
-0.000115487
-0.000135535
-0.000161401
-0.000174779
-0.000178022
-0.00018033
-0.00018414
-0.000184519
-0.000188925
-0.000182569
-0.000163504
-0.000137556
-0.000105999
-8.03635e-05
-8.50912e-05
-0.000121386
-0.000147134
-0.000131971
-8.38477e-05
-2.65485e-05
3.04553e-05
9.14258e-06
-8.48837e-05
-0.00019684
-0.000278447
-0.000256221
-0.000194164
-0.000113573
-4.54018e-05
-1.59362e-05
-3.09018e-05
-6.40736e-05
-8.71129e-05
-7.95556e-05
-7.56582e-05
-8.52264e-05
-0.000107079
-0.000131124
-0.000143958
-0.000145962
-0.000144476
-0.000154832
-0.000161593
-0.00016197
-0.000166273
-0.000173292
-0.000175357
-0.00016399
-0.000156826
-0.000153342
-0.000151691
-0.000145214
-0.000110585
-8.36921e-05
-7.94923e-05
-0.000105347
-0.000130307
-0.000119621
-8.49966e-05
-4.84333e-05
-1.16237e-05
-7.38644e-06
-6.55687e-05
-0.000151543
-0.000216182
-0.000226643
-0.000191108
-0.000136438
-8.14939e-05
-4.50597e-05
-4.25024e-05
-7.40939e-05
-7.92145e-05
-7.17085e-05
-6.77362e-05
-9.00049e-05
-0.00012879
-0.000166257
-0.000190457
-0.000179844
-0.000169412
-0.000159301
-0.000145838
-0.000132343
-0.000131218
-0.00014403
-0.000157993
-0.000170978
-0.000168674
-0.000160554
-0.000138087
-0.000112659
-9.62825e-05
-7.811e-05
-6.80132e-05
-8.13545e-05
-0.000109904
-0.000127092
-0.000120847
-9.45295e-05
-5.75979e-05
-4.0202e-05
-6.52141e-05
-0.000124726
-0.000181446
-0.00020502
-0.000197636
-0.00015654
-0.000112665
-7.69833e-05
-6.6436e-05
-7.59012e-05
-8.67327e-05
-8.32188e-05
-7.17163e-05
-8.99009e-05
-0.000128344
-0.000171263
-0.000204393
-0.000203389
-0.000193489
-0.000179017
-0.000158012
-0.000139414
-0.00013532
-0.000146965
-0.000159828
-0.000157314
-0.00014678
-0.000142337
-0.000138895
-0.000111685
-7.52638e-05
-4.20432e-05
-3.31975e-05
-5.498e-05
-0.000100632
-0.000138945
-0.00015122
-0.000143256
-0.000115344
-8.479e-05
-7.67612e-05
-0.000107738
-0.000152148
-0.000179063
-0.000190062
-0.000169382
-0.000135591
-9.98749e-05
-8.18849e-05
3.04039e-05
4.02901e-08
-9.85091e-05
-0.000207785
-0.000277077
-0.000296089
-0.000279992
-0.000241011
-0.000194026
-0.000161205
-0.000163514
-0.000187158
-0.000192446
-0.000162971
-0.000111764
-6.5082e-05
-4.66115e-05
-6.68234e-05
-9.98654e-05
-0.000117427
-0.000125176
-0.000159992
-0.000222158
-0.000272942
-0.000267154
-0.000183786
-5.63593e-05
2.80089e-05
3.90438e-05
3.07916e-05
2.28748e-05
1.20929e-05
2.19182e-05
4.74647e-05
7.13512e-05
7.25405e-05
3.94641e-05
-8.51122e-06
-2.80271e-05
1.078e-06
3.23348e-05
3.18023e-06
-9.5097e-05
-0.000205187
-0.000275877
-0.000296123
-0.000280885
-0.00024215
-0.000195177
-0.000162105
-0.000164348
-0.000188285
-0.000194147
-0.000164522
-0.000113069
-6.60703e-05
-4.71706e-05
-6.707e-05
-0.00010006
-0.000117353
-0.000125064
-0.00015969
-0.00022206
-0.000273741
-0.000269462
-0.000187555
-6.04629e-05
2.44227e-05
3.57436e-05
2.75673e-05
2.04901e-05
1.01521e-05
1.97402e-05
4.51595e-05
6.96209e-05
7.20113e-05
3.9939e-05
-7.57944e-06
-2.72986e-05
2.06923e-06
3.56975e-05
7.51277e-06
-9.15588e-05
-0.000204332
-0.000277586
-0.000298982
-0.000284002
-0.000244722
-0.000196864
-0.000162983
-0.000165202
-0.000189829
-0.000196466
-0.00016696
-0.000115043
-6.73797e-05
-4.77015e-05
-6.72165e-05
-0.00010034
-0.000116976
-0.000124848
-0.000159227
-0.000222158
-0.000275175
-0.000272417
-0.000191426
-6.40061e-05
2.24474e-05
3.31878e-05
2.43267e-05
1.84801e-05
8.74102e-06
1.77084e-05
4.23407e-05
6.71382e-05
7.14517e-05
4.10769e-05
-6.371e-06
-2.67634e-05
2.89204e-06
4.07456e-05
1.31135e-05
-8.8688e-05
-0.000206694
-0.000283787
-0.000305847
-0.000290048
-0.000249001
-0.000199208
-0.000163781
-0.00016567
-0.000191448
-0.000199381
-0.000170196
-0.000117661
-6.89447e-05
-4.80734e-05
-6.71449e-05
-0.000100643
-0.000116718
-0.000124459
-0.000158628
-0.000222584
-0.000277156
-0.000275368
-0.000194051
-6.47894e-05
2.35646e-05
3.23045e-05
2.13184e-05
1.67585e-05
7.76235e-06
1.61447e-05
3.96286e-05
6.41441e-05
7.04029e-05
4.22783e-05
-5.23247e-06
-2.67292e-05
4.45406e-06
4.72736e-05
2.05573e-05
-8.59807e-05
-0.000212317
-0.000294923
-0.000317224
-0.000299358
-0.000255151
-0.000202317
-0.000164583
-0.000165825
-0.00019263
-0.000201948
-0.000173398
-0.000120593
-7.08885e-05
-4.85069e-05
-6.69612e-05
-0.000100992
-0.000116541
-0.00012372
-0.000158095
-0.000223645
-0.000279804
-0.00027857
-0.000196352
-6.4398e-05
2.53406e-05
3.26482e-05
1.83041e-05
1.49702e-05
6.79806e-06
1.52325e-05
3.79459e-05
6.13369e-05
6.84258e-05
4.22177e-05
-5.35855e-06
-2.7953e-05
6.53404e-06
5.53734e-05
3.04509e-05
-8.13888e-05
-0.000219663
-0.000310584
-0.0003334
-0.000312433
-0.000262964
-0.000206481
-0.000165788
-0.000166002
-0.000193388
-0.000203261
-0.000174846
-0.000122415
-7.2767e-05
-4.91924e-05
-6.68396e-05
-0.000101387
-0.00011631
-0.000122505
-0.000157366
-0.000225346
-0.000284241
-0.000285347
-0.000203375
-6.92513e-05
2.32947e-05
2.9477e-05
1.27745e-05
1.22448e-05
5.14119e-06
1.45966e-05
3.79729e-05
5.9918e-05
6.60322e-05
4.02817e-05
-8.36755e-06
-3.22054e-05
8.02311e-06
6.9277e-05
4.88039e-05
-7.16571e-05
-0.000222519
-0.000328425
-0.000354122
-0.000330051
-0.000273841
-0.000212276
-0.000167791
-0.000166772
-0.000194574
-0.000204045
-0.000174165
-0.000121181
-7.2735e-05
-4.95349e-05
-6.68309e-05
-0.00010192
-0.000115949
-0.000120652
-0.000156196
-0.000228052
-0.000293375
-0.000301763
-0.000222928
-8.52115e-05
1.04407e-05
1.69021e-05
-3.65919e-06
3.39067e-06
-3.76606e-09
1.19232e-05
3.86336e-05
6.03492e-05
6.4171e-05
3.70448e-05
-1.4584e-05
-4.16333e-05
6.13343e-06
8.36223e-05
7.77268e-05
-4.8124e-05
-0.000213033
-0.000339347
-0.000376626
-0.000353102
-0.000288604
-0.000220918
-0.00017139
-0.000167533
-0.000195707
-0.000205912
-0.000175394
-0.000118824
-6.96153e-05
-4.75192e-05
-6.60111e-05
-0.000102545
-0.000115661
-0.000118486
-0.000155021
-0.00023163
-0.000309091
-0.000327791
-0.000255892
-0.000114654
-8.86739e-06
-5.64076e-06
-3.16091e-05
-1.74137e-05
-1.32709e-05
2.95918e-06
3.33205e-05
5.86153e-05
6.26722e-05
3.45223e-05
-2.09761e-05
-5.35265e-05
-1.54985e-06
9.49294e-05
0.000114249
-9.6975e-06
-0.00018862
-0.000330614
-0.000394484
-0.000380676
-0.000308782
-0.000233317
-0.000178235
-0.000169284
-0.000194762
-0.000204896
-0.000178141
-0.000123946
-7.08812e-05
-4.39964e-05
-6.23373e-05
-0.000102143
-0.000115705
-0.000116778
-0.00015308
-0.000235943
-0.000319825
-0.000345154
-0.000281398
-0.000144675
-3.19142e-05
-2.57758e-05
-6.37981e-05
-4.72961e-05
-3.73094e-05
-1.12147e-05
2.4365e-05
4.85957e-05
5.24715e-05
3.08223e-05
-1.88972e-05
-5.79743e-05
-1.14661e-05
0.000100851
0.000150336
4.24654e-05
-0.000148975
-0.000310405
-0.000398462
-0.00041055
-0.000334394
-0.000249608
-0.000187019
-0.0001729
-0.000195493
-0.000203494
-0.000178714
-0.000131427
-8.27251e-05
-5.12097e-05
-5.99858e-05
-9.9629e-05
-0.00011578
-0.00011615
-0.000154404
-0.000242187
-0.00032743
-0.00034638
-0.000280183
-0.000151212
-4.56419e-05
-4.05696e-05
-9.03658e-05
-8.04732e-05
-7.33793e-05
-3.4315e-05
1.44751e-05
4.40243e-05
4.19171e-05
2.31685e-05
-1.41717e-05
-4.68915e-05
-1.47136e-05
0.0001016
0.000172141
9.73915e-05
-9.31636e-05
-0.000277869
-0.000393419
-0.000440441
-0.000363967
-0.000268306
-0.000195152
-0.000174994
-0.000196068
-0.000203081
-0.000179615
-0.000137994
-9.63557e-05
-6.73515e-05
-7.01626e-05
-0.000102854
-0.000118743
-0.000118255
-0.000157819
-0.000250476
-0.000333167
-0.000335891
-0.000257153
-0.000133369
-3.7414e-05
-4.16655e-05
-0.000104897
-0.00012447
-0.000115993
-6.68384e-05
-3.61665e-06
4.0367e-05
4.19306e-05
2.51623e-05
8.3012e-07
-2.29691e-05
-6.39916e-06
9.94779e-05
0.000171548
0.000136014
-3.00537e-05
-0.000226207
-0.000369219
-0.000438087
-0.00039489
-0.000292226
-0.000204706
-0.000174634
-0.000195486
-0.000204809
-0.000182711
-0.000144166
-0.00010873
-8.48789e-05
-8.66008e-05
-0.000115827
-0.000131935
-0.000127222
-0.000164379
-0.000258487
-0.000341414
-0.000324551
-0.000229884
-0.000113273
-2.20567e-05
-2.63664e-05
-9.71801e-05
-0.000142152
-0.000150202
-0.000102178
-3.13363e-05
2.14757e-05
3.79016e-05
2.83923e-05
1.71718e-05
4.34848e-06
9.15159e-06
9.41161e-05
0.000151689
0.000149606
2.37248e-05
-0.000163398
-0.000322255
-0.000419144
-0.000409439
-0.000318559
-0.000219518
-0.000177384
-0.000196522
-0.000208502
-0.000188797
-0.000147785
-0.00011526
-9.83182e-05
-0.000104409
-0.000132739
-0.000149808
-0.00014668
-0.00017169
-0.000255614
-0.00034931
-0.000315849
-0.000218872
-0.000109601
-2.81215e-05
-1.19023e-05
-7.34527e-05
-0.000129416
-0.000159402
-0.000127664
-6.40536e-05
-1.0312e-05
1.87353e-05
2.96337e-05
2.95426e-05
2.67476e-05
2.1104e-05
5.70745e-05
0.000117941
0.000140581
5.88198e-05
-0.00010065
-0.00026119
-0.000378584
-0.000406993
-0.000336967
-0.000240944
-0.000181453
-0.000197826
-0.000212836
-0.00019654
-0.000151275
-0.000116159
-0.000101104
-0.000111827
-0.000143812
-0.000162371
-0.000154471
-0.000165661
-0.000233056
-0.000325227
-0.000298369
-0.000209883
-0.00011914
-4.88486e-05
-1.10742e-05
-4.86899e-05
-0.000102532
-0.000144186
-0.000130108
-8.78923e-05
-4.66307e-05
-1.75153e-05
1.02557e-05
3.30441e-05
4.04356e-05
2.13226e-05
3.24858e-05
7.72392e-05
0.0001138
7.3118e-05
-4.94134e-05
-0.000199336
-0.000324783
-0.000384377
-0.000345639
-0.000269254
-0.000188197
-0.000195987
-0.000210057
-0.000205839
-0.000158395
-0.000117632
-9.67544e-05
-0.000101121
-0.000127584
-0.000148625
-0.000147416
-0.000154346
-0.000222173
-0.000295446
-0.000276262
-0.000197748
-0.000124738
-6.01147e-05
-9.09914e-06
-2.66361e-05
-7.70469e-05
-0.000119548
-0.000121993
-0.000103058
-7.38636e-05
-4.22161e-05
-1.89935e-05
1.48672e-05
3.56913e-05
2.27425e-05
2.24793e-05
3.43503e-05
6.98377e-05
6.68055e-05
-1.45984e-05
-0.000143051
-0.000261376
-0.000337531
-0.000333517
-0.000265487
-0.000201705
-0.00019862
-0.000210484
-0.000202598
-0.000163594
-0.000117286
-8.72126e-05
-8.69327e-05
-0.000112627
-0.00014058
-0.000143593
-0.000155687
-0.000219205
-0.000274976
-0.000252557
-0.000177901
-0.000125083
-6.71879e-05
-1.31793e-05
-2.70015e-06
-4.90045e-05
-0.000100527
-0.000132178
-0.000110994
-9.21422e-05
-6.04482e-05
-3.27474e-05
-1.00645e-06
3.41296e-05
3.25086e-05
1.13513e-05
7.10869e-06
2.63263e-05
3.49762e-05
-1.7889e-05
-0.000110166
-0.000192725
-0.00025069
-0.000272164
-0.000250105
-0.000212073
-0.000217746
-0.000222951
-0.000207137
-0.000165441
-0.000115062
-7.92171e-05
-7.88211e-05
-0.000101634
-0.000127559
-0.000140641
-0.000150812
-0.000207102
-0.000248959
-0.000228597
-0.000155098
-0.000107309
-5.56837e-05
-2.63478e-05
-1.46341e-07
-3.00218e-05
-8.18344e-05
-0.000119492
-0.000120853
-9.93552e-05
-6.71573e-05
-4.18296e-05
-1.19461e-05
3.30751e-05
4.20422e-05
5.30847e-06
-2.60875e-05
-1.75831e-05
-1.06717e-05
-3.61542e-05
-9.0367e-05
-0.000134197
-0.000160146
-0.000181913
-0.000203841
-0.000209437
-0.000213681
-0.000228804
-0.0002187
-0.000174651
-0.00011481
-7.4752e-05
-7.06367e-05
-8.98212e-05
-0.000116722
-0.000138643
-0.000149043
-0.0001774
-0.000221551
-0.000217291
-0.000155765
-9.21891e-05
-6.0413e-05
-2.46094e-05
-1.04164e-06
-2.4388e-05
-7.6787e-05
-0.000112848
-0.000119217
-0.000106298
-7.63889e-05
-4.30126e-05
-8.97802e-06
2.61345e-05
3.96237e-05
-8.19524e-06
-5.41566e-05
-6.60114e-05
-5.13418e-05
-5.53564e-05
-9.55256e-05
-0.000114735
-8.86023e-05
-8.85171e-05
-0.000128914
-0.000177849
-0.000210665
-0.000225895
-0.000220016
-0.000193205
-0.000147815
-0.000107953
-8.26097e-05
-7.42925e-05
-9.44478e-05
-0.00012864
-0.000141026
-0.000149062
-0.000183535
-0.000206696
-0.0001808
-0.000103489
-5.84709e-05
-1.44291e-05
3.35781e-06
-2.22157e-05
-7.94403e-05
-0.000116899
-0.000120941
-0.000107122
-8.46301e-05
-5.04267e-05
-1.81523e-05
1.37015e-05
2.31399e-05
-3.31834e-05
-6.31529e-05
-9.03515e-05
-9.35047e-05
-8.57019e-05
-8.89225e-05
-9.50787e-05
-9.3298e-05
-9.47088e-05
-0.000107602
-0.000136724
-0.000174711
-0.000202142
-0.00021274
-0.000197176
-0.000182144
-0.000157152
-0.000136796
-0.000110106
-9.98574e-05
-0.000104519
-0.000119519
-0.000123033
-0.000144827
-0.000178892
-0.000181118
-0.000139392
-8.3498e-05
-2.75996e-05
-4.59582e-08
-2.64207e-05
-8.87195e-05
-0.000130244
-0.000130859
-0.000106035
-8.17717e-05
-5.40325e-05
-2.67545e-05
-1.0214e-05
-1.2213e-05
-4.15353e-05
-6.26558e-05
-8.79623e-05
-0.000109101
-0.000122197
-0.000126856
-0.000120275
-9.3192e-05
-8.24991e-05
-9.30775e-05
-0.000127687
-0.000165239
-0.000187453
-0.000199478
-0.000211149
-0.000211629
-0.000203246
-0.000189072
-0.000168547
-0.000137336
-0.000113295
-0.000107825
-0.000114491
-0.000132945
-0.000164051
-0.000171571
-0.000134658
-8.17149e-05
-2.67278e-05
-3.46916e-06
-3.41335e-05
-0.000104425
-0.000163152
-0.000166937
-0.000139551
-9.28647e-05
-5.45568e-05
-2.94623e-05
-1.67977e-05
-2.22724e-05
-6.73601e-05
-7.81e-05
-5.77953e-05
-6.23608e-05
-9.01959e-05
-0.00011556
-0.00013432
-0.000115784
-9.37506e-05
-9.27357e-05
-0.000121361
-0.000159168
-0.000181385
-0.000187476
-0.00019252
-0.000198647
-0.000203132
-0.000210738
-0.000211537
-0.000197302
-0.000164603
-0.000134813
-0.000119011
-0.000119915
-0.000136947
-0.000145723
-0.00012246
-8.25086e-05
-3.56205e-05
-6.97446e-06
-2.52945e-05
-9.18248e-05
-0.000161723
-0.000187638
-0.000180863
-0.000133162
-7.62036e-05
-2.97559e-05
-1.33322e-05
-3.92655e-05
-6.78114e-05
-7.92308e-05
-7.25082e-05
-6.7229e-05
-7.88721e-05
-9.83097e-05
-0.000115615
-0.000114981
-0.000105749
-0.000108706
-0.000132313
-0.000157771
-0.00016886
-0.000171416
-0.000169642
-0.000163719
-0.000147894
-0.000154003
-0.000163536
-0.00017403
-0.000166616
-0.000139323
-0.000117316
-0.000119343
-0.000140701
-0.000152209
-0.000131337
-9.07351e-05
-5.58749e-05
-3.45483e-05
-3.84184e-05
-7.91496e-05
-0.000138314
-0.000181371
-0.000192582
-0.000156833
-0.000109978
-6.88286e-05
-4.22429e-05
-4.44966e-05
-7.32477e-05
-8.25449e-05
-6.99165e-05
-6.43032e-05
-8.02785e-05
-0.000109199
-0.000138893
-0.000141795
-0.000147893
-0.000150142
-0.000154586
-0.000153952
-0.000143676
-0.0001381
-0.000146714
-0.000160373
-0.0001741
-0.000162415
-0.0001508
-0.000140191
-0.000124945
-0.000111276
-0.000101145
-9.90138e-05
-0.000109016
-0.000125155
-0.000131083
-0.000116537
-9.11781e-05
-6.6883e-05
-5.96873e-05
-7.99988e-05
-0.000125065
-0.000171138
-0.000187708
-0.000175122
-0.00013592
-9.88641e-05
-7.08555e-05
-6.33084e-05
-7.54054e-05
-7.96223e-05
-6.76223e-05
-6.45095e-05
-8.46483e-05
-0.000121986
-0.000160025
-0.000183172
-0.000191472
-0.000191158
-0.000183124
-0.000165113
-0.000144188
-0.000134831
-0.000142087
-0.000153608
-0.000155003
-0.000146877
-0.00014464
-0.000137805
-0.000114748
-8.0007e-05
-5.6427e-05
-5.31787e-05
-7.17853e-05
-0.000108051
-0.000138952
-0.000142687
-0.000130871
-0.000108874
-8.65649e-05
-8.25054e-05
-0.000106158
-0.0001431
-0.000164134
-0.000176626
-0.0001503
-0.000121715
-9.78365e-05
-8.30354e-05
6.88413e-06
-2.09861e-05
-6.6676e-05
-0.000124228
-0.000186671
-0.000233459
-0.000255919
-0.000243983
-0.000204225
-0.000162266
-0.000156037
-0.000185067
-0.000204845
-0.000186318
-0.000142235
-0.000104428
-9.24619e-05
-0.000107756
-0.000125047
-0.000122988
-0.00012612
-0.000152567
-0.00019295
-0.000224747
-0.000227255
-0.000182736
-9.68536e-05
-1.88101e-05
2.93114e-05
5.37227e-05
5.55441e-05
4.32355e-05
4.48948e-05
6.25516e-05
8.92347e-05
0.000103242
9.0955e-05
7.10778e-05
4.56778e-05
2.27837e-05
9.73487e-06
-1.78804e-05
-6.35094e-05
-0.000121404
-0.000184716
-0.000232308
-0.000255542
-0.00024423
-0.000204773
-0.000162664
-0.000156083
-0.000185032
-0.00020502
-0.000186659
-0.000142457
-0.000104543
-9.25831e-05
-0.000108073
-0.000125621
-0.000123696
-0.000126586
-0.000152811
-0.000193267
-0.000225198
-0.000228076
-0.000184342
-9.9045e-05
-2.11448e-05
2.67123e-05
5.10971e-05
5.29052e-05
3.98775e-05
4.06327e-05
5.78003e-05
8.49956e-05
0.000100627
8.9837e-05
7.12565e-05
4.66227e-05
2.38887e-05
1.31072e-05
-1.45573e-05
-6.10388e-05
-0.000119983
-0.000184887
-0.00023321
-0.000257167
-0.000245996
-0.000206267
-0.000163362
-0.000156118
-0.000185319
-0.000206024
-0.000187937
-0.000143232
-0.000104857
-9.2782e-05
-0.000108547
-0.00012639
-0.000124696
-0.000126864
-0.000152814
-0.000193705
-0.00022603
-0.000229407
-0.00018637
-0.000100707
-2.29919e-05
2.4695e-05
4.91829e-05
5.12691e-05
3.75207e-05
3.69205e-05
5.23239e-05
7.92471e-05
9.74428e-05
8.95569e-05
7.36391e-05
4.91927e-05
2.67516e-05
1.7966e-05
-1.09304e-05
-5.97325e-05
-0.000120828
-0.000188432
-0.00023737
-0.000261791
-0.000249966
-0.000209056
-0.00016457
-0.000156477
-0.000186442
-0.00020846
-0.000190803
-0.000145256
-0.000105952
-9.35011e-05
-0.000109506
-0.00012756
-0.000125445
-0.000126416
-0.00015248
-0.000194328
-0.000227322
-0.000231144
-0.000188402
-0.000101533
-2.32309e-05
2.41695e-05
4.86557e-05
5.12303e-05
3.67755e-05
3.49104e-05
4.7559e-05
7.2755e-05
9.35046e-05
8.99152e-05
7.72047e-05
5.4053e-05
3.18352e-05
2.49763e-05
-6.50854e-06
-5.93495e-05
-0.000123782
-0.000193631
-0.00024493
-0.000269653
-0.000256324
-0.000213246
-0.000166418
-0.000157353
-0.000188529
-0.000212328
-0.000195379
-0.000149143
-0.00010887
-9.56804e-05
-0.000111656
-0.000129712
-0.00012641
-0.000125666
-0.000152077
-0.000195449
-0.000229391
-0.000233106
-0.000190809
-0.000101703
-2.04241e-05
2.55034e-05
4.94891e-05
5.24515e-05
3.73295e-05
3.51884e-05
4.52868e-05
6.6813e-05
8.84915e-05
8.97998e-05
8.13143e-05
6.13344e-05
3.97393e-05
3.54424e-05
-5.57769e-08
-5.88722e-05
-0.000128147
-0.000201078
-0.000255615
-0.000280859
-0.000265205
-0.000218831
-0.000168913
-0.000158741
-0.000191246
-0.000216737
-0.000200779
-0.000154657
-0.000114308
-0.000100393
-0.000115834
-0.000133436
-0.000128071
-0.000124842
-0.000151705
-0.000197443
-0.0002324
-0.000237149
-0.000196645
-0.000104973
-1.90612e-05
2.75599e-05
5.14839e-05
5.40496e-05
3.78681e-05
3.71106e-05
4.67966e-05
6.34378e-05
8.30444e-05
8.80672e-05
8.43431e-05
7.08101e-05
5.13764e-05
5.15593e-05
1.0873e-05
-5.63831e-05
-0.000133399
-0.000209934
-0.000268383
-0.000295217
-0.000277206
-0.000226413
-0.000172264
-0.000160474
-0.00019407
-0.000220095
-0.000204715
-0.00015938
-0.00012077
-0.000107594
-0.000122423
-0.000138905
-0.000130482
-0.0001239
-0.000150988
-0.000199874
-0.000237408
-0.000246519
-0.000212629
-0.000120243
-2.82751e-05
2.21986e-05
5.10859e-05
5.46214e-05
3.50906e-05
3.68709e-05
5.07033e-05
6.40402e-05
7.85674e-05
8.43203e-05
8.24492e-05
8.13512e-05
6.75217e-05
7.49032e-05
2.95391e-05
-4.86012e-05
-0.000135237