/*--------------------------------*- C++ -*----------------------------------*\
| =========                 |                                                 |
| \\      /  F ield         | OpenFOAM: The Open Source CFD Toolbox           |
|  \\    /   O peration     | Version:  2306                                  |
|   \\  /    A nd           | Website:  www.openfoam.com                      |
|    \\/     M anipulation  |                                                 |
\*---------------------------------------------------------------------------*/
FoamFile
{
    version     2.0;
    format      ascii;
    arch        "LSB;label=32;scalar=64";
    class       surfaceScalarField;
    location    "5";
    object      phi_0;
}
// * * * * * * * * * * * * * * * * * * * * * * * * * * * * * * * * * * * * * //

dimensions      [0 3 -1 0 0 0 0];

oriented        oriented;

internalField   nonuniform List<scalar> 
175300
(
5.95723e-06
6.57306e-07
2.50154e-07
6.22416e-06
9.07312e-07
6.52051e-07
6.24476e-06
1.03765e-06
1.20584e-06
6.07299e-06
8.18129e-07
1.8002e-06
5.85822e-06
3.66961e-07
2.21e-06
5.69418e-06
2.9427e-08
2.27992e-06
5.57515e-06
-7.34674e-08
2.05896e-06
5.46172e-06
-1.78217e-08
1.67143e-06
5.33152e-06
3.18986e-08
1.28749e-06
5.13172e-06
7.36584e-09
1.08464e-06
4.77836e-06
-3.17093e-08
1.10418e-06
4.28977e-06
-8.92317e-08
1.23674e-06
3.82302e-06
-2.10529e-07
1.33561e-06
3.54674e-06
-3.86722e-07
1.35325e-06
3.48977e-06
-5.76025e-07
1.30713e-06
3.59106e-06
-7.31597e-07
1.18322e-06
3.72752e-06
-7.30009e-07
9.55256e-07
3.81152e-06
-5.00509e-07
6.27654e-07
3.90117e-06
-2.24687e-07
2.63305e-07
4.0793e-06
-1.88591e-08
-5.9477e-08
4.31491e-06
1.77695e-07
-3.2284e-07
4.5144e-06
3.48927e-07
-5.02233e-07
4.68147e-06
3.29126e-07
-5.88009e-07
4.86826e-06
1.20808e-08
-6.25417e-07
5.13035e-06
-4.12934e-07
-7.64948e-07
5.43855e-06
-6.66408e-07
-1.10548e-06
5.65655e-06
-6.18587e-07
-1.4989e-06
5.66373e-06
-3.82164e-07
-1.73759e-06
5.41927e-06
-2.3589e-08
-1.90541e-06
4.96331e-06
3.21088e-07
-2.08283e-06
4.43498e-06
3.8832e-07
-2.08613e-06
4.06156e-06
5.94274e-08
-1.89897e-06
3.88983e-06
-2.40051e-07
-1.79172e-06
3.85604e-06
-2.5595e-07
-1.82162e-06
3.95199e-06
-1.40355e-07
-1.77113e-06
4.14806e-06
6.28114e-08
-1.49343e-06
4.39076e-06
3.81475e-07
-1.06456e-06
4.67576e-06
6.80686e-07
-6.59674e-07
5.04999e-06
7.43232e-07
-3.41872e-07
6.09546e-07
-3.23934e-08
1.97089e-05
1.95498e-06
1.09418e-06
2.06734e-05
2.64442e-06
2.4606e-06
2.09962e-05
2.84979e-06
4.128e-06
2.06682e-05
2.05488e-06
5.67685e-06
1.99944e-05
7.70827e-07
6.53514e-06
1.93436e-05
-1.03488e-07
6.53783e-06
1.88604e-05
-3.31058e-07
5.90043e-06
1.84721e-05
-1.63526e-07
4.91315e-06
1.80423e-05
-2.00537e-08
3.93558e-06
1.73589e-05
-4.00903e-08
3.3544e-06
1.62101e-05
-1.06444e-07
3.30578e-06
1.46966e-05
-3.04752e-07
3.60657e-06
1.32648e-05
-8.06997e-07
3.94275e-06
1.23471e-05
-1.55023e-06
4.10816e-06
1.20242e-05
-2.27609e-06
3.99768e-06
1.20999e-05
-2.69444e-06
3.55246e-06
1.22865e-05
-2.46899e-06
2.77817e-06
1.24689e-05
-1.61738e-06
1.79484e-06
1.27914e-05
-7.09904e-07
7.86642e-07
1.33631e-05
-4.39636e-08
-9.0975e-08
1.4079e-05
5.33699e-07
-7.89804e-07
1.47959e-05
8.8965e-07
-1.28214e-06
1.55562e-05
5.48917e-07
-1.54204e-06
1.64583e-05
-7.36552e-07
-1.72118e-06
1.75297e-05
-2.19207e-06
-2.20604e-06
1.85894e-05
-2.92846e-06
-3.17361e-06
1.92472e-05
-2.59996e-06
-4.22031e-06
1.91774e-05
-1.57981e-06
-4.89567e-06
1.83184e-05
-2.19409e-07
-5.33996e-06
1.69139e-05
8.65987e-07
-5.61913e-06
1.54135e-05
8.92358e-07
-5.46506e-06
1.42249e-05
-1.52151e-07
-5.11853e-06
1.34097e-05
-9.4133e-07
-5.13039e-06
1.29906e-05
-9.06327e-07
-5.35602e-06
1.30845e-05
-5.42563e-07
-5.13033e-06
1.3621e-05
1.23339e-07
-4.19625e-06
1.44236e-05
1.18728e-06
-2.91868e-06
1.54612e-05
2.1269e-06
-1.76231e-06
1.6786e-05
2.22426e-06
-8.22348e-07
1.78443e-06
1.0368e-07
3.62867e-05
2.92121e-06
1.65991e-06
3.83965e-05
4.14768e-06
4.1009e-06
3.94976e-05
4.42318e-06
6.99167e-06
3.93018e-05
2.95738e-06
9.56938e-06
3.81108e-05
8.23306e-07
1.09272e-05
3.6698e-05
-4.98222e-07
1.08947e-05
3.56179e-05
-7.7393e-07
9.92523e-06
3.48605e-05
-4.84418e-07
8.492e-06
3.4126e-05
-2.40273e-07
7.02832e-06
3.30075e-05
-2.14558e-07
5.99307e-06
3.11382e-05
-2.42635e-07
5.61953e-06
2.86024e-05
-5.32734e-07
5.83142e-06
2.60064e-05
-1.4875e-06
6.36565e-06
2.40445e-05
-3.05641e-06
6.85782e-06
2.29999e-05
-4.65724e-06
6.88797e-06
2.26818e-05
-5.54349e-06
6.25086e-06
2.26928e-05
-5.05161e-06
5.02466e-06
2.28821e-05
-3.37001e-06
3.4646e-06
2.34258e-05
-1.60641e-06
1.8577e-06
2.44154e-05
-3.03711e-07
4.33259e-07
2.56849e-05
7.7357e-07
-7.26586e-07
2.70732e-05
1.19499e-06
-1.53108e-06
2.86612e-05
1.21385e-07
-1.90807e-06
3.05723e-05
-2.88284e-06
-2.1064e-06
3.27716e-05
-6.07391e-06
-2.81031e-06
3.48984e-05
-7.58248e-06
-4.39053e-06
3.62768e-05
-6.69903e-06
-6.25131e-06
3.63355e-05
-4.2229e-06
-7.59523e-06
3.49765e-05
-1.09912e-06
-8.43499e-06
3.26705e-05
1.22182e-06
-8.78425e-06
3.01589e-05
1.26122e-06
-8.39317e-06
2.79494e-05
-6.82634e-07
-7.84718e-06
2.60767e-05
-2.06302e-06
-8.04897e-06
2.4712e-05
-1.94683e-06
-8.71365e-06
2.43013e-05
-1.32767e-06
-8.67371e-06
2.49225e-05
-1.94721e-07
-7.34509e-06
2.62793e-05
1.79635e-06
-5.29242e-06
2.82192e-05
3.5459e-06
-3.37274e-06
3.07254e-05
3.66361e-06
-1.78877e-06
2.61423e-06
-9.56403e-08
5.52786e-05
2.0087e-06
9.73224e-07
5.9168e-05
3.98927e-06
4.50393e-06
6.17947e-05
4.63477e-06
8.82402e-06
6.23368e-05
2.74913e-06
1.28572e-05
6.07648e-05
1.10974e-07
1.51631e-05
5.82846e-05
-1.28034e-06
1.53398e-05
5.62512e-05
-1.38702e-06
1.41122e-05
5.4977e-05
-9.5357e-07
1.23507e-05
5.39866e-05
-6.45928e-07
1.05927e-05
5.26251e-05
-5.7041e-07
9.16828e-06
5.03232e-05
-4.84509e-07
8.22125e-06
4.69959e-05
-6.75667e-07
7.87633e-06
4.31655e-05
-1.84186e-06
8.27997e-06
3.96417e-05
-4.14673e-06
9.20097e-06
3.70849e-05
-6.84638e-06
9.78544e-06
3.56649e-05
-8.64891e-06
9.35144e-06
3.50486e-05
-8.27768e-06
7.94541e-06
3.50035e-05
-5.89785e-06
6.00396e-06
3.56507e-05
-3.20866e-06
3.91321e-06
3.70135e-05
-1.09442e-06
1.95566e-06
3.88446e-05
5.46555e-07
4.34452e-07
4.09615e-05
9.80164e-07
-5.97528e-07
4.34714e-05
-1.4101e-06
-9.24548e-07
4.65465e-05
-6.99112e-06
-7.85434e-07
5.01556e-05
-1.29779e-05
-1.30634e-06
5.38103e-05
-1.58904e-05
-3.41272e-06
5.65024e-05
-1.4265e-05
-6.4816e-06
5.7297e-05
-9.48984e-06
-9.12113e-06
5.59318e-05
-3.52772e-06
-1.08965e-05
5.30288e-05
8.8465e-07
-1.16354e-05
4.96059e-05
1.33475e-06
-1.09941e-05
4.63011e-05
-1.47785e-06
-9.93297e-06
4.30627e-05
-3.49003e-06
-1.00605e-05
4.0059e-05
-3.26085e-06
-1.13206e-05
3.81771e-05
-2.47165e-06
-1.21075e-05
3.8092e-05
-1.21746e-06
-1.11589e-05
3.96405e-05
1.42087e-06
-8.79741e-06
4.24457e-05
3.92547e-06
-6.27676e-06
4.62912e-05
3.87106e-06
-4.1289e-06
1.99622e-06
-1.87423e-06
7.52094e-05
-3.24019e-06
-2.62402e-06
8.16195e-05
-2.54676e-07
2.19427e-06
8.68377e-05
1.69859e-06
8.08101e-06
8.92748e-05
1.63501e-07
1.43009e-05
8.79926e-05
-2.13959e-06
1.85407e-05
8.43304e-05
-2.77287e-06
1.96638e-05
8.08825e-05
-2.21787e-06
1.83552e-05
7.88374e-05
-1.50092e-06
1.62233e-05
7.76545e-05
-1.17525e-06
1.43545e-05
7.63321e-05
-1.12516e-06
1.2929e-05
7.40487e-05
-9.29523e-07
1.15329e-05
7.04572e-05
-8.06488e-07
1.01576e-05
6.57461e-05
-1.67789e-06
9.66995e-06
6.04603e-05
-4.14731e-06
1.06827e-05
5.54911e-05
-7.74319e-06
1.22017e-05
5.17888e-05
-1.08798e-05
1.26042e-05
4.96135e-05
-1.14671e-05
1.14605e-05
4.87686e-05
-9.05146e-06
9.43504e-06
4.91924e-05
-5.67153e-06
7.1129e-06
5.07167e-05
-2.65222e-06
4.81812e-06
5.29255e-05
-1.87483e-07
2.96372e-06
5.5542e-05
2.77133e-07
1.95769e-06
5.86516e-05
-3.87631e-06
2.18353e-06
6.25296e-05
-1.32026e-05
3.47325e-06
6.7428e-05
-2.3651e-05
4.05738e-06
7.31018e-05
-2.95038e-05
1.99226e-06
7.8215e-05
-2.74392e-05
-2.76763e-06
8.10846e-05
-1.94027e-05
-7.92314e-06
8.09008e-05
-9.00875e-06
-1.19239e-05
7.82222e-05
-1.02225e-06
-1.40377e-05
7.42935e-05
7.83234e-07
-1.35211e-05
7.00355e-05
-2.52542e-06
-1.15899e-05
6.54648e-05
-5.07149e-06
-1.10241e-05
6.05259e-05
-4.60515e-06
-1.2597e-05
5.6156e-05
-3.57413e-06
-1.45647e-05
5.38541e-05
-2.58525e-06
-1.49799e-05
5.43167e-05
-7.52416e-08
-1.3431e-05
5.72725e-05
2.567e-06
-1.10961e-05
6.22111e-05
1.80079e-06
-8.88801e-06
-1.83288e-06
-6.39394e-06
9.27892e-05
-1.37879e-05
-1.09795e-05
0.00010195
-1.14326e-05
-5.16145e-06
0.000111112
-7.77045e-06
2.26589e-06
0.000117606
-7.38431e-06
1.13018e-05
0.000118478
-7.69195e-06
1.91484e-05
0.000114263
-5.88862e-06
2.30234e-05
0.000109049
-3.60539e-06
2.25409e-05
0.00010587
-2.21257e-06
1.99186e-05
0.000104554
-1.80671e-06
1.77331e-05
0.000103593
-1.86695e-06
1.68026e-05
0.000101809
-1.70421e-06
1.58297e-05
9.86622e-05
-1.22743e-06
1.35547e-05
9.39834e-05
-1.29392e-06
1.12125e-05
8.76393e-05
-3.01423e-06
1.12187e-05
8.00234e-05
-6.65806e-06
1.34965e-05
7.27028e-05
-1.08745e-05
1.54125e-05
6.7322e-05
-1.31489e-05
1.51805e-05
6.44577e-05
-1.189e-05
1.33942e-05
6.39302e-05
-8.58831e-06
1.10952e-05
6.51434e-05
-4.79317e-06
8.73144e-06
6.72782e-05
-1.19126e-06
6.81065e-06
6.9799e-05
-4.16231e-07
6.07793e-06
7.26438e-05
-6.65799e-06
7.4268e-06
7.60648e-05
-2.08106e-05
1.07095e-05
8.07046e-05
-3.71589e-05
1.35572e-05
8.75494e-05
-4.7824e-05
1.29106e-05
9.62357e-05
-4.79508e-05
7.52691e-06
0.000103972
-3.71099e-05
-1.0507e-06
0.000107742
-2.02629e-05
-9.53446e-06
0.000107226
-6.1983e-06
-1.50703e-05
0.000103835
-1.19766e-06
-1.59876e-05
9.90509e-05
-4.05621e-06
-1.33566e-05
9.3497e-05
-6.75702e-06
-1.13818e-05
8.70946e-05
-5.80809e-06
-1.24691e-05
8.02397e-05
-4.19118e-06
-1.52249e-05
7.45377e-05
-3.26151e-06
-1.73161e-05
7.17794e-05
-1.29989e-06
-1.77198e-05
7.27401e-05
4.35385e-07
-1.70988e-05
7.72071e-05
-2.45322e-06
-1.6209e-05
-9.54454e-06
-1.4516e-05
0.000106461
-2.76867e-05
-2.26151e-05
0.000115331
-2.6931e-05
-1.78723e-05
0.000127013
-2.37543e-05
-1.02967e-05
0.000140007
-2.38284e-05
4.76989e-07
0.000147489
-2.05716e-05
1.31966e-05
0.000145565
-1.3175e-05
2.28779e-05
0.000139059
-6.61916e-06
2.5951e-05
0.000134436
-3.63835e-06
2.35979e-05
0.000133132
-2.91966e-06
2.03239e-05
0.000133012
-2.93486e-06
1.95858e-05
0.00013213
-2.87731e-06
2.03385e-05
0.000129968
-2.31612e-06
1.87115e-05
0.000126466
-1.47853e-06
1.43079e-05
0.000120853
-1.74319e-06
1.16637e-05
0.00011206
-4.22515e-06
1.34535e-05
0.00010092
-8.25338e-06
1.70578e-05
9.04674e-05
-1.17386e-05
1.85775e-05
8.34549e-05
-1.26139e-05
1.74862e-05
8.05525e-05
-1.0768e-05
1.53176e-05
8.07032e-05
-6.8313e-06
1.29396e-05
8.23997e-05
-1.92825e-06
1.09402e-05
8.46956e-05
-4.84888e-07
1.03171e-05
8.72546e-05
-8.69587e-06
1.24093e-05
8.98269e-05
-2.75246e-05
1.72298e-05
9.24512e-05
-4.95597e-05
2.24307e-05
9.67873e-05
-6.5828e-05
2.4771e-05
0.000105526
-7.03493e-05
2.15421e-05
0.0001185
-6.04979e-05
1.24816e-05
0.000130413
-3.97182e-05
-6.92545e-07
0.000136387
-1.74986e-05
-1.2395e-05
0.000136038
-6.26697e-06
-1.73111e-05
0.000131609
-6.59618e-06
-1.54281e-05
0.000125466
-8.45638e-06
-1.19503e-05
0.000118549
-6.74271e-06
-1.15351e-05
0.000110673
-4.35027e-06
-1.40439e-05
0.000102517
-2.82387e-06
-1.71325e-05
9.59508e-05
-5.63404e-07
-1.94624e-05
9.27345e-05
3.33664e-07
-2.14484e-05
9.38361e-05
-5.87714e-06
-2.35194e-05
-1.8583e-05
-2.44632e-05
0.000122123
-3.93649e-05
-3.42029e-05
0.000127263
-4.13841e-05
-3.18437e-05
0.000135802
-3.89906e-05
-2.54321e-05
0.000151076
-4.2895e-05
-1.50619e-05
0.000167289
-4.22495e-05
-2.2449e-07
0.000172688
-2.83803e-05
1.60911e-05
0.000166969
-1.29996e-05
2.61896e-05
0.00016072
-6.39105e-06
2.7007e-05
0.000159901
-5.67687e-06
2.24475e-05
0.000161931
-5.4049e-06
2.00571e-05
0.000162686
-4.63857e-06
2.25061e-05
0.000161483
-4.00875e-06
2.41818e-05
0.000159693
-3.08498e-06
1.98961e-05
0.000156968
-2.34132e-06
1.37916e-05
0.000150441
-3.07841e-06
1.29662e-05
0.000138101
-5.17323e-06
1.72975e-05
0.000122387
-7.51454e-06
2.10938e-05
0.000108855
-9.61134e-06
2.1428e-05
0.00010117
-1.03633e-05
1.95932e-05
9.89615e-05
-7.79003e-06
1.71614e-05
0.000100084
-2.28142e-06
1.49005e-05
0.000102968
1.03907e-08
1.36345e-05
0.000106643
-9.24324e-06
1.50158e-05
0.000109924
-3.08298e-05
1.95493e-05
0.000111489
-5.60944e-05
2.5526e-05
0.000111781
-7.6072e-05
3.08778e-05
0.000115035
-8.53099e-05
3.25089e-05
0.00012615
-8.04596e-05
2.70181e-05
0.000143609
-6.14438e-05
1.37381e-05
0.000159335
-3.52278e-05
-3.48465e-06
0.000166214
-1.63106e-05
-1.49539e-05
0.00016381
-1.04387e-05
-1.67015e-05
0.000157093
-9.29567e-06
-1.31968e-05
0.00015041
-7.14346e-06
-1.05787e-05
0.000143795
-4.65712e-06
-1.13285e-05
0.000136191
-1.88659e-06
-1.42381e-05
0.000128518
2.20898e-06
-1.75669e-05
0.000122274
4.09909e-06
-2.15718e-05
0.000118586
-4.2516e-06
-2.68438e-05
-2.31375e-05
-3.20876e-05
0.000145744
-4.25933e-05
-4.15832e-05
0.000146044
-5.03001e-05
-4.46102e-05
0.000149569
-4.82953e-05
-4.05272e-05
0.00016038
-5.55953e-05
-2.99254e-05
0.000179317
-6.36083e-05
-1.45822e-05
0.000193947
-5.20101e-05
4.83431e-06
0.000193019
-2.54854e-05
2.16997e-05
0.000183785
-9.35668e-06
2.82994e-05
0.000180685
-8.65225e-06
2.43601e-05
0.000186201
-1.1241e-05
1.84388e-05
0.000191268
-8.85532e-06
1.9566e-05
0.000190229
-4.48036e-06
2.48073e-05
0.000187369
-3.03363e-06
2.42465e-05
0.000187859
-5.27167e-06
1.7243e-05
0.000188587
-8.02738e-06
1.32158e-05
0.000181653
-7.78945e-06
1.67634e-05
0.000164816
-5.02993e-06
2.2512e-05
0.000144598
-3.90964e-06
2.47829e-05
0.000129395
-5.66874e-06
2.36894e-05
0.000122282
-5.84122e-06
2.14635e-05
0.000121625
-1.86414e-06
1.92724e-05
0.000125042
2.62757e-07
1.72602e-05
0.000130494
-9.38678e-06
1.68001e-05
0.000135746
-3.13438e-05
1.89845e-05
0.000138484
-5.65357e-05
2.37133e-05
0.00013724
-7.6927e-05
3.03957e-05
0.000134563
-8.82418e-05
3.70476e-05
0.000138389
-8.91543e-05
3.81417e-05
0.000153857
-7.78541e-05
2.80806e-05
0.000175527
-5.55591e-05
9.46276e-06
0.000189772
-3.09039e-05
-8.05337e-06
0.000187292
-1.26779e-05
-1.52937e-05
0.000174437
-2.87844e-06
-1.40285e-05
0.000164889
-2.63919e-06
-9.69571e-06
0.000163171
-6.59524e-06
-6.99889e-06
0.000163979
-5.40166e-06
-7.86544e-06
0.000162728
2.78215e-06
-1.13123e-05
0.000159357
9.27227e-06
-1.64564e-05
0.000154407
2.68936e-06
-2.38427e-05
-1.88439e-05
-3.32825e-05
0.000179493
-3.41323e-05
-4.1005e-05
0.000173114
-4.92609e-05
-5.24868e-05
0.000172037
-5.04661e-05
-5.48165e-05
0.00017729
-5.82751e-05
-4.58492e-05
0.000191753
-7.4724e-05
-2.90694e-05
0.000210996
-7.47213e-05
-8.6361e-06
0.000220282
-4.78486e-05
1.32115e-05
0.000213835
-1.7908e-05
2.61149e-05
0.000203651
-9.0536e-06
2.56682e-05
0.000204404
-1.57364e-05
1.72433e-05
0.000214527
-1.80422e-05
1.35615e-05
0.000219172
-8.19289e-06
1.83755e-05
0.000213282
2.17885e-06
2.17415e-05
0.000208442
-1.08318e-06
1.73877e-05
0.000213725
-1.51119e-05
1.22361e-05
0.000220048
-2.21944e-05
1.47671e-05
0.00021272
-1.40329e-05
2.23103e-05
0.000191767
-2.20066e-06
2.68968e-05
0.000169125
2.03616e-06
2.67771e-05
0.000153963
1.55515e-06
2.51311e-05
0.000148442
1.76419e-06
2.4204e-05
0.000151005
-2.12351e-07
2.25908e-05
0.000158414
-1.26727e-05
1.96839e-05
0.000166396
-3.41189e-05
1.70811e-05
0.000171122
-5.54667e-05
1.78267e-05
0.000170341
-7.19279e-05
2.40872e-05
0.000164599
-8.13096e-05
3.46066e-05
0.000160753
-8.48478e-05
4.28324e-05
0.000168828
-8.30928e-05
3.86768e-05
0.000188895
-7.13552e-05
2.06214e-05
0.000205709
-4.62536e-05
-3.42226e-07
0.000203673
-1.44054e-05
-1.28561e-05
0.000186095
8.94628e-06
-1.45768e-05
0.000170507
1.01033e-05
-9.42862e-06
0.000167513
-2.82833e-06
-2.31346e-06
0.000174632
-9.80636e-06
1.5902e-06
0.000184496
-1.99431e-06
2.67618e-07
0.000191893
9.20538e-06
-4.79251e-06
0.000193909
9.36818e-06
-1.36857e-05
-7.73488e-06
-2.63739e-05
0.000220815
-1.75686e-05
-3.16004e-05
0.000208106
-3.57057e-05
-5.19247e-05
0.00020074
-4.385e-05
-6.43926e-05
0.000202233
-5.39487e-05
-6.18972e-05
0.000211587
-7.4021e-05
-4.57837e-05
0.000227877
-8.71593e-05
-2.34995e-05
0.000244025
-7.2663e-05
1.72678e-07
0.000248308
-3.85333e-05
1.92963e-05
0.000238961
-1.45887e-05
2.50774e-05
0.000228492
-1.39766e-05
1.79009e-05
0.000230695
-2.21034e-05
9.12574e-06
0.000241971
-1.75812e-05
9.48388e-06
0.000245825
-2.53943e-07
1.49943e-05
0.000238371
6.64375e-06
1.55585e-05
0.000234709
-1.13556e-05
1.1258e-05
0.000244323
-3.59639e-05
1.14936e-05
0.00025264
-3.65562e-05
1.93346e-05
0.000243152
-1.46037e-05
2.66398e-05
0.00022023
5.14455e-06
2.78005e-05
0.00019749
1.33233e-05
2.65216e-05
0.000183682
1.24473e-05
2.79482e-05
0.000181752
2.34799e-06
2.91808e-05
0.000189837
-1.9261e-05
2.46723e-05
0.000201748
-4.35311e-05
1.49972e-05
0.000210247
-5.87964e-05
7.69038e-06
0.000210875
-6.593e-05
1.07626e-05
0.000203306
-6.92216e-05
2.47469e-05
0.00019288
-7.08728e-05
4.0909e-05
0.000190868
-7.50712e-05
4.49556e-05
0.000203404
-7.56888e-05
2.99774e-05
0.000218998
-5.72809e-05
7.40172e-06
0.000220043
-1.72471e-05
-9.62828e-06
0.000204845
1.88082e-05
-1.50929e-05
0.000187755
2.46048e-05
-1.14706e-05
0.000180464
6.38385e-06
-1.9249e-06
0.000184543
-8.71304e-06
7.69452e-06
0.000196119
-5.80455e-06
1.27912e-05
0.000211089
5.18278e-06
1.19134e-05
0.000224521
9.51919e-06
4.35327e-06
1.48143e-06
-1.11257e-05
0.000263119
-2.95542e-06
-1.54051e-05
0.000250434
-1.36371e-05
-4.34227e-05
0.000236748
-2.75642e-05
-6.57772e-05
0.000233776
-4.49216e-05
-7.3271e-05
0.000240832
-6.7e-05
-6.2857e-05
0.000252378
-8.64507e-05
-4.13525e-05
0.000266454
-8.80691e-05
-1.62737e-05
0.000277596
-6.48782e-05
7.50449e-06
0.000276733
-3.1774e-05
2.06303e-05
0.000264201
-1.39385e-05
1.80072e-05
0.000253998
-1.62432e-05
7.22261e-06
0.000258525
-2.06136e-05
3.05315e-06
0.000271194
-1.12969e-05
9.1301e-06
0.000275154
1.4767e-06
1.49386e-05
0.000268211
-5.86655e-06
1.30432e-05
0.000266554
-3.52462e-05
9.59436e-06
0.000277352
-5.46587e-05
1.42299e-05
0.000284209
-3.96678e-05
2.30062e-05
0.000273525
-6.44142e-06
2.62156e-05
0.000251314
1.96897e-05
2.53773e-05
0.000230744
2.69392e-05
2.91221e-05
0.000220329
1.39028e-05
3.38289e-05
0.000222884
-1.77192e-05
2.76812e-05
0.00023574
-5.15024e-05
1.0324e-05
0.000250549
-6.78406e-05
-4.94498e-06
0.000256749
-6.52219e-05
-7.66086e-06
0.000249698
-5.77385e-05
7.89527e-06
0.000233971
-5.28852e-05
3.21235e-05
0.000221504
-5.64075e-05
4.69638e-05
0.000223183
-6.52856e-05
3.8682e-05
0.000234043
-5.72371e-05
1.55428e-05
0.000238387
-1.86932e-05
-4.68288e-06
0.000230776
2.32503e-05
-1.46519e-05
0.000218922
3.46839e-05
-1.61637e-05
0.000210648
1.69301e-05
-9.76482e-06
0.000208784
-1.10948e-06
1.53715e-06
0.000213517
-2.75609e-06
1.30613e-05
0.000225201
3.73413e-06
2.01504e-05
0.000243874
4.69707e-06
2.00418e-05
1.54491e-06
8.93393e-06
0.000301851
-1.90266e-06
3.84943e-07
0.000296533
5.03378e-06
-3.14748e-05
0.000281065
-6.6371e-06
-6.09682e-05
0.000272875
-3.20306e-05
-7.6956e-05
0.000277606
-5.81028e-05
-7.46037e-05
0.000287198
-7.8254e-05
-5.82801e-05
0.000295544
-8.95839e-05
-3.44435e-05
0.000303693
-8.27538e-05
-8.94011e-06
0.000307334
-5.42447e-05
1.15999e-05
0.000300268
-2.12324e-05
1.53418e-05
0.000287672
-8.24613e-06
6.3539e-06
0.000283633
-1.41623e-05
-2.30129e-07
0.000293563
-1.84204e-05
5.00162e-06
0.000305798
-1.16459e-05
1.47821e-05
0.000306948
-9.36553e-06
1.66283e-05
0.000299925
-2.81912e-05
1.04855e-05
0.000299515
-5.46246e-05
8.26235e-06
0.000308172
-5.66788e-05
1.4794e-05
0.000311508
-2.8149e-05
2.13881e-05
0.000300411
8.97511e-06
2.48729e-05
0.000281002
3.10843e-05
3.11701e-05
0.00026456
2.9071e-05
3.53481e-05
0.000257101
1.49794e-06
2.3738e-05
0.000262618
-4.07109e-05
1.60258e-08
0.000280871
-7.23273e-05
-1.82652e-05
0.000298293
-7.30749e-05
-2.19668e-05
0.000298483
-5.56579e-05
-7.72272e-06
0.000281183
-4.02185e-05
2.06031e-05
0.000260356
-3.59047e-05
4.49135e-05
0.000250921
-4.36266e-05
4.63547e-05
0.00025464
-4.31616e-05
2.58901e-05
0.000259822
-1.33451e-05
2.81327e-06
0.000259258
2.56028e-05
-1.27086e-05
0.000255462
3.80807e-05
-2.06704e-05
0.000251404
2.29039e-05
-2.03968e-05
0.0002474
6.77584e-06
-1.17182e-05
0.000244952
5.78441e-06
5.41275e-07
0.000248209
8.3983e-06
1.21745e-05
0.000263239
-4.96724e-07
2.02432e-05
-8.89859e-06
1.87572e-05
0.000338449
-1.21122e-05
4.94449e-06
0.000344636
1.02106e-05
-2.16919e-05
0.000333238
9.88273e-06
-5.3405e-05
0.000320878
-1.5855e-05
-7.58724e-05
0.000320735
-4.4418e-05
-8.09924e-05
0.000329183
-6.46719e-05
-7.11814e-05
0.000334949
-8.03106e-05
-5.20326e-05
0.000336341
-8.7192e-05
-2.63306e-05
0.000336447
-7.02799e-05
-1.67023e-06
0.000332484
-3.28939e-05
1.05248e-05
0.00032352
-3.93801e-06
5.88204e-06
0.000317369
-2.68503e-06
-1.32518e-06
0.000322722
-1.60447e-05
1.7704e-06
0.000336168
-2.09718e-05
1.35224e-05
0.00034474
-1.69205e-05
2.06395e-05
0.000341393
-2.30873e-05
1.54509e-05
0.000332201
-4.26832e-05
5.98073e-06
0.000326461
-5.32585e-05
6.00177e-06
0.000323946
-3.96123e-05
1.61961e-05
0.000318704
-9.84933e-06
2.8067e-05
0.000309459
1.85932e-05
3.51522e-05
0.000301217
3.27652e-05
3.08822e-05
0.000295311
2.16838e-05
1.116e-05
0.000293966
-1.69526e-05
-1.32515e-05
0.000306836
-6.30278e-05
-2.97597e-05
0.000331011
-8.19984e-05
-2.88169e-05
0.000343232
-6.66339e-05
-1.25641e-05
0.000329948
-4.02674e-05
1.47192e-05
0.000303893
-2.33339e-05
4.20764e-05
0.00028568
-2.16702e-05
5.24919e-05
0.000283225
-2.0507e-05
3.73621e-05
0.000288557
5.68374e-07
1.24207e-05
0.000293206
2.96309e-05
-8.17596e-06
0.000296463
3.66066e-05
-2.21167e-05
0.000298661
2.12405e-05
-2.85294e-05
0.000297709
8.61666e-06
-2.5789e-05
0.000293468
1.13502e-05
-1.69207e-05
0.000290327
1.38267e-05
-5.93839e-06
0.000296571
-3.70626e-07
5.46102e-06
-1.87805e-05
1.21202e-05
0.000368732
-1.67467e-05
3.22151e-07
0.000386097
6.19557e-06
-1.8228e-05
0.000386729
1.63651e-05
-4.58834e-05
0.00037586
-3.74281e-07
-7.06457e-05
0.00037111
-2.50837e-05
-8.25576e-05
0.000377883
-4.48142e-05
-7.98673e-05
0.000384815
-6.43311e-05
-6.64622e-05
0.000382987
-8.10959e-05
-4.40711e-05
0.000375941
-7.57223e-05
-1.72157e-05
0.000368478
-4.13545e-05
1.61207e-06
0.000360913
-3.08625e-06
4.39531e-06
0.00035562
9.20172e-06
-5.17825e-07
0.00035834
-5.18105e-06
1.11132e-06
0.000370183
-2.06363e-05
1.23043e-05
0.000382272
-2.2084e-05
2.3891e-05
0.000382932
-2.15479e-05
2.36361e-05
0.000369076
-2.95523e-05
1.16062e-05
0.000348511
-3.63245e-05
3.16864e-06
0.000331726
-3.13518e-05
8.62117e-06
0.000325029
-1.61299e-05
1.9589e-05
0.000327925
3.24202e-06
2.21846e-05
0.00033577
2.17453e-05
1.14678e-05
0.000340805
2.59938e-05
-7.82617e-06
0.000340975
3.12229e-06
-2.85772e-05
0.000346979
-4.23119e-05
-3.96934e-05
0.000366864
-7.93815e-05
-3.31971e-05
0.000384389
-7.91005e-05
-1.19827e-05
0.000377138
-4.90824e-05
1.49512e-05
0.000349352
-1.92812e-05
4.05783e-05
0.000324996
-6.29948e-06
5.45288e-05
0.000318175
-5.8028e-07
4.51052e-05
0.000323591
1.53264e-05
2.11799e-05
0.000329884
3.575e-05
-1.47467e-06
0.000332926
3.78418e-05
-1.68797e-05
0.000335774
1.99221e-05
-2.71903e-05
0.00034042
4.60697e-06
-3.24156e-05
0.000344191
6.46217e-06
-3.07793e-05
0.000343928
1.29215e-05
-2.14692e-05
0.000342676
3.53345e-06
-7.54565e-06
-1.61709e-05
2.5097e-06
0.00039079
-6.35643e-06
-4.61323e-07
0.000412796
6.10439e-06
-1.71908e-05
0.000429692
1.67699e-05
-3.94781e-05
0.000430316
1.02306e-05
-6.22648e-05
0.000427005
-4.51865e-06
-7.91252e-05
0.000433687
-2.11814e-05
-8.43594e-05
0.000443426
-4.38606e-05
-7.77995e-05
0.000441749
-6.788e-05
-6.09473e-05
0.000428508
-7.14021e-05
-3.61469e-05
0.000414
-4.29434e-05
-1.26448e-05
0.000403968
-2.97201e-06
-3.19381e-07
0.000399047
1.67717e-05
2.5342e-06
0.000400066
8.29443e-06
4.48014e-06
0.000407761
-1.07434e-05
1.16714e-05
0.000417549
-1.98376e-05
2.23483e-05
0.00041993
-2.12899e-05
2.85661e-05
0.00040891
-2.31999e-05
2.19586e-05
0.000388093
-2.17813e-05
6.59775e-06
0.000368007
-1.46079e-05
-3.0494e-06
0.000359425
-8.46858e-06
-1.82838e-06
0.000365254
-4.55938e-06
1.67918e-06
0.000378794
3.42624e-06
-1.40747e-06
0.000389039
1.3708e-05
-1.31062e-05
0.000391727
1.07831e-05
-2.86007e-05
0.000395292
-2.03351e-05
-3.76009e-05
0.000409181
-6.37141e-05
-3.17712e-05
0.000425446
-8.23774e-05
-1.14147e-05
0.0004228
-5.88067e-05
1.35401e-05
0.00039789
-1.94637e-05
3.76024e-05
0.000371323
5.61429e-06
5.42366e-05
0.000359078
1.64421e-05
5.06024e-05
0.000357777
2.91229e-05
2.91992e-05
0.00035704
4.28595e-05
9.24399e-06
0.00035452
4.00133e-05
-6.15711e-07
0.000355681
1.78265e-05
-8.59199e-06
0.000364524
-4.10383e-06
-2.04798e-05
0.000377129
-8.1668e-06
-2.82284e-05
0.000384435
1.04541e-06
-2.13215e-05
0.0003829
3.95403e-06
-4.67266e-06
-4.18972e-06
4.97336e-06
0.000420319
1.47862e-05
1.01419e-05
0.000437837
2.18428e-05
-8.98432e-06
0.000461911
2.37829e-05
-3.27581e-05
0.000478089
1.67272e-05
-5.24598e-05
0.000486457
8.73777e-06
-6.82147e-05
0.000497891
-5.94698e-07
-7.87835e-05
0.000510271
-2.0885e-05
-8.19388e-05
0.000509046
-4.77502e-05
-7.42477e-05
0.000490948
-5.69241e-05
-5.49608e-05
0.000468493
-3.44635e-05
-3.03469e-05
0.000452889
1.45728e-06
-1.09396e-05
0.000445987
2.1115e-05
5.37722e-08
0.000445685
1.54149e-05
7.31472e-06
0.000450109
-9.42029e-07
1.44788e-05
0.000454203
-1.11078e-05
2.23421e-05
0.000451976
-1.48127e-05
2.82116e-05
0.000442254
-1.75065e-05
2.55898e-05
0.000429593
-1.42529e-05
1.00617e-05
0.000419339
-4.42371e-06
-8.1932e-06
0.000415932
-1.63536e-06
-1.363e-05
0.000421182
-1.04612e-05
-6.33486e-06
0.000430315
-1.4725e-05
-2.05626e-07
0.000434947
-2.75311e-06
-3.27711e-06
0.00043417
1.031e-05
-1.25916e-05
0.000435895
-2.37063e-06
-2.01886e-05
0.000447294
-4.18613e-05
-1.97482e-05
0.000463614
-7.4865e-05
-5.90172e-06
0.000468761
-6.61401e-05
1.52939e-05
0.000453385
-2.37861e-05
3.60594e-05
0.000429039
1.5856e-05
5.00311e-05
0.000408935
3.55347e-05
5.01926e-05
0.000394587
4.28546e-05
3.73141e-05
0.000384146
4.65328e-05
2.22405e-05
0.000379699
4.0741e-05
1.28493e-05
0.000383883
1.97644e-05
7.33181e-06
0.000396001
-6.4372e-06
-1.21063e-06
0.000411182
-1.92308e-05
-1.17572e-05
0.000421339
-1.20733e-05
-1.34883e-05
0.000421636
1.47254e-06
-1.21334e-06
9.94702e-06
1.20695e-05
0.000460991
3.38759e-05
2.17895e-05
0.00047423
4.02299e-05
9.82111e-06
0.000495648
3.5148e-05
-1.21636e-05
0.000517519
1.92849e-05
-3.29044e-05
0.000537985
7.14915e-06
-5.1109e-05
0.00055946
3.05652e-06
-6.58963e-05
0.000576561
-5.76468e-06
-7.56962e-05
0.000576642
-2.4324e-05
-7.75605e-05
0.000557422
-3.48427e-05
-6.75787e-05
0.000531314
-2.0164e-05
-4.64649e-05
0.000510657
8.08642e-06
-2.27622e-05
0.000498363
2.40873e-05
-5.85366e-06
0.000492322
1.96085e-05
4.48327e-06
0.000490799
7.50667e-06
1.33747e-05
0.000489794
-1.18723e-06
2.34008e-05
0.00048545
-5.97807e-06
2.94516e-05
0.00047893
-9.28239e-06
2.39891e-05
0.000476107
-7.31424e-06
5.86867e-06
0.000480051
4.1923e-08
-1.35276e-05
0.000487253
-1.37739e-06
-1.7219e-05
0.00049062
-1.73146e-05
-3.42666e-06
0.000485922
-2.81663e-05
1.22023e-05
0.000476646
-1.51971e-05
1.5683e-05
0.00047216
8.54634e-06
1.00504e-05
0.000478263
1.27508e-05
3.87745e-06
0.000492719
-1.57295e-05
1.38051e-06
0.000508507
-5.53587e-05
5.28636e-06
0.000514981
-6.32994e-05
1.76984e-05
0.000504132
-2.58353e-05
3.46992e-05
0.000481605
2.28878e-05
4.749e-05
0.000456588
5.1143e-05
4.6351e-05
0.000433898
5.61175e-05
3.42642e-05
0.000418618
5.17692e-05
2.57832e-05
0.000415324
4.39992e-05
2.66909e-05
0.000423161
2.94274e-05
2.74107e-05
0.000437147
8.95372e-06
1.8718e-05
0.000451449
-6.59868e-06
5.78203e-06
0.000460097
-5.81868e-06
5.93168e-07
0.000461213
7.55164e-06
7.55294e-06
2.2188e-05
1.97626e-05
0.000518951
3.94851e-05
3.66127e-05
0.000525298
4.64746e-05
3.44378e-05
0.000539647
4.12388e-05
1.41353e-05
0.000558871
1.98666e-05
-1.29156e-05
0.000582411
-4.73304e-06
-3.15468e-05
0.000609336
-1.54094e-05
-4.32895e-05
0.000630465
-1.28064e-05
-5.61148e-05
0.000634448
-1.05379e-05
-7.00107e-05
0.000622007
-1.14105e-05
-7.57619e-05
0.000604811
-3.81121e-06
-6.59272e-05
0.000590649
1.24669e-05
-4.32762e-05
0.000577329
2.4065e-05
-1.93282e-05
0.000561889
2.31691e-05
-2.7672e-06
0.000546285
1.62947e-05
7.90095e-06
0.000534523
8.6814e-06
1.81451e-05
0.000528491
-1.14728e-06
2.75808e-05
0.000529941
-1.28444e-05
3.08468e-05
0.000541885
-2.11606e-05
2.31838e-05
0.000562353
-2.30807e-05
8.44423e-06
0.000578979
-2.48088e-05
-8.73595e-07
0.000578128
-3.10347e-05
7.87851e-06
0.000560211
-3.27164e-05
3.18031e-05
0.000538756
-1.68786e-05
5.20771e-05
0.000528619
1.25559e-05
5.10686e-05
0.000533441
3.22756e-05
2.75166e-05
0.000547074
1.99773e-05
6.71991e-07
0.000560737
-1.93013e-05
-6.8888e-06
0.000565954
-4.64067e-05
6.78697e-06
0.000553962
-2.73859e-05
2.76098e-05
0.000527894
2.17573e-05
4.16971e-05
0.000498656
6.03858e-05
4.36754e-05
0.000475511
7.36832e-05
3.55221e-05
0.000464045
7.10326e-05
2.74054e-05
0.000464517
6.14795e-05
2.5827e-05
0.00047281
4.64054e-05
2.69008e-05
0.000485063
2.80365e-05
2.30449e-05
0.0004995
1.35646e-05
1.27518e-05
0.000512863
1.14408e-05
3.98089e-06
0.000520011
1.96405e-05
7.10883e-06
2.97362e-05
2.26089e-05
0.000570568
3.25244e-05
4.37219e-05
0.000576333
3.11522e-05
4.8138e-05
0.00059131
2.22003e-05
3.78762e-05
0.00061065
3.19556e-06
1.30566e-05
0.00063148
-1.70771e-05
-1.76307e-05
0.000655454
-2.86907e-05
-3.95647e-05
0.000679627
-2.45502e-05
-5.10996e-05
0.000692823
-1.09966e-05
-5.78028e-05
0.000687592
3.31678e-06
-6.43873e-05
0.000671229
1.60658e-05
-6.67077e-05
0.000657104
2.57156e-05
-5.8447e-05
0.000649573
2.85322e-05
-4.15243e-05
0.000643165
2.37414e-05
-2.43813e-05
0.000632367
1.68475e-05
-1.13952e-05
0.000617229
1.10256e-05
-5.67768e-07
0.000602538
2.115e-06
1.13066e-05
0.000595279
-1.26436e-05
2.45663e-05
0.000603171
-3.14495e-05
3.3355e-05
0.000625246
-4.88587e-05
3.21033e-05
0.000646078
-5.85973e-05
2.3883e-05
0.000648503
-5.49521e-05
2.12284e-05
0.000631611
-3.72296e-05
3.4468e-05
0.000609057
-9.64084e-06
5.55102e-05
0.00059317
2.1131e-05
5.84246e-05
0.000586687
3.94254e-05
3.21858e-05
0.000588682
3.10023e-05
-6.42425e-06
0.000598578
-2.79217e-06
-2.79864e-05
0.000608696
-3.69952e-05
-1.67286e-05
0.000606914
-3.58976e-05
1.01626e-05
0.000589268
5.89249e-06
3.34401e-05
0.000567347
5.37476e-05
4.26784e-05
0.00055365
8.19644e-05
3.62584e-05
0.000551128
8.88369e-05
1.95716e-05
0.000554562
7.98662e-05
3.79793e-06
0.000558466
6.06287e-05
-3.68807e-06
0.000561673
3.79885e-05
-4.12321e-07