/*--------------------------------*- C++ -*----------------------------------*\
| =========                 |                                                 |
| \\      /  F ield         | OpenFOAM: The Open Source CFD Toolbox           |
|  \\    /   O peration     | Version:  2306                                  |
|   \\  /    A nd           | Website:  www.openfoam.com                      |
|    \\/     M anipulation  |                                                 |
\*---------------------------------------------------------------------------*/
FoamFile
{
    version     2.0;
    format      ascii;
    arch        "LSB;label=32;scalar=64";
    class       volScalarField;
    location    "5";
    object      pPrime2Mean;
}
// * * * * * * * * * * * * * * * * * * * * * * * * * * * * * * * * * * * * * //

dimensions      [0 4 -4 0 0 0 0];

internalField   nonuniform List<scalar> 
60000
(
1.66431e-09
8.60662e-09
1.85891e-08
2.35985e-08
2.25287e-08
1.991e-08
1.75916e-08
1.45242e-08
1.06401e-08
9.59617e-09
1.51039e-08
2.35926e-08
2.72629e-08
2.33688e-08
1.56349e-08
8.72781e-09
5.39817e-09
4.92177e-09
4.68631e-09
3.81878e-09
5.25328e-09
1.31237e-08
2.46376e-08
3.06493e-08
2.65248e-08
1.7269e-08
9.69547e-09
7.81048e-09
1.32994e-08
2.20746e-08
2.51961e-08
1.94107e-08
1.23459e-08
8.99007e-09
7.99736e-09
8.01124e-09
9.11584e-09
1.01738e-08
7.83966e-09
2.79599e-09
1.51583e-09
8.30374e-09
1.84034e-08
2.36365e-08
2.26258e-08
1.99186e-08
1.75084e-08
1.44183e-08
1.05345e-08
9.48497e-09
1.50414e-08
2.36355e-08
2.73759e-08
2.35025e-08
1.57533e-08
8.80081e-09
5.43253e-09
4.94223e-09
4.69587e-09
3.79439e-09
5.19242e-09
1.30589e-08
2.46298e-08
3.0686e-08
2.65406e-08
1.72518e-08
9.66166e-09
7.74678e-09
1.32473e-08
2.21219e-08
2.54057e-08
1.96679e-08
1.2536e-08
9.13003e-09
8.09571e-09
8.05383e-09
9.13843e-09
1.02448e-08
7.99e-09
2.87662e-09
1.34196e-09
8.07616e-09
1.84557e-08
2.39856e-08
2.29877e-08
2.01086e-08
1.75408e-08
1.4394e-08
1.04596e-08
9.27805e-09
1.48301e-08
2.36456e-08
2.76228e-08
2.38366e-08
1.6028e-08
8.94189e-09
5.46852e-09
4.93663e-09
4.67059e-09
3.73237e-09
5.10732e-09
1.30451e-08
2.47639e-08
3.08521e-08
2.66023e-08
1.72125e-08
9.57334e-09
7.57922e-09
1.30925e-08
2.21777e-08
2.57168e-08
2.00087e-08
1.27778e-08
9.3237e-09
8.21376e-09
8.05461e-09
9.1037e-09
1.03245e-08
8.18446e-09
2.95249e-09
1.14397e-09
7.94627e-09
1.88068e-08
2.47262e-08
2.36803e-08
2.05385e-08
1.77259e-08
1.44652e-08
1.04346e-08
9.0058e-09
1.4453e-08
2.35731e-08
2.79734e-08
2.43901e-08
1.65013e-08
9.17564e-09
5.51088e-09
4.90625e-09
4.60402e-09
3.61309e-09
5.01528e-09
1.31438e-08
2.51145e-08
3.119e-08
2.67001e-08
1.71005e-08
9.38503e-09
7.31787e-09
1.29214e-08
2.232e-08
2.61595e-08
2.03965e-08
1.3035e-08
9.58297e-09
8.38623e-09
8.02708e-09
9.0164e-09
1.04185e-08
8.4366e-09
3.01818e-09
9.17541e-10
7.81874e-09
1.92821e-08
2.57102e-08
2.46388e-08
2.11914e-08
1.80698e-08
1.46453e-08
1.05157e-08
8.78287e-09
1.39388e-08
2.32633e-08
2.82033e-08
2.50214e-08
1.71611e-08
9.54775e-09
5.5989e-09
4.86108e-09
4.50437e-09
3.44984e-09
4.89333e-09
1.33e-08
2.55815e-08
3.16668e-08
2.69351e-08
1.70916e-08
9.22493e-09
7.05473e-09
1.28659e-08
2.27025e-08
2.67721e-08
2.07774e-08
1.32246e-08
9.88007e-09
8.6888e-09
8.07555e-09
8.95372e-09
1.05996e-08
8.78899e-09
3.12529e-09
6.46649e-10
7.68804e-09
1.97731e-08
2.67142e-08
2.574e-08
2.20428e-08
1.85263e-08
1.48696e-08
1.06937e-08
8.76243e-09
1.35094e-08
2.27411e-08
2.80929e-08
2.54502e-08
1.78611e-08
1.00581e-08
5.77805e-09
4.8556e-09
4.38679e-09
3.2004e-09
4.66881e-09
1.34194e-08
2.60509e-08
3.20443e-08
2.69728e-08
1.70227e-08
9.35907e-09
7.19846e-09
1.31902e-08
2.35023e-08
2.78005e-08
2.12789e-08
1.33177e-08
1.01341e-08
9.10091e-09
8.25798e-09
9.02029e-09
1.10841e-08
9.50639e-09
3.40705e-09
3.75722e-10
6.8965e-09
2.00837e-08
2.81645e-08
2.72306e-08
2.32559e-08
1.92195e-08
1.50687e-08
1.07739e-08
8.975e-09
1.3521e-08
2.23543e-08
2.775e-08
2.54987e-08
1.8364e-08
1.06095e-08
6.0622e-09
4.93597e-09
4.31297e-09
2.87686e-09
4.19608e-09
1.34072e-08
2.6808e-08
3.29222e-08
2.71047e-08
1.6496e-08
9.03142e-09
7.58229e-09
1.43842e-08
2.53126e-08
2.9699e-08
2.23463e-08
1.35698e-08
1.02763e-08
9.39842e-09
8.45588e-09
9.14459e-09
1.1785e-08
1.1059e-08
4.49294e-09
4.66902e-10
5.39131e-09
1.94019e-08
2.94771e-08
2.94343e-08
2.50579e-08
2.03033e-08
1.54963e-08
1.07443e-08
8.94468e-09
1.40017e-08
2.28945e-08
2.77458e-08
2.52998e-08
1.85199e-08
1.10346e-08
6.41865e-09
5.12466e-09
4.32711e-09
2.54587e-09
3.56443e-09
1.34674e-08
2.81783e-08
3.45713e-08
2.76355e-08
1.56053e-08
7.67782e-09
7.10126e-09
1.55845e-08
2.78747e-08
3.22405e-08
2.39363e-08
1.45058e-08
1.08669e-08
9.50722e-09
8.0885e-09
8.77794e-09
1.2438e-08
1.31823e-08
6.61177e-09
1.41877e-09
3.69184e-09
1.78682e-08
3.05884e-08
3.23331e-08
2.76658e-08
2.17847e-08
1.60924e-08
1.09773e-08
8.82697e-09
1.37244e-08
2.34005e-08
2.88463e-08
2.59394e-08
1.85615e-08
1.11862e-08
6.77025e-09
5.41891e-09
4.37578e-09
2.24096e-09
3.15794e-09
1.42344e-08
3.07214e-08
3.69037e-08
2.81334e-08
1.43903e-08
5.51861e-09
5.25216e-09
1.59748e-08
3.10857e-08
3.59558e-08
2.55564e-08
1.48099e-08
1.12818e-08
1.0047e-08
7.91154e-09
8.06792e-09
1.25371e-08
1.54034e-08
9.7423e-09
3.64023e-09
2.26992e-09
1.52653e-08
3.09091e-08
3.55438e-08
3.11173e-08
2.40259e-08
1.69398e-08
1.12516e-08
8.78563e-09
1.30124e-08
2.2214e-08
2.83224e-08
2.66614e-08
1.97197e-08
1.18753e-08
7.14387e-09
5.84917e-09
4.46899e-09
1.87729e-09
3.179e-09
1.65628e-08
3.56535e-08
4.11814e-08
2.97845e-08
1.40245e-08
3.80838e-09
2.64156e-09
1.48231e-08
3.35053e-08
4.01606e-08
2.77914e-08
1.55022e-08
1.16868e-08
1.0494e-08
7.91587e-09
7.49694e-09
1.22831e-08
1.72592e-08
1.35488e-08
6.92466e-09
1.57666e-09
1.12829e-08
2.87086e-08
3.75951e-08
3.54861e-08
2.71892e-08
1.85021e-08
1.17463e-08
8.67272e-09
1.19104e-08
2.0362e-08
2.63617e-08
2.5467e-08
1.99096e-08
1.29456e-08
8.11922e-09
6.47792e-09
4.7288e-09
1.56822e-09
3.56067e-09
2.04936e-08
4.35558e-08
4.87817e-08
3.45688e-08
1.66087e-08
4.61857e-09
7.0531e-10
1.13837e-08
3.23045e-08
4.17627e-08
2.98758e-08
1.71641e-08
1.34693e-08
1.1957e-08
8.46088e-09
7.10665e-09
1.14056e-08
1.79596e-08
1.70761e-08
1.00157e-08
1.74389e-09
6.86766e-09
2.32538e-08
3.60059e-08
3.84621e-08
3.18516e-08
2.12629e-08
1.25978e-08
8.70179e-09
1.10309e-08
1.82587e-08
2.35078e-08
2.28063e-08
1.79264e-08
1.24685e-08
8.75048e-09
7.25873e-09
5.16211e-09
1.69446e-09
4.18259e-09
2.38123e-08
5.06114e-08
5.69743e-08
4.16608e-08
2.21187e-08
8.01941e-09
6.84755e-10
6.21892e-09
2.57341e-08
3.84893e-08
3.10814e-08
2.00189e-08
1.67308e-08
1.46924e-08
1.0053e-08
7.21299e-09
9.9897e-09
1.6516e-08
1.8481e-08
1.14053e-08
2.16478e-09
3.22509e-09
1.61891e-08
3.03232e-08
3.75115e-08
3.52194e-08
2.46044e-08
1.39922e-08
8.85717e-09
1.04142e-08
1.68878e-08
2.1406e-08
2.00439e-08
1.51288e-08
1.02352e-08
7.86493e-09
7.59371e-09
6.16587e-09
2.8279e-09
5.25245e-09
2.33096e-08
5.0333e-08
5.90272e-08
4.63507e-08
2.72633e-08
1.17315e-08
1.99582e-09
1.99984e-09
1.60568e-08
3.05304e-08
3.00729e-08
2.32001e-08
2.04779e-08
1.76474e-08
1.24436e-08
8.45576e-09
8.92904e-09
1.35774e-08
1.71329e-08
1.06734e-08
2.45712e-09
1.01503e-09
9.70755e-09
2.25729e-08
3.26701e-08
3.50868e-08
2.67757e-08
1.49807e-08
9.049e-09
1.01039e-08
1.62344e-08
2.09741e-08
1.95599e-08
1.40779e-08
8.73734e-09
6.58865e-09
7.39416e-09
7.21573e-09
4.64072e-09
6.56807e-09
2.0808e-08
4.39971e-08
5.59448e-08
4.72862e-08
3.04153e-08
1.48387e-08
3.79873e-09
2.3501e-10
7.85065e-09
2.09366e-08
2.68999e-08
2.6109e-08
2.37156e-08
1.98393e-08
1.44233e-08
9.95828e-09
8.68893e-09
1.06483e-08
1.40276e-08
9.47667e-09
3.41676e-09
4.15846e-10
4.94388e-09
1.49905e-08
2.60037e-08
3.17605e-08
2.65508e-08
1.54672e-08
8.98132e-09
9.87276e-09
1.57588e-08
2.0952e-08
2.06277e-08
1.55765e-08
9.60526e-09
6.56046e-09
7.12262e-09
7.18705e-09
5.12821e-09
6.83167e-09
1.78622e-08
3.67833e-08
4.91963e-08
4.53621e-08
3.27335e-08
1.83335e-08
6.35354e-09
5.23795e-10
3.36826e-09
1.38116e-08
2.31252e-08
2.6747e-08
2.5514e-08
2.13871e-08
1.61633e-08
1.14997e-08
8.73154e-09
8.7344e-09
1.08129e-08
8.56036e-09
4.95284e-09
1.53188e-09
2.48673e-09
9.15206e-09
1.9249e-08
2.64955e-08
2.37783e-08
1.44815e-08
8.78716e-09
9.96123e-09
1.55792e-08
2.04719e-08
2.07419e-08
1.69948e-08
1.1613e-08
7.9734e-09
7.41105e-09
6.78986e-09
4.92107e-09
6.96844e-09
1.60899e-08
3.01884e-08
3.99607e-08
3.86477e-08
3.20491e-08
2.15706e-08
9.44788e-09
1.96811e-09
1.54304e-09
9.03396e-09
1.86039e-08
2.44972e-08
2.55629e-08
2.33507e-08
1.8926e-08
1.32673e-08
8.78707e-09
7.59146e-09
8.66451e-09
8.10248e-09
6.3553e-09
3.56387e-09
2.73885e-09
6.55246e-09
1.39964e-08
2.03128e-08
1.9405e-08
1.25655e-08
8.11943e-09
9.75707e-09
1.54665e-08
2.10169e-08
2.12603e-08
1.75993e-08
1.25151e-08
9.04556e-09
8.11684e-09
7.04933e-09
5.45644e-09
7.96607e-09
1.59095e-08
2.55411e-08
3.08352e-08
2.94747e-08
2.66289e-08
2.11568e-08
1.15945e-08
4.07381e-09
1.58209e-09
5.7474e-09
1.47516e-08
2.24763e-08
2.47995e-08
2.3107e-08
1.96846e-08
1.48977e-08
9.95359e-09
7.1904e-09
7.40187e-09
7.35888e-09
7.78233e-09
6.2457e-09
4.87122e-09
6.12665e-09
9.99185e-09
1.40002e-08
1.38725e-08
1.00395e-08
7.57756e-09
9.70601e-09
1.54782e-08
2.13346e-08
2.24319e-08
1.94746e-08
1.41144e-08
9.53419e-09
7.60729e-09
6.6548e-09
6.05191e-09
8.93848e-09
1.59481e-08
2.35196e-08
2.65696e-08
2.45161e-08
2.15989e-08
1.88864e-08
1.21769e-08
5.42918e-09
2.34835e-09
5.64668e-09
1.41653e-08
2.24232e-08
2.54863e-08
2.34736e-08
1.90431e-08
1.40029e-08
9.13765e-09
5.68792e-09
5.83277e-09
7.10279e-09
8.85386e-09
8.32587e-09
7.44673e-09
8.92901e-09
1.10229e-08
1.11701e-08
9.18694e-09
6.62536e-09
6.01033e-09
8.67335e-09
1.42178e-08
2.03317e-08
2.35718e-08
2.2406e-08
1.78625e-08
1.25694e-08
9.06158e-09
7.40896e-09
6.58446e-09
8.09515e-09
1.2263e-08
1.81634e-08
2.29244e-08
2.36169e-08
2.12791e-08
1.86421e-08
1.23449e-08
5.26505e-09
2.43917e-09
6.17153e-09
1.44762e-08
2.17615e-08
2.44372e-08
2.31015e-08
1.91667e-08
1.3634e-08
8.18785e-09
4.55621e-09
4.62277e-09
6.09703e-09
8.36228e-09
9.61133e-09
9.78517e-09
1.05266e-08
1.15949e-08
1.14206e-08
9.65956e-09
7.14056e-09
5.70359e-09
6.70769e-09
9.57733e-09
1.40174e-08
1.87566e-08
2.14863e-08
2.03471e-08
1.65696e-08
1.3328e-08
1.17661e-08
1.0015e-08
7.99329e-09
8.1264e-09
1.16549e-08
1.83924e-08
2.40058e-08
2.44008e-08
2.02008e-08
1.3303e-08
5.51606e-09
2.21464e-09
5.29802e-09
1.31694e-08
2.07703e-08
2.4253e-08
2.33694e-08
1.93358e-08
1.32488e-08
8.12969e-09
5.08681e-09
4.48766e-09
4.29629e-09
5.88402e-09
9.17423e-09
1.28469e-08
1.53491e-08
1.51928e-08
1.20619e-08
8.38676e-09
6.52974e-09
6.52554e-09
7.42091e-09
8.50616e-09
1.00815e-08
1.3135e-08
1.71507e-08
1.95616e-08
1.86915e-08
1.64533e-08
1.47112e-08
1.26666e-08
9.40643e-09
7.04571e-09
9.1613e-09
1.68378e-08
2.58076e-08
2.78614e-08
2.22745e-08
1.38863e-08
5.09841e-09
1.01094e-09
4.30965e-09
1.49924e-08
2.63916e-08
3.03769e-08
2.68963e-08
2.02829e-08
1.39013e-08
9.17531e-09
6.39688e-09
4.70707e-09
7.71995e-09
5.46495e-09
5.26992e-09
7.94213e-09
1.19532e-08
1.4216e-08
1.29573e-08
9.494e-09
7.12457e-09
6.81251e-09
7.77792e-09
8.95954e-09
9.98918e-09
1.11593e-08
1.30776e-08
1.53666e-08
1.70452e-08
1.80652e-08
1.76405e-08
1.5089e-08
1.09935e-08
7.96529e-09
8.56128e-09
1.43188e-08
2.28494e-08
2.74164e-08
2.47049e-08
1.73987e-08
7.32806e-09
8.78137e-10
2.41483e-09
1.39646e-08
2.92078e-08
3.74542e-08
3.38331e-08
2.3888e-08
1.39835e-08
8.88064e-09
8.28252e-09
8.71589e-09
9.47898e-09
8.3499e-09
6.48165e-09
6.16559e-09
7.25189e-09
9.15463e-09
1.04801e-08
1.05837e-08
9.70315e-09
9.19838e-09
9.1676e-09
9.52161e-09
1.05452e-08
1.19236e-08
1.29373e-08
1.33807e-08
1.40583e-08
1.51204e-08
1.59074e-08
1.50442e-08
1.21081e-08
9.27929e-09
8.86926e-09
1.227e-08
1.80868e-08
2.16898e-08
2.00827e-08
1.47997e-08
7.61317e-09
2.09198e-09
2.17517e-09
9.67947e-09
2.12281e-08
2.92239e-08
2.90075e-08
2.27327e-08
1.54034e-08
1.06711e-08
9.25351e-09
9.48944e-09
9.7254e-09
6.89564e-09
4.25271e-09
4.26654e-09
6.97334e-09
1.0865e-08
1.38093e-08
1.48485e-08
1.38595e-08
1.21524e-08
1.04302e-08
9.03709e-09
8.48642e-09
9.37153e-09
1.16961e-08
1.44802e-08
1.61686e-08
1.68643e-08
1.62564e-08
1.44346e-08
1.19173e-08
9.40327e-09
7.96204e-09
8.73082e-09
1.25221e-08
1.7364e-08
1.9129e-08
1.58859e-08
9.70384e-09
4.27039e-09
2.96266e-09
7.27613e-09
1.54673e-08
2.27234e-08
2.48371e-08
2.20754e-08
1.67918e-08
1.29904e-08
1.1718e-08
1.14128e-08
1.09218e-08
7.5679e-09
4.16527e-09
3.14075e-09
5.60422e-09
1.03536e-08
1.49874e-08
1.71737e-08
1.65662e-08
1.44033e-08
1.17867e-08
1.01112e-08
1.01248e-08
1.1303e-08
1.24697e-08
1.33834e-08
1.48514e-08
1.69192e-08
1.86922e-08
1.77106e-08
1.33844e-08
8.69259e-09
5.62287e-09
5.03389e-09
7.86066e-09
1.33914e-08
1.79089e-08
1.77356e-08
1.38646e-08
8.56778e-09
5.11926e-09
6.6737e-09
1.21404e-08
1.83593e-08
2.1896e-08
2.1306e-08
1.83848e-08
1.52555e-08
1.33459e-08
1.24213e-08
4.17076e-09
4.40154e-15
5.26266e-09
1.72516e-08
2.7349e-08
3.03288e-08
2.65951e-08
1.91545e-08
1.19715e-08
1.0021e-08
1.56414e-08
2.2903e-08
2.39907e-08
1.87977e-08
1.20069e-08
7.3091e-09
6.1256e-09
7.11024e-09
7.13777e-09
5.17761e-09
4.82795e-09
1.21496e-08
2.73927e-08
4.01801e-08
3.94767e-08
2.66499e-08
1.45117e-08
9.93818e-09
9.97859e-09
1.16944e-08
1.4151e-08
1.55737e-08
1.45365e-08
1.18159e-08
8.85116e-09
8.0803e-09
1.09857e-08
1.50426e-08
1.60007e-08
1.15631e-08
4.39877e-09
5.21136e-12
4.92977e-09
1.67724e-08
2.69942e-08
3.01712e-08
2.65633e-08
1.91496e-08
1.19406e-08
9.95756e-09
1.56229e-08
2.29997e-08
2.41368e-08
1.8906e-08
1.20691e-08
7.3379e-09
6.14075e-09
7.13006e-09
7.16543e-09
5.18758e-09
4.75058e-09
1.18801e-08
2.6952e-08
3.97779e-08
3.93243e-08
2.67085e-08
1.46072e-08
1.00493e-08
1.01298e-08
1.18056e-08
1.41884e-08
1.56402e-08
1.47039e-08
1.20284e-08
9.02207e-09
8.2024e-09
1.10813e-08
1.515e-08
1.61581e-08
1.17974e-08
4.80709e-09
2.85792e-11
4.65091e-09
1.65525e-08
2.70619e-08
3.04399e-08
2.6831e-08
1.92899e-08
1.19139e-08
9.80154e-09
1.55303e-08
2.31156e-08
2.43596e-08
1.90804e-08
1.2153e-08
7.3559e-09
6.13953e-09
7.15667e-09
7.215e-09
5.19498e-09
4.65033e-09
1.16357e-08
2.66741e-08
3.96383e-08
3.93789e-08
2.68179e-08
1.46475e-08
1.01081e-08
1.02788e-08
1.18691e-08
1.40811e-08
1.55662e-08
1.48582e-08
1.23378e-08
9.26834e-09
8.29577e-09
1.11444e-08
1.53564e-08
1.65718e-08
1.23363e-08
5.44372e-09
9.10771e-11
4.50833e-09
1.67319e-08
2.76712e-08
3.11956e-08
2.74368e-08
1.96037e-08
1.19166e-08
9.55472e-09
1.53034e-08
2.31884e-08
2.46351e-08
1.93163e-08
1.22538e-08
7.34918e-09
6.10966e-09
7.17969e-09
7.28274e-09
5.19976e-09
4.55021e-09
1.15343e-08
2.67671e-08
3.99431e-08
3.96868e-08
2.69127e-08
1.45306e-08
1.0022e-08
1.03845e-08
1.19156e-08
1.38804e-08
1.53289e-08
1.48859e-08
1.26458e-08
9.57186e-09
8.39356e-09
1.1222e-08
1.57522e-08
1.73722e-08
1.33038e-08
6.43116e-09
2.4339e-10
4.48155e-09
1.7261e-08
2.87717e-08
3.23921e-08
2.83748e-08
2.01205e-08
1.20392e-08
9.33474e-09
1.49538e-08
2.30732e-08
2.47968e-08
1.95327e-08
1.23599e-08
7.32227e-09
6.05263e-09
7.20282e-09
7.35297e-09
5.18609e-09
4.4514e-09
1.15762e-08
2.72029e-08
4.06336e-08
4.0253e-08
2.70814e-08
1.4365e-08
9.87222e-09
1.04741e-08
1.20312e-08
1.37354e-08
1.4997e-08
1.46532e-08
1.27273e-08
9.79544e-09
8.51773e-09
1.14099e-08
1.64385e-08
1.86586e-08
1.48148e-08
7.97427e-09
5.85295e-10
4.45952e-09
1.78972e-08
3.01218e-08
3.38685e-08
2.95476e-08
2.08078e-08
1.23225e-08
9.3425e-09
1.47335e-08
2.28049e-08
2.46529e-08
1.95352e-08
1.2402e-08
7.2864e-09
5.98403e-09
7.23441e-09
7.45e-09
5.1552e-09
4.27383e-09
1.15403e-08
2.75862e-08
4.13915e-08
4.09972e-08
2.74936e-08
1.44593e-08
1.0006e-08
1.08403e-08
1.24096e-08
1.38654e-08
1.48104e-08
1.42124e-08
1.23942e-08
9.70277e-09
8.57205e-09
1.1832e-08
1.76068e-08
2.05949e-08
1.7038e-08
1.0553e-08
1.33736e-09
4.27485e-09
1.82901e-08
3.14275e-08
3.53881e-08
3.07746e-08
2.15495e-08
1.26489e-08
9.56113e-09
1.49513e-08
2.2832e-08
2.44375e-08
1.92499e-08
1.22209e-08
7.18834e-09
5.91914e-09
7.29537e-09
7.60049e-09
5.12493e-09
3.85357e-09
1.10083e-08
2.76212e-08
4.23355e-08
4.22783e-08
2.82483e-08
1.46362e-08
1.0464e-08
1.19811e-08
1.36615e-08
1.46921e-08
1.51913e-08
1.39462e-08
1.17753e-08
9.14663e-09
8.3156e-09
1.24248e-08
1.95088e-08
2.34991e-08
2.03301e-08
1.4357e-08
2.8326e-09
3.62955e-09
1.76855e-08
3.2363e-08
3.71086e-08
3.22687e-08
2.25274e-08
1.31378e-08
9.60746e-09
1.48613e-08
2.29481e-08
2.47151e-08
1.92489e-08
1.19498e-08
6.94404e-09
5.7864e-09
7.35882e-09
7.80705e-09
5.14362e-09
3.18312e-09
9.78653e-09
2.72009e-08
4.36801e-08
4.45938e-08
2.98955e-08
1.48463e-08
1.05659e-08
1.33786e-08
1.58783e-08
1.64581e-08
1.63919e-08
1.45125e-08
1.16536e-08
8.53251e-09
7.65286e-09
1.2799e-08
2.17044e-08
2.70637e-08
2.43914e-08
1.90259e-08
5.37064e-09
2.73722e-09
1.56854e-08
3.1842e-08
3.88952e-08
3.4382e-08
2.39438e-08
1.39941e-08
9.77845e-09
1.40534e-08
2.17759e-08
2.42371e-08
1.96395e-08
1.23444e-08
6.89253e-09
5.55638e-09
7.28864e-09
7.96093e-09
5.21871e-09
2.57489e-09
8.18938e-09
2.57641e-08
4.35148e-08
4.55676e-08
3.10806e-08
1.49828e-08
1.00599e-08
1.41898e-08
1.86058e-08
1.92416e-08
1.79893e-08
1.49971e-08
1.19886e-08
8.88234e-09
7.37802e-09
1.25465e-08
2.30514e-08
3.04556e-08
2.87531e-08
2.40881e-08
9.18377e-09
2.22398e-09
1.27869e-08
3.00291e-08
4.01776e-08
3.7164e-08
2.59916e-08
1.52088e-08
1.01208e-08
1.34087e-08
2.02637e-08
2.27006e-08
1.9155e-08
1.28601e-08
7.55948e-09
5.72286e-09
7.13455e-09
7.88923e-09
5.21055e-09
2.32896e-09
7.28429e-09
2.44889e-08
4.19588e-08
4.33387e-08
2.93569e-08
1.38134e-08
8.67798e-09
1.39714e-08
2.13606e-08
2.32563e-08
2.09953e-08
1.59742e-08
1.19636e-08
9.22562e-09
7.74788e-09
1.25806e-08
2.30728e-08
3.23246e-08
3.28719e-08
2.88378e-08
1.38989e-08
2.76359e-09
9.39745e-09
2.71637e-08
4.09248e-08
4.07576e-08
2.86824e-08
1.64324e-08
1.04169e-08
1.27832e-08
1.889e-08
2.09971e-08
1.78772e-08
1.25368e-08
8.06984e-09
6.4314e-09
7.47426e-09
7.81768e-09
4.96621e-09
2.35124e-09
7.823e-09
2.52152e-08
4.13765e-08
4.01151e-08
2.59076e-08
1.14838e-08
6.38286e-09
1.21973e-08
2.28387e-08
2.78636e-08
2.54004e-08
1.85355e-08
1.31551e-08
1.0114e-08
8.35347e-09
1.22977e-08
2.18082e-08
3.19098e-08
3.54696e-08
3.1109e-08
1.76177e-08
4.16502e-09
5.75485e-09
2.23036e-08
3.97374e-08
4.40434e-08
3.24695e-08
1.81024e-08
1.0385e-08
1.19853e-08
1.78932e-08
1.99215e-08
1.66893e-08
1.17081e-08
7.99529e-09
6.93081e-09
8.04221e-09
8.09827e-09
4.89667e-09
2.82686e-09
9.8328e-09
2.82806e-08
4.34291e-08
3.86266e-08
2.38862e-08
1.03761e-08
4.52817e-09
8.82139e-09
2.07263e-08
2.98062e-08
2.91455e-08
2.19087e-08
1.56915e-08
1.21096e-08
9.90501e-09
1.25239e-08
2.02298e-08
2.94917e-08
3.51372e-08
2.96808e-08
1.87686e-08
5.56717e-09
2.97199e-09
1.60957e-08
3.5115e-08
4.43111e-08
3.6203e-08
2.03668e-08
1.07262e-08
1.14851e-08
1.76038e-08
2.00865e-08
1.63817e-08
1.08042e-08
7.35137e-09
7.04473e-09
8.59087e-09
8.66574e-09
5.52726e-09
3.85939e-09
1.17776e-08
3.07647e-08
4.54536e-08
3.91658e-08
2.46175e-08
1.18746e-08
4.70138e-09
5.86756e-09
1.53685e-08
2.61306e-08
2.91953e-08
2.47209e-08
1.92991e-08
1.54592e-08
1.21855e-08
1.27544e-08
1.8437e-08
2.60994e-08
3.20019e-08
2.52259e-08
1.68395e-08
5.89572e-09
1.31967e-09
1.01014e-08
2.78649e-08
4.06398e-08
3.70957e-08
2.29332e-08
1.1554e-08
1.15952e-08
1.80098e-08
2.11519e-08
1.72253e-08
1.07939e-08
6.89345e-09
6.96925e-09
9.05867e-09
9.35343e-09
6.34756e-09
4.89503e-09
1.17529e-08
2.82788e-08
4.12836e-08
3.79581e-08
2.59908e-08
1.46899e-08
6.58239e-09
4.82021e-09
1.03127e-08
1.92857e-08
2.46828e-08
2.43495e-08
2.20097e-08
1.94738e-08
1.55408e-08
1.29286e-08
1.56869e-08
2.18155e-08
2.70673e-08
1.97347e-08
1.3228e-08
5.08044e-09
4.81191e-10
5.59986e-09
2.03037e-08
3.42447e-08
3.53362e-08
2.38382e-08
1.30364e-08
1.21204e-08
1.81496e-08
2.19583e-08
1.89584e-08
1.24573e-08
8.1165e-09
7.20539e-09
8.13729e-09
7.88702e-09
5.65982e-09
5.58509e-09
1.1694e-08
2.42799e-08
3.57324e-08
3.5659e-08
2.74369e-08
1.74157e-08
8.45584e-09
4.6352e-09
7.11655e-09
1.36374e-08
1.99001e-08
2.2466e-08
2.27417e-08
2.13266e-08
1.79498e-08
1.40534e-08
1.32594e-08
1.69323e-08
2.10943e-08
1.42654e-08
9.52431e-09
3.76944e-09
1.50483e-10
2.62116e-09
1.29969e-08
2.53044e-08
2.97678e-08
2.28338e-08
1.38707e-08
1.32081e-08
1.87182e-08
2.25991e-08
2.0553e-08
1.4269e-08
9.27566e-09
7.57576e-09
7.64951e-09
6.51295e-09
4.74365e-09
6.45374e-09
1.34453e-08
2.34902e-08
3.15357e-08
3.21863e-08
2.77248e-08
2.02557e-08
1.10646e-08
4.76094e-09
4.73643e-09
1.02717e-08
1.7167e-08
2.14342e-08
2.28687e-08
2.29924e-08
2.01209e-08
1.51051e-08
1.13943e-08
1.20093e-08
1.48771e-08
1.14671e-08
7.52078e-09
2.89965e-09
7.6555e-10
2.785e-09
8.28438e-09
1.44605e-08
1.82275e-08
1.73086e-08
1.39883e-08
1.46347e-08
2.05363e-08
2.44361e-08
2.22204e-08
1.57633e-08
1.00355e-08
7.81919e-09
7.78881e-09
6.55474e-09
4.80875e-09
7.02688e-09
1.47061e-08
2.34913e-08
2.81643e-08
2.75428e-08
2.45964e-08
1.98587e-08
1.22053e-08
5.80253e-09
4.05038e-09
7.98483e-09
1.51718e-08
2.08409e-08
2.31345e-08
2.32129e-08
2.10878e-08
1.62496e-08
1.05956e-08
8.80908e-09
1.11708e-08
1.01942e-08
8.18626e-09
4.73158e-09
3.25377e-09
5.07326e-09
7.68046e-09
8.99417e-09
9.27266e-09
9.88866e-09
1.10989e-08
1.4762e-08
2.1919e-08
2.65426e-08
2.45508e-08
1.73766e-08
1.09461e-08
7.67497e-09
7.19971e-09
6.78378e-09
5.64941e-09
7.45851e-09
1.39603e-08
2.23167e-08
2.74018e-08
2.6403e-08
2.23751e-08
1.79605e-08
1.18716e-08
6.11078e-09
3.96305e-09
7.2843e-09
1.40671e-08
1.99991e-08
2.31043e-08
2.34402e-08
2.07639e-08
1.5318e-08
9.21576e-09
6.60893e-09
8.29181e-09
9.62633e-09
1.03129e-08
7.64994e-09
6.61171e-09
9.17179e-09
1.11628e-08
8.67348e-09
5.1071e-09
4.36286e-09
6.38496e-09
1.09003e-08
1.76813e-08
2.42594e-08
2.61742e-08
2.22748e-08
1.57531e-08
1.01152e-08
7.21963e-09
6.71132e-09
6.54843e-09
7.46665e-09
1.15064e-08
1.84098e-08
2.53469e-08
2.75801e-08
2.40785e-08
1.76873e-08
1.10563e-08
5.56376e-09
3.87209e-09
7.0826e-09
1.32374e-08
1.86776e-08
2.18815e-08
2.23419e-08
1.98561e-08
1.49314e-08
8.88053e-09
5.18638e-09
6.29727e-09
8.07021e-09
1.0409e-08
1.07628e-08
9.48624e-09
9.32557e-09
9.93357e-09
9.24138e-09
7.20829e-09
5.26e-09
4.65868e-09
6.35682e-09
1.06835e-08
1.64063e-08
2.06746e-08
2.158e-08
1.92007e-08
1.52124e-08
1.17548e-08
9.78928e-09
8.17508e-09
6.85494e-09
7.60589e-09
1.22685e-08
2.05012e-08
2.76661e-08
2.76505e-08
2.03776e-08
1.15057e-08
5.25245e-09
3.88224e-09
7.57177e-09
1.36168e-08
1.80712e-08
1.96565e-08
1.91276e-08
1.67399e-08
1.32197e-08
8.94031e-09
5.85506e-09
5.77323e-09
6.23988e-09
8.40617e-09
1.06105e-08
1.21573e-08
1.34264e-08
1.32683e-08
1.04516e-08
6.83959e-09
4.98273e-09
4.8804e-09
5.65614e-09
7.35475e-09
1.03919e-08
1.46939e-08
1.83592e-08
1.99061e-08
1.92928e-08
1.74324e-08
1.46298e-08
1.10001e-08
7.7307e-09
7.18733e-09
1.09257e-08
1.81432e-08
2.49307e-08
2.52944e-08
1.91253e-08
1.08137e-08
4.65351e-09
3.10926e-09
7.39304e-09
1.56317e-08
2.18362e-08
2.30301e-08
1.96033e-08
1.52418e-08
1.21641e-08
9.55693e-09
7.01932e-09
5.55248e-09
8.81669e-09
7.11546e-09
7.12264e-09
9.17074e-09
1.19138e-08
1.30853e-08
1.1109e-08
7.57615e-09
5.35946e-09
5.53182e-09
6.96222e-09
8.12893e-09
8.73622e-09
9.6055e-09
1.17499e-08
1.45468e-08
1.74261e-08
1.9557e-08
1.96068e-08
1.62391e-08
1.20175e-08
9.90709e-09
1.11226e-08
1.53592e-08
2.03963e-08
2.19526e-08
1.84618e-08
1.19329e-08
5.62119e-09
2.16377e-09
5.01124e-09
1.39218e-08
2.32852e-08
2.72029e-08
2.41108e-08
1.71776e-08
1.11517e-08
8.81577e-09
9.08196e-09
9.68159e-09
9.79039e-09
8.65958e-09
7.40748e-09
7.63493e-09
8.86507e-09
9.87791e-09
9.50079e-09
8.02496e-09
6.86944e-09
7.26793e-09
8.88924e-09
1.05351e-08
1.14821e-08
1.15889e-08
1.08604e-08
1.01472e-08
1.08927e-08
1.31942e-08
1.54273e-08
1.53623e-08
1.28152e-08
1.02626e-08
1.10295e-08
1.48219e-08
1.91348e-08
2.04216e-08
1.75715e-08
1.24378e-08
7.07431e-09
3.27473e-09
4.10285e-09
1.06024e-08
1.9561e-08
2.52702e-08
2.43651e-08
1.87975e-08
1.33917e-08
1.03334e-08
9.79763e-09
1.01532e-08
1.00339e-08
7.75698e-09
5.59931e-09
5.40689e-09
6.99407e-09
9.0765e-09
1.06667e-08
1.13045e-08
1.15204e-08
1.12465e-08
1.05616e-08
9.54686e-09
9.11299e-09
9.98336e-09
1.19335e-08
1.37497e-08
1.44682e-08
1.43859e-08
1.40099e-08
1.29853e-08
1.12906e-08
9.60046e-09
9.28614e-09
1.07594e-08
1.36627e-08
1.65247e-08
1.68941e-08
1.39081e-08
9.05847e-09
5.01897e-09
4.52506e-09
8.73889e-09
1.58295e-08
2.16678e-08
2.26118e-08
1.92928e-08
1.4957e-08
1.22621e-08
1.16062e-08
1.14135e-08
1.07132e-08
7.38961e-09
4.25487e-09
3.24317e-09
5.13869e-09
9.04286e-09
1.3111e-08
1.58395e-08
1.62129e-08
1.48931e-08
1.26072e-08
1.06389e-08
1.01259e-08
1.1001e-08
1.22041e-08
1.32683e-08
1.45882e-08
1.61743e-08
1.72367e-08
1.60864e-08
1.23601e-08
8.25456e-09
5.9567e-09
6.19387e-09
9.08716e-09
1.34603e-08
1.64032e-08
1.59531e-08
1.25377e-08
8.56549e-09
6.51119e-09
8.19062e-09
1.24374e-08
1.67852e-08
1.87629e-08
1.83982e-08
1.66918e-08
1.51255e-08
1.40015e-08
1.28519e-08
5.03752e-09
2.19928e-09
1.63076e-09
5.20837e-09
1.24697e-08
1.99702e-08
2.31139e-08
1.99165e-08
1.32191e-08
9.03427e-09
1.13246e-08
1.69681e-08
1.89276e-08
1.54517e-08
1.06708e-08
7.97492e-09
7.99218e-09
8.89074e-09
8.20926e-09
6.393e-09
6.79911e-09
1.26922e-08
2.38179e-08
3.39722e-08
3.59212e-08
2.8683e-08
1.91577e-08
1.27851e-08
1.00175e-08
1.08693e-08
1.48151e-08
1.88705e-08
1.93094e-08
1.61289e-08
1.17118e-08
8.74394e-09
8.14358e-09
8.68226e-09
8.76954e-09
7.5257e-09
5.11816e-09
2.21666e-09
1.5574e-09
5.06221e-09
1.23041e-08
1.98431e-08
2.3085e-08
1.9966e-08
1.32862e-08
9.07253e-09
1.13407e-08
1.69993e-08
1.89804e-08
1.54895e-08
1.06745e-08
7.96097e-09
7.98406e-09
8.90027e-09
8.22058e-09
6.37774e-09
6.73559e-09
1.25604e-08
2.36183e-08
3.37372e-08
3.5731e-08
2.85693e-08
1.90811e-08
1.27174e-08
9.90042e-09
1.06786e-08
1.46459e-08
1.89107e-08
1.9611e-08
1.65353e-08
1.20283e-08
8.93158e-09
8.26942e-09
8.79013e-09
8.89099e-09
7.64058e-09
5.20462e-09
2.21135e-09
1.46076e-09
4.9416e-09
1.22385e-08
1.98888e-08
2.32443e-08
2.01559e-08
1.3404e-08
9.06869e-09
1.12844e-08
1.70113e-08
1.90634e-08
1.55429e-08
1.06654e-08
7.94266e-09
7.99376e-09
8.94532e-09
8.25333e-09
6.35643e-09
6.64123e-09
1.24143e-08
2.34711e-08
3.36536e-08
3.57273e-08
2.8589e-08
1.90501e-08
1.26793e-08
9.75726e-09
1.03365e-08
1.42095e-08
1.87467e-08
1.99777e-08
1.72165e-08
1.26016e-08
9.2383e-09
8.42546e-09
8.91066e-09
9.01173e-09
7.7634e-09
5.30601e-09
2.18177e-09
1.33695e-09
4.8484e-09
1.22913e-08
2.01417e-08
2.36202e-08
2.04834e-08
1.35428e-08
8.987e-09
1.11227e-08
1.69857e-08
1.91794e-08
1.56224e-08
1.0662e-08
7.93352e-09
8.05285e-09
9.06221e-09
8.325e-09
6.32282e-09
6.54232e-09
1.23401e-08
2.35355e-08
3.38807e-08
3.59968e-08
2.87398e-08
1.90122e-08
1.26334e-08
9.61658e-09
9.92422e-09
1.35396e-08
1.82735e-08
2.02198e-08
1.80595e-08
1.34408e-08
9.72541e-09
8.67807e-09
9.09183e-09
9.17084e-09
7.91804e-09
5.44973e-09
2.14491e-09
1.18744e-09
4.75568e-09
1.24074e-08
2.05435e-08
2.41639e-08
2.09151e-08
1.36851e-08
8.81911e-09
1.08171e-08
1.68294e-08
1.92291e-08
1.56752e-08
1.06547e-08
7.95134e-09
8.18712e-09
9.28806e-09
8.47151e-09
6.27788e-09
6.42423e-09
1.23752e-08
2.39024e-08
3.4525e-08
3.66692e-08
2.91176e-08
1.89717e-08
1.24989e-08
9.5139e-09
9.64242e-09
1.28726e-08
1.75093e-08
2.00781e-08
1.87806e-08
1.44568e-08
1.04749e-08
9.1511e-09
9.40683e-09
9.41532e-09
8.14119e-09
5.67932e-09
2.13043e-09
1.0151e-09
4.6157e-09
1.25098e-08
2.10323e-08
2.48463e-08
2.14371e-08
1.3848e-08
8.61517e-09
1.03764e-08
1.64153e-08
1.90068e-08
1.5602e-08
1.0601e-08
8.0075e-09
8.42714e-09
9.6563e-09
8.72317e-09
6.23891e-09
6.20732e-09
1.22605e-08
2.42344e-08
3.5435e-08
3.79888e-08
3.01879e-08
1.92865e-08
1.23818e-08
9.42083e-09
9.64796e-09
1.26017e-08
1.67446e-08
1.94505e-08
1.90198e-08
1.54116e-08
1.15058e-08
1.00054e-08
1.00183e-08
9.85305e-09
8.51152e-09
6.11197e-09
2.17524e-09
8.12973e-10
4.37867e-09
1.24099e-08
2.13891e-08
2.55775e-08
2.20855e-08
1.40996e-08
8.48966e-09
9.96021e-09
1.57866e-08
1.83158e-08
1.50103e-08
1.02797e-08
8.04491e-09
8.79591e-09
1.02008e-08
9.11733e-09
6.24334e-09
5.82202e-09
1.1572e-08
2.36956e-08
3.57936e-08
3.97249e-08
3.24399e-08
2.07355e-08
1.29276e-08
9.51363e-09
9.92692e-09
1.30771e-08
1.66464e-08
1.8709e-08
1.86087e-08
1.59576e-08
1.27162e-08
1.14358e-08
1.12558e-08
1.07035e-08
9.21142e-09
6.98198e-09
2.39352e-09
5.68377e-10
4.01008e-09
1.19985e-08
2.12707e-08
2.59732e-08
2.27134e-08
1.45151e-08
8.55646e-09
9.74572e-09
1.51939e-08
1.75648e-08
1.43266e-08
9.80993e-09
7.98583e-09
9.20881e-09
1.09005e-08
9.65695e-09
6.30489e-09
5.2718e-09
1.01858e-08
2.20455e-08
3.53846e-08
4.15572e-08
3.55241e-08
2.31377e-08
1.44449e-08
1.03845e-08
1.02146e-08
1.35948e-08
1.74932e-08
1.91137e-08
1.83962e-08
1.60282e-08
1.38694e-08
1.34628e-08
1.34375e-08
1.23455e-08
1.05572e-08
8.62928e-09
2.93514e-09
3.31036e-10
3.5078e-09
1.14103e-08
2.07774e-08
2.59647e-08
2.31473e-08
1.49928e-08
8.77141e-09
9.50046e-09
1.42883e-08
1.63087e-08
1.35269e-08
9.93058e-09
8.76182e-09
1.02133e-08
1.18533e-08
1.03268e-08
6.43318e-09
4.67152e-09
8.32666e-09
1.94221e-08
3.40182e-08
4.2915e-08
3.86982e-08
2.58039e-08
1.62265e-08
1.20183e-08
1.10491e-08
1.31965e-08
1.71956e-08
1.98776e-08
1.98123e-08
1.71431e-08
1.51068e-08
1.58549e-08
1.64891e-08
1.52248e-08
1.29356e-08
1.13631e-08
4.1607e-09
1.92334e-10
2.88163e-09
1.06829e-08
2.01935e-08
2.57389e-08
2.32982e-08
1.52833e-08
8.87528e-09
9.08902e-09
1.3071e-08
1.45483e-08
1.22239e-08
9.86596e-09
1.01429e-08
1.23634e-08
1.38601e-08
1.15633e-08
6.82245e-09
4.40569e-09
6.62927e-09
1.60555e-08
3.08999e-08
4.21788e-08
4.04062e-08
2.77309e-08
1.72078e-08
1.31712e-08
1.24792e-08
1.32643e-08
1.58124e-08
1.89404e-08
2.07864e-08
1.94972e-08
1.76533e-08
1.85689e-08
1.96586e-08
1.87531e-08
1.63395e-08
1.48098e-08
6.48394e-09
4.38781e-10
1.97995e-09
9.84217e-09
2.01207e-08
2.61781e-08
2.33781e-08
1.49858e-08
8.44436e-09
8.39578e-09
1.19494e-08
1.33391e-08
1.15059e-08
9.86209e-09
1.08647e-08
1.39088e-08
1.59544e-08
1.32907e-08
7.62227e-09
4.73888e-09
6.02776e-09
1.31286e-08
2.62707e-08
3.86778e-08
3.96722e-08
2.8802e-08
1.74001e-08
1.2792e-08
1.29817e-08
1.41436e-08
1.50317e-08
1.67552e-08
1.95206e-08
2.05708e-08
2.05661e-08
2.18218e-08
2.2222e-08
2.1446e-08
1.96929e-08
1.72858e-08
9.19819e-09
1.513e-09
7.98301e-10
8.02011e-09