/*--------------------------------*- C++ -*----------------------------------*\
| =========                 |                                                 |
| \\      /  F ield         | OpenFOAM: The Open Source CFD Toolbox           |
|  \\    /   O peration     | Version:  2306                                  |
|   \\  /    A nd           | Website:  www.openfoam.com                      |
|    \\/     M anipulation  |                                                 |
\*---------------------------------------------------------------------------*/
FoamFile
{
    version     2.0;
    format      ascii;
    arch        "LSB;label=32;scalar=64";
    class       volVectorField;
    location    "5";
    object      U;
}
// * * * * * * * * * * * * * * * * * * * * * * * * * * * * * * * * * * * * * //

dimensions      [0 1 -1 0 0 0 0];

internalField   nonuniform List<vector> 
60000
(
(0.00890682 3.63481e-05 0.00086721)
(0.00950846 4.61725e-05 0.00146854)
(0.00979005 5.3781e-05 0.0021665)
(0.00969319 4.29196e-05 0.00265791)
(0.00934783 1.97335e-05 0.00277368)
(0.00900008 4.24011e-06 0.00256057)
(0.0087688 -2.3927e-06 0.00217381)
(0.00860348 -2.73786e-07 0.00173524)
(0.00843996 1.15492e-06 0.00132893)
(0.00822107 -2.60861e-06 0.00104532)
(0.00781912 -8.91206e-06 0.000942334)
(0.00714461 -1.13887e-05 0.000980814)
(0.00634506 -8.63405e-06 0.00106129)
(0.0057186 -3.22466e-06 0.00111442)
(0.00544866 -2.94672e-06 0.00110626)
(0.00549573 -1.22698e-05 0.000971697)
(0.00568753 -2.24555e-05 0.000709927)
(0.00585427 -1.96124e-05 0.000431524)
(0.00598255 -8.28477e-06 0.000185251)
(0.00618971 -4.59025e-07 -2.06985e-05)
(0.00651655 1.12848e-05 -0.000184354)
(0.00685586 2.33983e-05 -0.000317799)
(0.0071352 2.93826e-05 -0.000491387)
(0.00740539 2.15737e-05 -0.000771471)
(0.00776295 3.66389e-06 -0.00121847)
(0.00823588 -1.20364e-05 -0.0017987)
(0.00869858 -1.85651e-05 -0.00229385)
(0.00892446 -1.93811e-05 -0.00248844)
(0.00875116 -1.07682e-05 -0.00249341)
(0.00818196 1.02993e-06 -0.00249045)
(0.00738686 1.49418e-05 -0.00237865)
(0.00665662 1.13903e-05 -0.00215331)
(0.0061903 -1.63798e-06 -0.00202382)
(0.0059868 -2.13209e-07 -0.00196667)
(0.00602009 4.3463e-06 -0.0017764)
(0.00625982 8.09103e-06 -0.00131561)
(0.00660153 1.99035e-05 -0.00066055)
(0.00699421 3.5006e-05 -6.82181e-05)
(0.00750403 4.31909e-05 0.000290076)
(0.00816948 3.72573e-05 0.000506256)
(0.0267328 0.000187453 0.00255135)
(0.0285214 0.000256454 0.00418721)
(0.0296035 0.000297788 0.00590911)
(0.0296992 0.000236991 0.00699785)
(0.0288885 0.000111085 0.0071081)
(0.0277826 1.5899e-05 0.00646094)
(0.026927 -1.83557e-05 0.00550702)
(0.0263542 -6.56314e-06 0.00450865)
(0.0258577 7.21282e-06 0.00358306)
(0.0251857 4.38266e-06 0.00288455)
(0.0239796 -5.037e-06 0.00255194)
(0.022053 -2.34394e-05 0.00258676)
(0.0198246 -6.40747e-05 0.00281814)
(0.0180315 -0.000121484 0.0029974)
(0.0171243 -0.000181058 0.00292153)
(0.0169862 -0.000226277 0.00248578)
(0.017184 -0.000222085 0.00180715)
(0.0174186 -0.000153287 0.00113223)
(0.0177508 -7.0023e-05 0.000543772)
(0.018377 -9.88705e-06 4.36954e-05)
(0.0192887 4.86817e-05 -0.000380736)
(0.0202834 9.58764e-05 -0.000787324)
(0.0212999 8.97925e-05 -0.00131729)
(0.022466 -7.60247e-06 -0.00211632)
(0.0238984 -0.000137746 -0.0033204)
(0.0255035 -0.000217623 -0.00480257)
(0.0268827 -0.000204723 -0.00602049)
(0.0274476 -0.00012507 -0.00652162)
(0.0268149 -1.01171e-05 -0.00654216)
(0.0251261 8.84375e-05 -0.00636912)
(0.022995 0.000107836 -0.00590478)
(0.0210601 1.79813e-05 -0.00543535)
(0.0195556 -7.08838e-05 -0.00535414)
(0.0185399 -7.58893e-05 -0.00531357)
(0.0182261 -4.39742e-05 -0.00469855)
(0.0186819 1.22917e-05 -0.00332429)
(0.0196207 0.000107541 -0.00158711)
(0.020871 0.00019789 -0.000132657)
(0.0225386 0.000217701 0.000768845)
(0.0245918 0.000175664 0.00145851)
(0.0444583 0.00037406 0.00345407)
(0.0476949 0.000513475 0.00594846)
(0.0500534 0.000575933 0.00855899)
(0.0508975 0.000427981 0.0102637)
(0.0499227 0.00017054 0.0105182)
(0.0479331 -1.08383e-05 0.00960171)
(0.0461678 -6.53799e-05 0.00825467)
(0.0450388 -3.91663e-05 0.00692617)
(0.0442174 -1.03164e-05 0.00571621)
(0.043209 -1.15345e-05 0.00469705)
(0.0414499 -2.32249e-05 0.00400864)
(0.0386099 -6.34063e-05 0.00381881)
(0.0351546 -0.000172105 0.00410766)
(0.0320303 -0.000335938 0.00449942)
(0.0300078 -0.000494835 0.00448085)
(0.0291588 -0.000588714 0.00384991)
(0.028967 -0.000548383 0.00287686)
(0.0290456 -0.000372849 0.00194299)
(0.0294787 -0.000175955 0.00114344)
(0.0304518 -2.78507e-05 0.000456428)
(0.0318866 9.71628e-05 -0.000144656)
(0.033544 0.000169948 -0.00073325)
(0.0354002 9.83058e-05 -0.0014672)
(0.0376286 -0.000188317 -0.00256735)
(0.0403232 -0.000519623 -0.00429744)
(0.0432579 -0.000700645 -0.0065542)
(0.0457792 -0.00064171 -0.00855962)
(0.0469532 -0.000404883 -0.00957336)
(0.0461665 -8.78921e-05 -0.00976125)
(0.0436718 0.000163451 -0.00942342)
(0.0404781 0.000186018 -0.008551)
(0.037457 -3.11307e-05 -0.00779959)
(0.0347667 -0.000209618 -0.00785541)
(0.0324575 -0.000209809 -0.00813188)
(0.0310857 -0.000132364 -0.00749691)
(0.0311615 2.13768e-06 -0.00555747)
(0.0324118 0.000221564 -0.00297483)
(0.0344544 0.00042093 -0.000780304)
(0.0373026 0.000454874 0.000619984)
(0.0408019 0.000347852 0.00174381)
(0.0610322 0.000424618 0.0027238)
(0.0660456 0.00065596 0.00592647)
(0.0702589 0.000751842 0.00945824)
(0.0726278 0.000519237 0.0120929)
(0.072098 0.000149455 0.0129831)
(0.0692673 -8.46982e-05 0.0121538)
(0.0662546 -0.000141409 0.0105329)
(0.0643334 -9.90193e-05 0.00897892)
(0.0631955 -5.56142e-05 0.00770889)
(0.062047 -4.78432e-05 0.00658703)
(0.0601374 -4.80827e-05 0.00551681)
(0.0569395 -9.02918e-05 0.00480422)
(0.0527068 -0.000258664 0.00487023)
(0.048242 -0.00055493 0.00550195)
(0.0444992 -0.000868367 0.00580118)
(0.0421 -0.00105882 0.00518507)
(0.040876 -0.00100008 0.00402396)
(0.040429 -0.000705681 0.00294387)
(0.0407449 -0.00036929 0.00208315)
(0.0419002 -0.000106997 0.00136895)
(0.0437216 0.000102591 0.000759077)
(0.0459473 0.000190309 0.00020136)
(0.0485733 -1.5219e-05 -0.000429934)
(0.0517867 -0.000597312 -0.00142215)
(0.055705 -0.00125225 -0.00326943)
(0.0601003 -0.00159226 -0.00613759)
(0.0641565 -0.00145355 -0.00917596)
(0.0665549 -0.000971139 -0.0112037)
(0.0663301 -0.000330046 -0.0120372)
(0.0636911 0.000169494 -0.0118672)
(0.0599076 0.000234311 -0.0106601)
(0.0560488 -0.000119853 -0.00939002)
(0.0522477 -0.000406523 -0.00935241)
(0.0484097 -0.000405916 -0.0101311)
(0.0451578 -0.000296491 -0.0101227)
(0.0437314 -0.000104497 -0.00835475)
(0.0445009 0.000247973 -0.00538314)
(0.0469658 0.00057902 -0.00262913)
(0.0508281 0.000617981 -0.000828927)
(0.055738 0.000417865 0.000586353)
(0.0747101 4.21567e-05 -0.000607826)
(0.0817248 0.000437235 0.0030951)
(0.088353 0.00065166 0.00758965)
(0.0932318 0.000385185 0.0116044)
(0.0942734 -2.56146e-05 0.0139601)
(0.0911464 -0.000230569 0.0140069)
(0.0866726 -0.000241261 0.0123917)
(0.0836142 -0.000178117 0.0105587)
(0.082113 -0.000129275 0.00931448)
(0.0810349 -0.000114121 0.00845966)
(0.0793932 -9.26752e-05 0.00731378)
(0.0764746 -9.86895e-05 0.00591368)
(0.0721991 -0.000262155 0.00526797)
(0.0669148 -0.000642377 0.0058832)
(0.0612689 -0.00113137 0.00672812)
(0.0563846 -0.00150312 0.0064645)
(0.0530853 -0.00151952 0.00522612)
(0.0514049 -0.00115998 0.00403501)
(0.0511691 -0.000693581 0.00323847)
(0.0521941 -0.000296425 0.00269842)
(0.0541294 2.61644e-05 0.00232438)
(0.0566142 0.000128571 0.002107)
(0.059596 -0.000277976 0.00200298)
(0.0632071 -0.00131188 0.00172042)
(0.067703 -0.00252582 0.000519949)
(0.0732758 -0.0032128 -0.00233725)
(0.0793963 -0.00294447 -0.00647293)
(0.0841738 -0.00199978 -0.010315)
(0.0858348 -0.000865786 -0.0127945)
(0.0842416 1.07999e-05 -0.0136376)
(0.0806887 0.000220394 -0.0125567)
(0.0764233 -0.000232632 -0.0106403)
(0.0718188 -0.000628082 -0.0100313)
(0.0667744 -0.000622834 -0.01104)
(0.0614823 -0.000496415 -0.0119645)
(0.0573869 -0.000322705 -0.0112159)
(0.0560735 8.38493e-05 -0.00876026)
(0.0577633 0.000515402 -0.00605139)
(0.0619114 0.000523892 -0.00424679)
(0.0678327 0.000154234 -0.0028735)
(0.0831705 -0.00113317 -0.00710759)
(0.0914928 -0.000747342 -0.00359274)
(0.100629 -0.000260531 0.00135665)
(0.109312 -0.000248012 0.00699952)
(0.113903 -0.000486687 0.0119379)
(0.11203 -0.000512395 0.0143571)
(0.106408 -0.000371322 0.013733)
(0.101867 -0.000256618 0.0116679)
(0.0998824 -0.000220886 0.0102018)
(0.0990844 -0.000218907 0.00985129)
(0.0980382 -0.000179218 0.00933717)
(0.0959017 -0.000127743 0.00758865)
(0.0924029 -0.00019372 0.00577019)
(0.0874175 -0.000527008 0.00570749)
(0.0807509 -0.00110585 0.00699022)
(0.0731532 -0.00169681 0.00747803)
(0.0665281 -0.00193613 0.00641287)
(0.0623364 -0.00165974 0.00506377)
(0.060719 -0.00113726 0.00429886)
(0.0610913 -0.000610514 0.00403028)
(0.0627131 -0.000134753 0.00406779)
(0.0649541 9.25152e-06 0.00441032)
(0.0675705 -0.000686861 0.00509853)
(0.0705544 -0.00239948 0.00593373)
(0.0741112 -0.00446077 0.00620597)
(0.0789977 -0.00583463 0.0048172)
(0.0863951 -0.00578253 0.000972503)
(0.0952199 -0.00425339 -0.00478627)
(0.101461 -0.00208295 -0.0104107)
(0.103113 -0.000447463 -0.0138554)
(0.101285 8.54637e-05 -0.0140694)
(0.0973674 -0.000373873 -0.0119787)
(0.0923643 -0.000844163 -0.0104808)
(0.08678 -0.000808631 -0.0110844)
(0.0803539 -0.000637386 -0.0125268)
(0.0737755 -0.000513374 -0.0129705)
(0.0690742 -0.000184058 -0.0118826)
(0.067844 0.000193922 -0.0103395)
(0.0703161 5.25164e-05 -0.0094883)
(0.0757955 -0.00067215 -0.00887327)
(0.0875716 -0.00304964 -0.0151691)
(0.0943212 -0.0029383 -0.01274)
(0.102636 -0.00237406 -0.00882924)
(0.114202 -0.0021627 -0.00304193)
(0.125423 -0.00185419 0.00463682)
(0.128523 -0.00125027 0.0112702)
(0.123488 -0.000680298 0.0137683)
(0.117459 -0.000358322 0.0124029)
(0.114853 -0.000296311 0.0103169)
(0.11466 -0.000357841 0.010064)
(0.11455 -0.000344257 0.0108381)
(0.113363 -0.00022283 0.00984313)
(0.11111 -0.000144143 0.00698713)
(0.107669 -0.000299094 0.00540857)
(0.101952 -0.00077544 0.00645728)
(0.0931434 -0.00145691 0.00783731)
(0.0828977 -0.00196701 0.00742738)
(0.0746138 -0.00197685 0.00603818)
(0.0701921 -0.00156949 0.00512968)
(0.069093 -0.000963299 0.00496029)
(0.0699788 -0.000297989 0.00525612)
(0.0717848 -7.30145e-05 0.00589445)
(0.0740485 -0.00113984 0.00697794)
(0.0765143 -0.00368295 0.00856899)
(0.078765 -0.00671205 0.0102824)
(0.0808913 -0.00889505 0.0112654)
(0.0853044 -0.00938283 0.0101335)
(0.0948275 -0.00787379 0.00540789)
(0.107156 -0.0048114 -0.00265901)
(0.115959 -0.00177352 -0.0103966)
(0.118759 -0.000400506 -0.0139054)
(0.116598 -0.000637161 -0.0131286)
(0.111582 -0.00104948 -0.0112078)
(0.105982 -0.000896001 -0.010916)
(0.0998137 -0.000647894 -0.0120558)
(0.0926099 -0.000528341 -0.0129969)
(0.0856116 -0.000276275 -0.0130931)
(0.0808309 -6.56143e-05 -0.0132836)
(0.0795358 -0.000621287 -0.0144672)
(0.0820706 -0.00199342 -0.015661)
(0.0932126 -0.00517385 -0.0219794)
(0.0966142 -0.00537489 -0.0209144)
(0.100975 -0.00495906 -0.0179601)
(0.109396 -0.00514235 -0.0134088)
(0.123997 -0.00468528 -0.00595736)
(0.135483 -0.0030059 0.00371286)
(0.134644 -0.00146415 0.0108564)
(0.127699 -0.000770487 0.0123336)
(0.124262 -0.00053155 0.0100452)
(0.125433 -0.000497687 0.00882585)
(0.127218 -0.000585643 0.0104848)
(0.127025 -0.000541504 0.0115417)
(0.125653 -0.000289587 0.00897851)
(0.124285 -0.000108848 0.00561336)
(0.121676 -0.000335354 0.0053895)
(0.114917 -0.000874994 0.0072224)
(0.103201 -0.00144823 0.00785628)
(0.0904046 -0.00179708 0.00692842)
(0.081438 -0.00174898 0.00596164)
(0.077522 -0.00122453 0.00567474)
(0.0771611 -0.000380027 0.0059067)
(0.0788269 6.58887e-06 0.00640469)
(0.081678 -0.00119275 0.00730842)
(0.0848869 -0.00425253 0.00898644)
(0.0872922 -0.00801488 0.0112643)
(0.0876977 -0.0110437 0.0137376)
(0.0873196 -0.0123205 0.0156284)
(0.0914973 -0.0113146 0.0145287)
(0.103237 -0.0082693 0.00807881)
(0.118269 -0.00427344 -0.00201366)
(0.128891 -0.00164198 -0.00995535)
(0.130914 -0.00125118 -0.0126494)
(0.126243 -0.00149612 -0.0118862)
(0.120518 -0.0011715 -0.010797)
(0.115728 -0.000590931 -0.0108547)
(0.110257 -0.000216473 -0.01141)
(0.103864 0.000128916 -0.011797)
(0.0980965 0.000243375 -0.0129657)
(0.0939861 -0.000850505 -0.0161169)
(0.0920548 -0.0032037 -0.0200773)
(0.103841 -0.00642905 -0.0245344)
(0.102525 -0.00733789 -0.0261278)
(0.103628 -0.00699182 -0.0239921)
(0.107159 -0.00780932 -0.0195409)
(0.117679 -0.00836787 -0.0131358)
(0.133305 -0.00622196 -0.00406277)
(0.140178 -0.00285623 0.00535729)
(0.134316 -0.00127898 0.0103273)
(0.127334 -0.00122931 0.00943878)
(0.128465 -0.00115167 0.00685882)
(0.13427 -0.000835819 0.00773094)
(0.13636 -0.000759506 0.0106637)
(0.133764 -0.000775429 0.0101842)
(0.132207 -0.000623547 0.00622869)
(0.133908 -0.000424019 0.00419826)
(0.133568 -0.00039175 0.0056865)
(0.125379 -0.000618206 0.00728071)
(0.110741 -0.000974539 0.00729606)
(0.0967151 -0.00135013 0.00677687)
(0.0882217 -0.00121585 0.00658683)
(0.0853618 -0.000407299 0.00674248)
(0.0864505 0.000124158 0.00701972)
(0.0899918 -0.0010077 0.0074411)
(0.0943742 -0.00414211 0.00851695)
(0.0978916 -0.00802142 0.0104238)
(0.0988544 -0.0113606 0.0130452)
(0.0963895 -0.0133851 0.0164868)
(0.0944295 -0.0134793 0.0189234)
(0.100196 -0.011262 0.0160237)
(0.114759 -0.00741732 0.00698345)
(0.131045 -0.00379263 -0.00330795)
(0.137232 -0.00190328 -0.00969059)
(0.129843 -0.00119038 -0.011119)
(0.119447 -0.00101458 -0.00956269)
(0.11533 -0.000966529 -0.00782559)
(0.116084 -0.000510353 -0.00726243)
(0.116262 0.000478202 -0.00756473)
(0.114487 0.00111072 -0.00899797)
(0.111866 -2.80473e-05 -0.0129165)
(0.107986 -0.0031912 -0.0191346)
(0.118994 -0.00577212 -0.0213657)
(0.112412 -0.00784322 -0.0268579)
(0.109764 -0.007787 -0.0273051)
(0.110582 -0.00884142 -0.0232895)
(0.115584 -0.0109442 -0.0169182)
(0.127829 -0.0102384 -0.00905887)
(0.140491 -0.00577466 -0.000149333)
(0.141953 -0.00188688 0.00661148)
(0.133951 -0.0013706 0.00793502)
(0.128357 -0.002346 0.00509444)
(0.133167 -0.00210823 0.00404764)
(0.141078 -0.000718061 0.00714218)
(0.140651 -9.93384e-05 0.00920393)
(0.134453 -0.000948486 0.00670815)
(0.133515 -0.00209074 0.00363515)
(0.14004 -0.00195123 0.00404393)
(0.142258 -0.000775817 0.00600445)
(0.13254 -6.47848e-05 0.00685772)
(0.116605 -0.000233993 0.00700555)
(0.103053 -0.000540083 0.00741406)
(0.0957064 -0.000224163 0.00811889)
(0.094681 9.9781e-05 0.00850954)
(0.0984015 -0.001126 0.00806597)
(0.104157 -0.00417436 0.00746841)
(0.109014 -0.00773089 0.007992)
(0.110895 -0.0106751 0.0101736)
(0.108579 -0.0125382 0.014203)
(0.103599 -0.0134418 0.0189883)
(0.102639 -0.0129431 0.0197302)
(0.112077 -0.0104493 0.01284)
(0.127731 -0.00652067 0.00184642)
(0.135623 -0.0023916 -0.00690266)
(0.127742 0.000305605 -0.0100159)
(0.113906 0.000503717 -0.00792339)
(0.106642 -0.00081481 -0.00376285)
(0.108366 -0.00128362 -0.000803986)
(0.11471 -4.26484e-05 -7.88972e-05)
(0.120809 0.00146803 -0.0014197)
(0.124737 0.00122953 -0.00557786)
(0.124527 -0.00168978 -0.0129681)
(0.133022 -0.00348865 -0.0141767)
(0.125147 -0.00646749 -0.0231364)
(0.11769 -0.00726107 -0.0275193)
(0.11579 -0.00835119 -0.0261171)
(0.118593 -0.0112622 -0.0202972)
(0.125622 -0.012934 -0.0128041)
(0.136903 -0.00995397 -0.00491872)
(0.145182 -0.00437364 0.00205557)
(0.143816 -0.00140167 0.00547648)
(0.135569 -0.00217519 0.00413408)
(0.130906 -0.00352523 0.00179952)
(0.136597 -0.002288 0.00321927)
(0.14398 0.000521673 0.00647506)
(0.142469 0.000970357 0.00651813)
(0.13593 -0.00216298 0.00396392)
(0.136926 -0.00505468 0.00334099)
(0.145895 -0.00401393 0.00514292)
(0.14771 -0.00088536 0.00640627)
(0.137074 0.000935347 0.00666208)
(0.121908 0.00116234 0.00740317)
(0.109781 0.000854455 0.00919985)
(0.104469 4.95448e-05 0.0106033)
(0.10655 -0.00216509 0.00946345)
(0.113337 -0.00524033 0.00628797)
(0.120397 -0.00790595 0.0042536)
(0.123932 -0.00979069 0.00530231)
(0.122004 -0.0108655 0.00946311)
(0.115658 -0.0114893 0.0158667)
(0.109606 -0.0122332 0.0200253)
(0.111826 -0.0118944 0.0162841)
(0.122975 -0.00876192 0.00589354)
(0.131037 -0.00298478 -0.00422625)
(0.126213 0.00191704 -0.00893429)
(0.114328 0.00282906 -0.0075389)
(0.105823 0.000432335 -0.00252738)
(0.104486 -0.00154259 0.00271117)
(0.109264 -0.00092329 0.00597265)
(0.117169 0.000955115 0.00665915)
(0.126317 0.00172174 0.00381504)
(0.133478 7.54695e-05 -0.00371809)
(0.140596 -0.000814188 -0.00572924)
(0.137183 -0.00341485 -0.0167578)
(0.127875 -0.00532729 -0.0241915)
(0.122202 -0.00715171 -0.0264884)
(0.123619 -0.0101997 -0.0232133)
(0.128738 -0.0132615 -0.0165614)
(0.135435 -0.0130875 -0.00924644)
(0.143515 -0.00866898 -0.00248812)
(0.148008 -0.00357873 0.00233321)
(0.144266 -0.0017851 0.00322392)
(0.135695 -0.00291347 0.00127574)
(0.132641 -0.00341086 0.00104947)
(0.139012 -0.00120512 0.00378993)
(0.145831 0.00115513 0.0056136)
(0.144436 -0.000431376 0.00441306)
(0.139049 -0.00537979 0.00294302)
(0.141425 -0.00782511 0.00402039)
(0.149517 -0.00469161 0.0059342)
(0.149987 0.000200616 0.00635662)
(0.140066 0.00293113 0.00667798)
(0.12696 0.00327809 0.00919128)
(0.117629 0.00123686 0.0120124)
(0.115207 -0.00295967 0.010386)
(0.11935 -0.00728631 0.0044064)
(0.127772 -0.00938037 -0.000390661)
(0.135095 -0.00953066 -0.000484113)
(0.135545 -0.009122 0.00339588)
(0.12881 -0.00877165 0.0104699)
(0.119322 -0.00950964 0.0176348)
(0.114839 -0.0108903 0.0179942)
(0.119784 -0.00956278 0.00976957)
(0.126348 -0.00365997 -0.000733678)
(0.125401 0.00277463 -0.00719448)
(0.118981 0.00476607 -0.0082895)
(0.112978 0.00221873 -0.0054185)
(0.109754 -0.000666092 -0.000228987)
(0.110184 -0.000950266 0.00519191)
(0.113999 0.000433705 0.00902254)
(0.1215 0.00123846 0.00969849)
(0.132908 0.000816054 0.00476977)
(0.141978 0.000242662 -3.02088e-05)
(0.145373 1.25553e-05 -0.0105147)
(0.138524 -0.00213864 -0.019221)
(0.1308 -0.00539497 -0.0239707)
(0.129577 -0.00893779 -0.0238085)
(0.134123 -0.012126 -0.0195135)
(0.138718 -0.0138781 -0.0134487)
(0.142473 -0.0122775 -0.00681599)
(0.146511 -0.00737803 -0.000780928)
(0.14674 -0.00281806 0.00228484)
(0.140988 -0.00168463 0.00162859)
(0.134903 -0.00274247 0.000541194)
(0.135992 -0.00267187 0.00226059)
(0.143164 -0.000915741 0.00507568)
(0.147927 -0.000610062 0.00547569)
(0.145559 -0.00412328 0.00346552)
(0.141547 -0.00858854 0.00245619)
(0.143991 -0.00858711 0.00393325)
(0.149307 -0.00354185 0.00541508)
(0.148397 0.00206726 0.00615746)
(0.139943 0.00493234 0.00874994)
(0.130142 0.00388551 0.0118483)
(0.124009 -0.000753354 0.00928503)
(0.122403 -0.00701245 0.00107755)
(0.127532 -0.0109267 -0.00552959)
(0.138471 -0.010578 -0.00578168)
(0.145029 -0.00836303 -0.00163963)
(0.140623 -0.00656924 0.00479258)
(0.129646 -0.00624209 0.0130531)
(0.120497 -0.00776984 0.0175786)
(0.119575 -0.00804676 0.0131225)
(0.12345 -0.00347908 0.00337553)
(0.124677 0.00310459 -0.00466814)
(0.123097 0.00576404 -0.00845211)
(0.121266 0.0036761 -0.00858654)
(0.119286 0.000779318 -0.00581581)
(0.117321 9.02581e-05 -0.00106833)
(0.116657 0.000643903 0.00413451)
(0.119532 0.000217119 0.00786741)
(0.12932 -0.000348996 0.00719422)
(0.14103 -0.0013066 0.00118247)
(0.149828 0.00152586 -0.0061772)
(0.148256 0.000937265 -0.0145084)
(0.140985 -0.00294786 -0.0206996)
(0.136866 -0.00726815 -0.0226285)
(0.139445 -0.010369 -0.0205538)
(0.143955 -0.01264 -0.0167006)
(0.145386 -0.0133725 -0.0112121)
(0.14548 -0.0104472 -0.00421309)
(0.145408 -0.00479015 0.00103771)
(0.142669 -0.000984027 0.0020288)
(0.138135 -0.00120675 0.000870018)
(0.136863 -0.002882 0.00171176)
(0.141537 -0.00279576 0.00498039)
(0.147909 -0.00175919 0.00702966)
(0.149877 -0.00306015 0.00524314)
(0.146294 -0.00682088 0.00187414)
(0.142024 -0.00889308 0.00131916)
(0.140769 -0.0063418 0.00398242)
(0.139969 -0.000931075 0.00737139)
(0.136506 0.00369392 0.0101744)
(0.132052 0.00523501 0.0105128)
(0.129389 0.00262592 0.00560092)
(0.127154 -0.00383314 -0.00272236)
(0.127378 -0.0104506 -0.00834655)
(0.136172 -0.0122336 -0.00762272)
(0.147785 -0.0094524 -0.00296803)
(0.148739 -0.00596287 0.00207537)
(0.138297 -0.0040426 0.00866886)
(0.126585 -0.00436523 0.0150672)
(0.121735 -0.00480559 0.0148185)
(0.123446 -0.0016505 0.00744407)
(0.125912 0.00368039 -0.00116956)
(0.127345 0.00578226 -0.00708286)
(0.128788 0.00388253 -0.00986541)
(0.129492 0.00174259 -0.0100972)
(0.128249 0.00170134 -0.00795509)
(0.126013 0.001924 -0.00366914)
(0.125257 -0.000104937 0.00135204)
(0.129811 -0.00251371 0.00398762)
(0.138662 -0.00305213 0.00126027)
(0.148236 0.000901636 -0.00350892)
(0.153288 0.00255992 -0.0104685)
(0.150064 -0.000336818 -0.0172015)
(0.144914 -0.00458331 -0.0207067)
(0.145134 -0.00783412 -0.0201566)
(0.149593 -0.0105566 -0.0179832)
(0.15157 -0.0127793 -0.0145017)
(0.149151 -0.0118594 -0.00812537)
(0.146014 -0.00662499 -0.00137231)
(0.143265 -0.000912182 0.0016944)
(0.140304 0.000717565 0.00165357)
(0.138885 -0.00147767 0.00225918)
(0.141514 -0.00352981 0.00521287)
(0.147321 -0.00325742 0.00802789)
(0.151397 -0.00297631 0.0070141)
(0.149345 -0.0046295 0.00271203)
(0.141715 -0.00640183 0.000302051)
(0.133311 -0.00597461 0.00256609)
(0.128067 -0.00309623 0.00645102)
(0.12698 0.000898731 0.00786636)
(0.129417 0.00425197 0.0053071)
(0.133092 0.00461207 -0.00026361)
(0.134335 0.000196236 -0.00620431)
(0.133484 -0.00739315 -0.00908464)
(0.137526 -0.0126481 -0.00668096)
(0.147852 -0.0117155 -0.00115146)
(0.152456 -0.00711221 0.0032471)
(0.1443 -0.00328919 0.00739252)
(0.131638 -0.00193817 0.012523)
(0.124613 -0.00141739 0.0139725)
(0.125053 0.00101905 0.0089179)
(0.128218 0.00456883 0.00132327)
(0.130023 0.00545404 -0.00413035)
(0.130686 0.00314939 -0.00706638)
(0.13212 0.00107141 -0.00920823)
(0.134193 0.00150016 -0.0100704)
(0.135295 0.00238469 -0.00749496)
(0.134486 0.000530823 -0.00208685)
(0.133802 -0.00305032 0.0018811)
(0.1348 -0.0023337 0.00270518)
(0.141091 0.000151657 -0.0015142)
(0.150232 0.00237937 -0.00714456)
(0.153901 0.00128628 -0.0133615)
(0.151486 -0.00150123 -0.0178657)
(0.150976 -0.00435484 -0.018765)
(0.155454 -0.00768052 -0.0176875)
(0.158703 -0.0110937 -0.0160466)
(0.155701 -0.0116799 -0.0119511)
(0.149732 -0.00745679 -0.00535717)
(0.145138 -0.0012296 6.23426e-05)
(0.142442 0.00199847 0.00250496)
(0.14138 0.000753977 0.00373184)
(0.142563 -0.00216628 0.0054669)
(0.14617 -0.00340023 0.0074354)
(0.149565 -0.00333576 0.00776898)
(0.148864 -0.00366923 0.00503722)
(0.142908 -0.00395792 0.00103303)
(0.13445 -0.00334747 -0.000510472)
(0.128234 -0.00223745 0.000923566)
(0.127243 -0.000691491 0.00225734)
(0.131167 0.00154083 0.000973151)
(0.136656 0.00323068 -0.00283077)
(0.139426 0.00194694 -0.00706787)
(0.13915 -0.00352536 -0.00881703)
(0.140905 -0.01048 -0.00616841)
(0.147988 -0.0130098 -0.000724486)
(0.15314 -0.0090578 0.00368333)
(0.147799 -0.00326453 0.00721944)
(0.13657 -0.000102612 0.0115205)
(0.12876 0.000943917 0.0129638)
(0.12695 0.00287145 0.00885796)
(0.127391 0.00570186 0.0031643)
(0.126528 0.00615661 0.000169736)
(0.12543 0.00338459 -0.00111395)
(0.126775 0.000480445 -0.00340539)
(0.131064 0.000254046 -0.00551137)
(0.135652 0.00156472 -0.00395295)
(0.137037 0.00114867 0.000859553)
(0.135034 -0.00132922 0.00395903)
(0.133312 0.000398311 0.00498651)
(0.136121 0.00143481 0.00115141)
(0.143847 0.00259792 -0.0039703)
(0.151524 0.00225589 -0.00919578)
(0.154878 0.000924015 -0.0132796)
(0.156938 -0.000888839 -0.0150138)
(0.161776 -0.0041804 -0.0154299)
(0.165614 -0.00844721 -0.0159198)
(0.162636 -0.0101151 -0.014511)
(0.154826 -0.00682484 -0.00916524)
(0.148006 -0.00096083 -0.00254809)
(0.14434 0.00275807 0.00191482)
(0.143122 0.00229863 0.0042463)
(0.143714 -0.000354808 0.00574268)
(0.145518 -0.00221962 0.00678205)
(0.14646 -0.00296191 0.00719268)
(0.14464 -0.00337025 0.00601979)
(0.140714 -0.00289712 0.00248203)
(0.136443 -0.00136238 -0.00125456)
(0.133758 -0.000471793 -0.00204543)
(0.133881 -0.000939697 -0.000360826)
(0.136532 -0.000939444 0.000475763)
(0.139597 0.000651269 -0.00129744)
(0.140307 0.00178199 -0.00405406)
(0.139393 -0.000725258 -0.00498236)
(0.140522 -0.00691872 -0.00308974)
(0.145755 -0.0117743 0.000677404)
(0.151348 -0.0101541 0.00417891)
(0.15018 -0.00396909 0.00697446)
(0.14267 0.00128613 0.0100733)
(0.134934 0.00398992 0.0114002)
(0.129524 0.0056561 0.00885071)
(0.125476 0.00694168 0.00506723)
(0.122489 0.00625108 0.00336062)
(0.121933 0.00276888 0.00319671)
(0.124402 -0.00134454 0.00194069)
(0.129113 -0.00305393 -0.000259601)
(0.134143 -0.00178012 -0.000467825)
(0.136383 1.79314e-05 0.00250179)
(0.134958 0.000493417 0.00545562)
(0.13299 0.00389204 0.00670123)
(0.134841 0.0049097 0.00436355)
(0.140179 0.00457692 0.00039611)
(0.146963 0.00306219 -0.00435543)
(0.152984 0.00212468 -0.00872837)
(0.158798 0.00164585 -0.011228)
(0.165429 -0.000721599 -0.0121472)
(0.169638 -0.00501121 -0.0135011)
(0.167109 -0.00736467 -0.0146852)
(0.159456 -0.00489278 -0.0123033)
(0.15191 0.000171417 -0.00624813)
(0.147013 0.00331918 -0.000414401)
(0.144362 0.00285458 0.00307689)
(0.14319 0.000824098 0.00500362)
(0.14302 -0.00053753 0.00612286)
(0.142548 -0.0010083 0.00657782)
(0.140695 -0.00146459 0.00583092)
(0.138702 -0.00131183 0.00311333)
(0.138509 -0.000135337 -0.000394096)
(0.140581 5.30414e-06 -0.0018764)
(0.14304 -0.002215 -0.000571955)
(0.143111 -0.00400511 0.00123796)
(0.140625 -0.00231043 0.00137692)
(0.137892 0.000950544 0.00086578)
(0.137553 0.00111472 0.00169844)
(0.140433 -0.00366425 0.00349948)
(0.145381 -0.00968516 0.00518193)
(0.149951 -0.0105497 0.00604319)
(0.150015 -0.00493797 0.00680437)
(0.144762 0.00200531 0.00857548)
(0.137537 0.00603643 0.00938251)
(0.130342 0.00711228 0.00762443)
(0.124114 0.00714812 0.00569048)
(0.120763 0.00649144 0.00612805)
(0.121278 0.00416288 0.00760088)
(0.124583 0.000549635 0.00713718)
(0.129 -0.00220449 0.00489313)
(0.13295 -0.00216333 0.0035826)
(0.134732 -1.47954e-05 0.00466576)
(0.133962 0.00225328 0.00649572)
(0.136671 0.00585209 0.00713799)
(0.136907 0.00714301 0.00673433)
(0.139644 0.0064912 0.00385848)
(0.144052 0.00348603 -0.000693764)
(0.149427 0.000365253 -0.00500942)
(0.156199 -0.00060892 -0.00767464)
(0.16364 -0.000240685 -0.00912463)
(0.168134 -0.000959565 -0.010871)
(0.167 -0.00253507 -0.0129055)
(0.162322 -0.00199604 -0.0130165)
(0.157991 0.00100468 -0.00967244)
(0.154772 0.00330577 -0.00471972)
(0.151219 0.00319338 -0.000807546)
(0.146845 0.00185125 0.00157749)
(0.14275 0.000491311 0.0031993)
(0.140109 -0.000535336 0.00436675)
(0.139096 -0.00112586 0.00500426)
(0.140224 -0.00089449 0.00466241)
(0.144514 4.57315e-05 0.00294133)
(0.150692 4.45497e-05 0.00056177)
(0.154271 -0.00215 -0.00010403)
(0.151837 -0.00425662 0.00258695)
(0.14542 -0.00297427 0.00668678)
(0.140238 0.000881933 0.00840686)
(0.139323 0.00318634 0.00632836)
(0.141869 0.000796768 0.00310845)
(0.145844 -0.00522443 0.00261189)
(0.149411 -0.0084717 0.0043506)
(0.149374 -0.00436842 0.00506988)
(0.144134 0.00340857 0.00551851)
(0.136263 0.00862723 0.00650294)
(0.128744 0.00980271 0.00680342)
(0.123596 0.00891204 0.00639083)
(0.121863 0.00751264 0.00628744)
(0.123059 0.00556791 0.00657492)
(0.125811 0.00300171 0.00636622)
(0.129277 0.000784275 0.00533168)
(0.133248 0.000396744 0.00436687)
(0.136604 0.00189534 0.00457715)
(0.137542 0.00393446 0.00589356)
(0.136408 0.00546861 0.00596572)
(0.136256 0.0066224 0.00675274)
(0.138673 0.00633088 0.00603412)
(0.142997 0.00343115 0.00294517)
(0.147726 -0.000972049 -0.00171644)
(0.152807 -0.00394019 -0.00587127)
(0.158969 -0.00407101 -0.00810361)
(0.164639 -0.00265922 -0.00902827)
(0.166353 -0.00126013 -0.0099266)
(0.163263 0.000309863 -0.0105902)
(0.158848 0.00243711 -0.00965749)
(0.156244 0.00402348 -0.00701601)
(0.155036 0.00415087 -0.00408013)
(0.153311 0.00349612 -0.00197388)
(0.15012 0.00260592 -0.000543929)
(0.146155 0.000653709 0.000846594)
(0.142829 -0.00264146 0.00264605)
(0.142064 -0.00583945 0.00452031)
(0.145534 -0.00757159 0.00526564)
(0.151883 -0.00777219 0.00402449)
(0.156112 -0.00707242 0.00215492)
(0.154492 -0.00574347 0.00271996)
(0.148827 -0.00293495 0.0059623)
(0.143668 0.00182038 0.00755477)
(0.14096 0.00621446 0.00424643)
(0.140097 0.00633514 -0.00149159)
(0.141177 0.000999928 -0.00389692)
(0.144246 -0.00520367 -0.00129222)
(0.146399 -0.005398 0.00215061)
(0.144187 0.00129673 0.00381037)
(0.13861 0.00869979 0.00485557)
(0.133619 0.0125223 0.00529977)
(0.131536 0.0130185 0.00415843)
(0.131861 0.0116015 0.00195025)
(0.132939 0.00906252 0.00031356)
(0.133732 0.00603695 0.000219754)
(0.134491 0.00363715 0.00149504)
(0.13587 0.00284231 0.00304474)
(0.137337 0.00338281 0.00411432)
(0.137499 0.00429217 0.00492247)
(0.136537 0.00456925 0.00816587)
(0.135545 0.00285467 0.0107343)
(0.137884 0.000665839 0.0117029)
(0.143348 -0.00181454 0.00973358)
(0.150114 -0.00399498 0.00489022)
(0.155532 -0.00484442 -0.0010568)
(0.157742 -0.00368032 -0.00608203)
(0.156668 -0.0010891 -0.00907512)
(0.153578 0.00174277 -0.00989592)
(0.150002 0.00388668 -0.00912226)
(0.147133 0.00483777 -0.0078179)
(0.145601 0.00449705 -0.00696119)
(0.14578 0.00322581 -0.00645628)
(0.147864 0.00185192 -0.00550121)
(0.15113 0.00100761 -0.00406157)
(0.153915 0.000499589 -0.00278442)
(0.15454 -0.000447743 -0.00143353)
(0.153163 -0.0027576 0.000920577)
(0.151825 -0.00653655 0.00421131)
(0.152049 -0.00993673 0.00699029)
(0.153094 -0.0102759 0.00789393)
(0.152709 -0.00667199 0.00725494)
(0.149706 -0.00122023 0.00642267)
(0.145526 0.00326333 0.00504868)
(0.142175 0.00507075 0.00179308)
(0.140528 0.00368036 -0.00259329)
(0.141052 -0.000257199 -0.00467783)
(0.143415 -0.00473922 -0.00218496)
(0.145616 -0.00606512 0.00259978)
(0.145419 -0.00186422 0.00621644)
(0.143398 0.00510154 0.00740787)
(0.142354 0.01055 0.00605144)
(0.143268 0.0129822 0.00203169)
(0.144675 0.0126418 -0.00328909)
(0.145034 0.0100383 -0.00763105)
(0.144172 0.00632242 -0.00920757)
(0.143066 0.00361151 -0.0073492)
(0.142428 0.00337949 -0.00316971)
(0.141514 0.00468542 0.00136762)
(0.139285 0.00533641 0.00506727)
(0.147595 0.00508876 0.00115294)
(0.149465 0.00227128 0.00528278)
(0.151254 -0.000810847 0.0094737)
(0.152055 -0.00286972 0.0124974)
(0.153038 -0.00373654 0.0127097)
(0.155609 -0.00324913 0.00949494)
(0.159106 -0.000792599 0.00386549)
(0.161302 0.00325048 -0.00209825)