/*--------------------------------*- C++ -*----------------------------------*\
| =========                 |                                                 |
| \\      /  F ield         | OpenFOAM: The Open Source CFD Toolbox           |
|  \\    /   O peration     | Version:  2306                                  |
|   \\  /    A nd           | Website:  www.openfoam.com                      |
|    \\/     M anipulation  |                                                 |
\*---------------------------------------------------------------------------*/
FoamFile
{
    version     2.0;
    format      ascii;
    arch        "LSB;label=32;scalar=64";
    class       volVectorField;
    location    "5";
    object      UMean;
}
// * * * * * * * * * * * * * * * * * * * * * * * * * * * * * * * * * * * * * //

dimensions      [0 1 -1 0 0 0 0];

internalField   nonuniform List<vector> 
60000
(
(0.0100948 3.13787e-05 0.00209878)
(0.0101851 1.93533e-05 0.00226626)
(0.0100927 7.465e-06 0.00229777)
(0.00989916 -1.69535e-06 0.00221316)
(0.00967933 -6.92491e-06 0.00203036)
(0.00941883 -8.25531e-06 0.00176371)
(0.00905115 -7.14093e-06 0.00146004)
(0.00853005 -6.46002e-06 0.00119701)
(0.00788646 -8.83542e-06 0.00104331)
(0.00721175 -1.33417e-05 0.00102172)
(0.0065931 -1.72402e-05 0.00108613)
(0.00611683 -1.78168e-05 0.00113972)
(0.00585024 -1.67445e-05 0.00110029)
(0.00578756 -1.57254e-05 0.000951497)
(0.00586903 -1.42173e-05 0.000725376)
(0.00601203 -1.05966e-05 0.000465104)
(0.0061809 -2.59329e-06 0.000213381)
(0.00639562 6.36952e-06 -2.00094e-05)
(0.00667649 1.2718e-05 -0.000259594)
(0.00701907 1.61226e-05 -0.000533394)
(0.00741173 1.78195e-05 -0.000860537)
(0.00783763 1.58029e-05 -0.0012325)
(0.00827405 9.58929e-06 -0.00161117)
(0.00866812 1.35805e-06 -0.00195129)
(0.0089131 -4.99999e-06 -0.00221086)
(0.00890349 -6.80641e-06 -0.00235635)
(0.00862088 -6.08912e-06 -0.00238121)
(0.00812234 -4.47695e-06 -0.00232768)
(0.0075064 -1.51199e-06 -0.00225541)
(0.00691424 1.87604e-06 -0.00217442)
(0.00650422 3.01366e-06 -0.00205479)
(0.00635759 4.1054e-06 -0.00185184)
(0.00645402 1.04435e-05 -0.00150963)
(0.00674199 1.9921e-05 -0.00102569)
(0.00717421 3.00895e-05 -0.000467907)
(0.00769448 3.92351e-05 8.87319e-05)
(0.00824442 4.73782e-05 0.000590233)
(0.00880051 5.14299e-05 0.00103159)
(0.00934028 4.91598e-05 0.00144158)
(0.00979799 4.15982e-05 0.00180967)
(0.0307739 0.000112805 0.00553902)
(0.031201 5.14017e-05 0.00586629)
(0.0310365 -7.59322e-06 0.0058712)
(0.0304842 -5.07394e-05 0.00564525)
(0.0297702 -6.41329e-05 0.00523865)
(0.0289106 -4.77403e-05 0.00464779)
(0.0277768 -2.13089e-05 0.00393807)
(0.0262568 -1.16496e-05 0.00328778)
(0.024414 -3.64415e-05 0.00288673)
(0.0224575 -8.68987e-05 0.00280873)
(0.0206014 -0.000138187 0.00294237)
(0.019086 -0.000174884 0.00303661)
(0.0181161 -0.000194651 0.0028825)
(0.0177032 -0.000191934 0.00245467)
(0.017716 -0.000161599 0.00186033)
(0.0179621 -0.000108042 0.00121476)
(0.0183762 -4.51185e-05 0.000597713)
(0.0190217 4.88733e-06 5.14809e-06)
(0.0199248 3.15971e-05 -0.00063383)
(0.0210442 3.69875e-05 -0.00139188)
(0.0223496 2.67634e-05 -0.00231205)
(0.0237924 -4.07028e-07 -0.00335515)
(0.0252752 -4.0817e-05 -0.00439434)
(0.0266034 -7.67561e-05 -0.00528362)
(0.0274512 -8.86324e-05 -0.00589678)
(0.0275171 -7.6757e-05 -0.00616888)
(0.0267452 -5.75149e-05 -0.00614025)
(0.0252785 -4.1267e-05 -0.00595712)
(0.0234059 -3.40737e-05 -0.00576527)
(0.0215564 -4.23095e-05 -0.00559048)
(0.0201834 -5.72678e-05 -0.00535639)
(0.0195195 -4.59499e-05 -0.00489055)
(0.0195596 1.096e-05 -0.00398881)
(0.0202293 9.18113e-05 -0.00265569)
(0.0214182 0.000174144 -0.00111623)
(0.0229537 0.000242793 0.000395953)
(0.0246484 0.00028407 0.00173664)
(0.0264207 0.000279676 0.00290213)
(0.0281839 0.000234969 0.003963)
(0.0297179 0.000174391 0.00487704)
(0.0521906 0.0001402 0.00812281)
(0.0531881 3.39231e-06 0.00859816)
(0.0531157 -0.00011704 0.00857214)
(0.0522554 -0.000194114 0.00824652)
(0.0510097 -0.000202226 0.00774418)
(0.0495409 -0.000147359 0.00703302)
(0.047765 -7.89566e-05 0.00611437)
(0.0454861 -5.52081e-05 0.00517749)
(0.042661 -0.000112 0.00451177)
(0.0394896 -0.000230079 0.00428774)
(0.0362916 -0.000350388 0.00441166)
(0.0334884 -0.000440583 0.0045493)
(0.0314592 -0.000493618 0.00437044)
(0.0302983 -0.000488547 0.0037919)
(0.0298939 -0.000410618 0.00296406)
(0.0300038 -0.000275285 0.00207456)
(0.0305282 -0.000129115 0.00123781)
(0.0315411 -2.39031e-05 0.000434655)
(0.0330527 2.23094e-05 -0.000450598)
(0.0349758 1.37794e-05 -0.00153835)
(0.0372667 -3.85343e-05 -0.00291009)
(0.0398509 -0.000127798 -0.00452589)
(0.0425573 -0.000237879 -0.00619327)
(0.0450638 -0.000324259 -0.0076564)
(0.046848 -0.000343149 -0.00867155)
(0.0473803 -0.000300619 -0.00910447)
(0.046475 -0.000234445 -0.00902373)
(0.0442777 -0.000171124 -0.00868709)
(0.0412175 -0.000137 -0.00836423)
(0.0379734 -0.000153146 -0.00816174)
(0.0352895 -0.000187557 -0.00800433)
(0.0336245 -0.000154982 -0.00758892)
(0.0331109 -1.59604e-05 -0.0064958)
(0.0337548 0.000177855 -0.00462801)
(0.0354513 0.000371916 -0.00231033)
(0.0379367 0.000532272 4.18337e-05)
(0.0408596 0.000619773 0.00215219)
(0.044029 0.000587287 0.00398466)
(0.0472503 0.000454474 0.0056513)
(0.0501176 0.000292536 0.00709423)
(0.0734281 4.34406e-05 0.00954317)
(0.0753004 -0.000167069 0.0103616)
(0.0755829 -0.000339131 0.0104186)
(0.074573 -0.000432349 0.0100458)
(0.0728426 -0.000413254 0.00952491)
(0.0708201 -0.000297918 0.00886038)
(0.0686212 -0.000167585 0.00794834)
(0.0659971 -0.000109555 0.00686818)
(0.0626476 -0.000182355 0.0059406)
(0.0585462 -0.000367779 0.00547757)
(0.0540087 -0.000575069 0.00550576)
(0.0496639 -0.000745095 0.00569232)
(0.0461286 -0.000861322 0.00560088)
(0.0436614 -0.000880238 0.00503356)
(0.0422951 -0.000766823 0.00412417)
(0.0418491 -0.000545235 0.00313686)
(0.0421934 -0.000302877 0.00225849)
(0.0433541 -0.000138113 0.00147396)
(0.0452994 -8.2595e-05 0.000616972)
(0.0478967 -0.000131194 -0.000498539)
(0.051107 -0.000268675 -0.00203006)
(0.0548514 -0.000469757 -0.00400877)
(0.0589006 -0.000691044 -0.00625259)
(0.0628487 -0.000847948 -0.00842145)
(0.0660295 -0.000861483 -0.0101077)
(0.0676583 -0.0007451 -0.0110003)
(0.0672985 -0.000577313 -0.0110826)
(0.0649626 -0.000412562 -0.0106671)
(0.0611141 -0.00030806 -0.0101791)
(0.0565726 -0.000316605 -0.00990816)
(0.0522998 -0.000386477 -0.00991653)
(0.049038 -0.000362348 -0.00988185)
(0.0472176 -0.000161993 -0.00914747)
(0.0470925 0.000141516 -0.00733677)
(0.0487094 0.000459301 -0.00468943)
(0.0518377 0.000730976 -0.00174057)
(0.0559455 0.000884323 0.00104929)
(0.0606398 0.000824168 0.0035264)
(0.0655441 0.000582315 0.00583155)
(0.0700304 0.00029561 0.0079374)
(0.0927752 -0.000276592 0.00902937)
(0.0958895 -0.000504186 0.0106953)
(0.0969109 -0.000687898 0.0112377)
(0.0960982 -0.000758283 0.0110202)
(0.0941109 -0.000677055 0.0105556)
(0.0916757 -0.000481686 0.0100378)
(0.0892868 -0.000280363 0.00933308)
(0.0867976 -0.00017167 0.00832258)
(0.0836144 -0.000223092 0.00722372)
(0.0792476 -0.000436476 0.00647018)
(0.0737289 -0.000717452 0.00630697)
(0.0678117 -0.000982177 0.00650579)
(0.0624357 -0.00119399 0.00656051)
(0.0581012 -0.00128377 0.00612956)
(0.0550799 -0.00118609 0.00526338)
(0.0534163 -0.000917581 0.00428405)
(0.053033 -0.000597823 0.00351349)
(0.05386 -0.000383641 0.00300189)
(0.0557591 -0.000338716 0.00254216)
(0.0585455 -0.000469551 0.00187038)
(0.0622322 -0.00076686 0.000718103)
(0.0668298 -0.00117792 -0.00112488)
(0.0721171 -0.00159317 -0.0036511)
(0.0776581 -0.00185492 -0.00655595)
(0.0827367 -0.00183378 -0.00927654)
(0.0863256 -0.00155384 -0.0112114)
(0.0875801 -0.00116931 -0.0120583)
(0.0861563 -0.000806486 -0.0119797)
(0.0824101 -0.000556209 -0.011456)
(0.0771889 -0.000502977 -0.01101)
(0.0715346 -0.000595749 -0.0110299)
(0.0663848 -0.000621071 -0.0114474)
(0.0625149 -0.000437944 -0.0115331)
(0.0605723 -0.000111157 -0.0105365)
(0.0609769 0.000258307 -0.00836389)
(0.0638265 0.000597881 -0.00545108)
(0.0685966 0.000808737 -0.00235189)
(0.0746525 0.000739929 0.000597803)
(0.0813249 0.000411255 0.00350894)
(0.0876983 2.59677e-05 0.00644591)
(0.107288 -0.0011197 0.00509773)
(0.11212 -0.0012003 0.00831177)
(0.114457 -0.00125095 0.0102246)
(0.114529 -0.0012044 0.0108445)
(0.112874 -0.000991801 0.0107575)
(0.110384 -0.000676253 0.0104917)
(0.108026 -0.000401825 0.0101314)
(0.106058 -0.000246474 0.00943242)
(0.103797 -0.000241176 0.00836664)
(0.100197 -0.000410182 0.00736662)
(0.0946614 -0.000699058 0.00691688)
(0.0876995 -0.00103748 0.00703116)
(0.0805503 -0.00136255 0.0072198)
(0.0740658 -0.00156765 0.00699303)
(0.0687889 -0.00155355 0.0062488)
(0.0651097 -0.00131345 0.00529699)
(0.0632056 -0.000974356 0.00462437)
(0.0629657 -0.000740392 0.0044523)
(0.0640368 -0.000735175 0.00460545)
(0.0660636 -0.00100982 0.00478068)
(0.0690825 -0.00159098 0.00463648)
(0.0733696 -0.00240125 0.00376177)
(0.0790069 -0.00322518 0.00181299)
(0.0857789 -0.00374582 -0.00125128)
(0.0930267 -0.00370308 -0.00493944)
(0.0995186 -0.00313838 -0.00837533)
(0.103923 -0.00232908 -0.0108516)
(0.105143 -0.00153233 -0.0120815)
(0.103016 -0.000955829 -0.0121899)
(0.098353 -0.000719089 -0.0117292)
(0.092291 -0.000756195 -0.0115095)
(0.0858365 -0.000809724 -0.0120354)
(0.0799245 -0.000700147 -0.0129231)
(0.075494 -0.000473918 -0.0132405)
(0.0733587 -0.00022794 -0.01243)
(0.074235 6.72861e-06 -0.010577)
(0.0780362 0.000150269 -0.00809445)
(0.0842131 1.0818e-06 -0.00537419)
(0.0919977 -0.000440635 -0.00232415)
(0.100196 -0.000884891 0.00127566)
(0.113687 -0.00283594 -0.00278635)
(0.120237 -0.0025665 0.00203566)
(0.124217 -0.00226921 0.00606938)
(0.126036 -0.0019805 0.00862289)
(0.125993 -0.00151709 0.00977152)
(0.124424 -0.000954159 0.0101243)
(0.122512 -0.000535944 0.0102047)
(0.121233 -0.000350341 0.009996)
(0.120422 -0.000305234 0.0092346)
(0.11872 -0.00034602 0.00817359)
(0.114685 -0.000514939 0.00743068)
(0.108089 -0.000835864 0.00731501)
(0.100037 -0.00125275 0.00753737)
(0.0917439 -0.00158939 0.00754709)
(0.0840917 -0.00170423 0.00702588)
(0.0778402 -0.00156632 0.00612595)
(0.0736462 -0.00128541 0.00539937)
(0.0716577 -0.00107625 0.00527989)
(0.0713512 -0.00113205 0.00572845)
(0.0720268 -0.00160584 0.0065215)
(0.0735176 -0.00260308 0.00740995)
(0.0762931 -0.00400368 0.00794408)
(0.0807865 -0.00543589 0.00751895)
(0.0871192 -0.0063985 0.00562733)
(0.0951737 -0.00647807 0.0022164)
(0.103997 -0.00565193 -0.00205686)
(0.111963 -0.00434586 -0.00624189)
(0.117353 -0.00296584 -0.00959273)
(0.118965 -0.00181527 -0.011516)
(0.116777 -0.00113401 -0.0118924)
(0.111902 -0.000897597 -0.0115859)
(0.105591 -0.000831368 -0.0117743)
(0.0988934 -0.000728516 -0.012861)
(0.0927065 -0.000636384 -0.0142983)
(0.0879078 -0.000669928 -0.0152674)
(0.0857076 -0.000780835 -0.0152913)
(0.0867019 -0.000935386 -0.0144023)
(0.0906541 -0.00136099 -0.0129158)
(0.0970822 -0.00209526 -0.0107064)
(0.105289 -0.00271795 -0.00731989)
(0.114699 -0.00525742 -0.0114166)
(0.12165 -0.00460656 -0.0057923)
(0.126518 -0.00378411 -0.000162126)
(0.129348 -0.0031209 0.00436695)
(0.130889 -0.00238652 0.00725673)
(0.13111 -0.00151056 0.00870827)
(0.130401 -0.00082676 0.00936236)
(0.129835 -0.000535212 0.00961785)
(0.130023 -0.00052232 0.00937078)
(0.130712 -0.000528705 0.00855312)
(0.129916 -0.00045574 0.0077223)
(0.125987 -0.000503919 0.00736944)
(0.119146 -0.000822717 0.00747055)
(0.110479 -0.00124428 0.00767005)
(0.101193 -0.00150891 0.0075349)
(0.0924766 -0.00151734 0.00689897)
(0.0856104 -0.00136731 0.00613405)
(0.0814686 -0.00124648 0.00576528)
(0.0798073 -0.00136242 0.00595802)
(0.0796404 -0.0019699 0.00669407)
(0.0802527 -0.00331242 0.00797494)
(0.081731 -0.00527483 0.00958226)
(0.0845705 -0.00731527 0.0108279)
(0.0891364 -0.00879027 0.0107862)
(0.0957413 -0.00917773 0.00887564)
(0.104205 -0.0083332 0.00523994)
(0.113181 -0.00669837 0.000594852)
(0.120737 -0.00487101 -0.00421433)
(0.125365 -0.00323129 -0.00819452)
(0.126445 -0.00205879 -0.0103716)
(0.124517 -0.00141968 -0.0107631)
(0.120589 -0.000994741 -0.0106397)
(0.115538 -0.000602343 -0.0112499)
(0.109986 -0.000370474 -0.0129637)
(0.104384 -0.00055379 -0.0153392)
(0.0999509 -0.00113077 -0.0174685)
(0.0980162 -0.00182968 -0.0186811)
(0.0988689 -0.00273657 -0.0189565)
(0.102074 -0.00396706 -0.0181812)
(0.107482 -0.00504718 -0.0157636)
(0.116891 -0.00760501 -0.0173337)
(0.122513 -0.00691043 -0.0117578)
(0.127369 -0.00561251 -0.00547374)
(0.130393 -0.00449192 4.44462e-05)
(0.132106 -0.00348068 0.00396089)
(0.133086 -0.00232856 0.00624008)
(0.133339 -0.0013105 0.00739514)
(0.133288 -0.000833408 0.00794657)
(0.133519 -0.000874315 0.00805261)
(0.13446 -0.00108601 0.00770228)
(0.135875 -0.00104819 0.00713797)
(0.135869 -0.000793965 0.00683003)
(0.133019 -0.000687217 0.00687755)
(0.127186 -0.000815877 0.0071959)
(0.118824 -0.000991506 0.00755123)
(0.109053 -0.00108559 0.00753592)
(0.0998547 -0.00112204 0.00710277)
(0.0933073 -0.00120537 0.0066402)
(0.0901537 -0.00145505 0.00643978)
(0.089515 -0.00210934 0.00671357)
(0.0900733 -0.00354955 0.00773262)
(0.0911245 -0.00579917 0.00957647)
(0.0927548 -0.00825273 0.0117371)
(0.095392 -0.0101584 0.0131562)
(0.0997207 -0.0109542 0.0127837)
(0.10606 -0.0103935 0.0103311)
(0.113483 -0.00870805 0.00621963)
(0.119991 -0.00654689 0.00124275)
(0.12394 -0.00446595 -0.00350797)
(0.124821 -0.00286226 -0.00670293)
(0.123211 -0.00186479 -0.00776822)
(0.120693 -0.00117852 -0.00747241)
(0.118777 -0.000559853 -0.00730134)
(0.117566 -8.72342e-05 -0.00852209)
(0.116011 -8.82391e-05 -0.0114827)
(0.113584 -0.000789752 -0.0153318)
(0.111212 -0.00195463 -0.0187433)
(0.110188 -0.00340291 -0.0210143)
(0.110748 -0.00519125 -0.0218894)
(0.112793 -0.00689972 -0.0208462)
(0.121957 -0.00898302 -0.019992)
(0.125082 -0.00876461 -0.0154328)
(0.129278 -0.00738172 -0.00944104)
(0.132519 -0.00591858 -0.00364819)
(0.134195 -0.00465613 0.000717815)
(0.134933 -0.00333245 0.00336493)
(0.135324 -0.00201189 0.004748)
(0.135631 -0.00118461 0.00547186)
(0.135809 -0.00112436 0.00580357)
(0.136186 -0.00159348 0.00583213)
(0.137283 -0.00198251 0.00576449)
(0.138742 -0.0019275 0.00583842)
(0.139074 -0.00165943 0.00607363)
(0.137189 -0.00139048 0.00645043)
(0.132711 -0.00104384 0.00707532)
(0.125291 -0.000673235 0.00770843)
(0.11585 -0.000573551 0.00797971)
(0.107306 -0.000874469 0.00793675)
(0.102158 -0.00143884 0.00774575)
(0.10058 -0.00225329 0.0076024)
(0.10113 -0.00369327 0.00791472)
(0.1023 -0.00595816 0.00909822)
(0.103403 -0.00853408 0.0110756)
(0.10462 -0.010629 0.0130229)
(0.106699 -0.0116859 0.0137393)
(0.110315 -0.0114287 0.0124475)
(0.115006 -0.00987291 0.00917169)
(0.119125 -0.00756744 0.00461087)
(0.121338 -0.00508876 -0.000131735)
(0.120912 -0.00299153 -0.00350309)
(0.11806 -0.00163601 -0.00448018)
(0.114719 -0.00088847 -0.0034929)
(0.113589 -0.000387293 -0.00204539)
(0.11543 7.60577e-05 -0.00195523)
(0.118478 0.000312936 -0.00439399)
(0.120736 -0.000121603 -0.00895801)
(0.121519 -0.00133645 -0.0140714)
(0.121328 -0.00308499 -0.0183912)
(0.121021 -0.00526929 -0.0212033)
(0.120912 -0.00755467 -0.0219342)
(0.128501 -0.00900018 -0.0201732)
(0.129059 -0.00965687 -0.0173742)
(0.1317 -0.00877297 -0.0125955)
(0.135007 -0.00731396 -0.00720599)
(0.137187 -0.00589206 -0.00258477)
(0.137784 -0.00447381 0.000467455)
(0.137658 -0.00296312 0.00213728)
(0.137645 -0.00176787 0.00307907)
(0.137981 -0.00133704 0.00367196)
(0.138276 -0.00176394 0.00399286)
(0.138921 -0.00252794 0.00427415)
(0.140485 -0.00295302 0.00477811)
(0.142229 -0.00294781 0.00543117)
(0.142559 -0.00273275 0.00598867)
(0.14095 -0.00215856 0.00661507)
(0.137236 -0.00110341 0.00749517)
(0.130645 -0.000188562 0.00831509)
(0.122275 -0.000196588 0.00883844)
(0.115485 -0.00108942 0.00902199)
(0.112411 -0.00239755 0.00881361)
(0.112506 -0.00408325 0.00841474)
(0.113953 -0.00631811 0.00839187)
(0.115181 -0.00868864 0.00929069)
(0.115646 -0.0105302 0.010941)
(0.115804 -0.0114785 0.0123122)
(0.116513 -0.0112907 0.0122163)
(0.117998 -0.00982478 0.0101501)
(0.119552 -0.00753578 0.0064386)
(0.120276 -0.00497215 0.0020021)
(0.119626 -0.00255195 -0.00161236)
(0.116944 -0.000812223 -0.00283375)
(0.113245 -2.35227e-05 -0.00151003)
(0.111476 0.000142856 0.000964399)
(0.113374 0.000294203 0.00263106)
(0.117947 0.000584367 0.00184429)
(0.122992 0.000505958 -0.00174664)
(0.127019 -0.000404619 -0.00703404)
(0.129292 -0.00203718 -0.0125935)
(0.12993 -0.00425967 -0.0173077)
(0.129341 -0.00685185 -0.0201208)
(0.135468 -0.00772031 -0.0187147)
(0.134531 -0.00935417 -0.0177905)
(0.135272 -0.00950369 -0.0146466)
(0.13759 -0.00855956 -0.0102775)
(0.139834 -0.00719578 -0.00576305)
(0.140574 -0.00570922 -0.00222587)
(0.139977 -0.0041059 -6.19478e-05)
(0.13927 -0.00266643 0.00125059)
(0.13922 -0.00189158 0.00216768)
(0.139653 -0.00205496 0.00275509)
(0.140146 -0.00293488 0.00317449)
(0.141334 -0.00381828 0.00377909)
(0.143433 -0.00415663 0.00462961)
(0.145067 -0.00401679 0.00537707)
(0.144981 -0.00345873 0.00593267)
(0.143386 -0.00219578 0.00674129)
(0.140164 -0.00049853 0.00781747)
(0.134625 0.00041655 0.00862476)
(0.128232 -0.000233844 0.0088638)
(0.124135 -0.00202995 0.00852312)
(0.123562 -0.00428864 0.00759654)
(0.125015 -0.0067666 0.00642612)
(0.126434 -0.00896831 0.0060505)
(0.126781 -0.0102715 0.00715391)
(0.125943 -0.0106139 0.00907524)
(0.124352 -0.0101037 0.0103231)
(0.122785 -0.00866051 0.00981306)
(0.121711 -0.0065042 0.00737833)
(0.121037 -0.00414069 0.00349873)
(0.120411 -0.00183138 -0.000489965)
(0.118938 8.61398e-05 -0.00270966)
(0.116444 0.0010431 -0.0022834)
(0.114676 0.00101745 -3.09236e-05)
(0.11554 0.000769579 0.00238932)
(0.119179 0.000861012 0.00339572)
(0.124405 0.000982001 0.00199361)
(0.129778 0.000423755 -0.00167609)
(0.133984 -0.000862025 -0.00674434)
(0.136262 -0.00273606 -0.0121917)
(0.136588 -0.00518174 -0.0166812)
(0.14213 -0.00587855 -0.016562)
(0.141043 -0.0081707 -0.017157)
(0.140399 -0.00947858 -0.0154874)
(0.140863 -0.00941621 -0.0123213)
(0.141996 -0.00831277 -0.00830421)
(0.142511 -0.00675832 -0.00446966)
(0.141776 -0.0051113 -0.00167475)
(0.140641 -0.00360768 0.000150973)
(0.140254 -0.00262842 0.00142765)
(0.140646 -0.00257764 0.00226141)
(0.141209 -0.00343223 0.00273838)
(0.141872 -0.00464019 0.00316849)
(0.143248 -0.0053809 0.00383209)
(0.144807 -0.00534975 0.00450889)
(0.145125 -0.00466428 0.00498933)
(0.143828 -0.00329594 0.00563702)
(0.141688 -0.00130806 0.00665933)
(0.138785 0.000392398 0.00736215)
(0.134884 0.000559562 0.00704626)
(0.131527 -0.00107131 0.00590964)
(0.130923 -0.00359599 0.00427752)
(0.132636 -0.00624708 0.00234935)
(0.134336 -0.00853694 0.00128694)
(0.134801 -0.00972679 0.00232653)
(0.134034 -0.00954059 0.00502352)
(0.131829 -0.00835895 0.00763324)
(0.128496 -0.00661479 0.008653)
(0.125298 -0.00449344 0.007609)
(0.123239 -0.00238093 0.00462035)
(0.122404 -0.000459543 0.000453221)
(0.121996 0.00115363 -0.00305038)
(0.121213 0.00204382 -0.00432734)
(0.120473 0.0019463 -0.00342298)
(0.120802 0.00138596 -0.00140143)
(0.122923 0.0010716 0.000460014)
(0.126933 0.00100698 0.000934337)
(0.132056 0.000621888 -0.000602557)
(0.136907 -0.0003001 -0.0040103)
(0.140402 -0.00162634 -0.00864947)
(0.14218 -0.00349683 -0.013378)
(0.14828 -0.00440214 -0.0146353)
(0.148039 -0.00653301 -0.0161394)
(0.146548 -0.0084459 -0.0157844)
(0.145036 -0.00920707 -0.0137374)
(0.144295 -0.00862963 -0.0102684)
(0.143934 -0.00721401 -0.00631594)
(0.143031 -0.00562084 -0.00302392)
(0.141758 -0.0041654 -0.000641872)
(0.14122 -0.00312705 0.00110289)
(0.141742 -0.00283956 0.00229912)
(0.1426 -0.00350127 0.00291459)
(0.14315 -0.00475484 0.00313952)
(0.143392 -0.00575367 0.00341085)
(0.143217 -0.00584757 0.00390346)
(0.14189 -0.00513761 0.00445439)
(0.139213 -0.00387402 0.00508772)
(0.1363 -0.00207659 0.00581576)
(0.13419 -0.000173624 0.00597934)
(0.132614 0.000641678 0.00489143)
(0.131503 -0.000416782 0.00282921)
(0.132296 -0.00282229 0.000488328)
(0.135411 -0.00538988 -0.00165182)
(0.138438 -0.00761658 -0.00248681)
(0.139447 -0.00892855 -0.000928888)
(0.138794 -0.00863355 0.00247189)
(0.136836 -0.00686766 0.00590318)
(0.13344 -0.00451434 0.00776343)
(0.129566 -0.00223845 0.00752954)
(0.126974 -0.000332473 0.00532916)
(0.126301 0.00113939 0.00144501)
(0.126901 0.00222939 -0.00288362)
(0.127756 0.00279209 -0.00594012)
(0.128431 0.00262661 -0.00692129)
(0.129128 0.001943 -0.00609937)
(0.130343 0.00121655 -0.00435663)
(0.132735 0.000648389 -0.00295893)
(0.136423 9.21435e-05 -0.00288025)
(0.14051 -0.000658388 -0.00446887)
(0.144042 -0.00156485 -0.00759307)
(0.146762 -0.00273982 -0.011435)
(0.152075 -0.00323307 -0.012578)
(0.153616 -0.00464146 -0.0146232)
(0.152793 -0.00645958 -0.0153601)
(0.150439 -0.00778216 -0.0144254)
(0.148229 -0.00789865 -0.0116389)
(0.146722 -0.0069308 -0.00780834)
(0.145263 -0.00552795 -0.00422123)
(0.143611 -0.00417517 -0.00135715)
(0.142606 -0.00313262 0.000923867)
(0.142846 -0.00267517 0.00259988)
(0.143728 -0.00300678 0.00351305)
(0.144179 -0.00400102 0.00362319)
(0.143539 -0.0049681 0.00336305)
(0.141615 -0.00513394 0.00324079)
(0.138446 -0.00447797 0.00327437)
(0.134457 -0.00343478 0.00324199)
(0.130894 -0.00209692 0.00307578)
(0.129031 -0.000585536 0.00252971)
(0.12906 0.000299291 0.00118791)
(0.130421 -0.000327135 -0.000722989)
(0.13318 -0.00245421 -0.00242898)
(0.137532 -0.00497851 -0.00335325)
(0.141603 -0.00705265 -0.00293891)
(0.143121 -0.00833198 -0.00067713)
(0.142171 -0.00817466 0.00288941)
(0.139904 -0.00624257 0.00622463)
(0.136626 -0.00331214 0.00793246)
(0.132638 -0.000632963 0.00768563)
(0.129466 0.00120326 0.00589696)
(0.128328 0.00224883 0.00281586)
(0.129041 0.00273385 -0.00098715)
(0.13069 0.00271278 -0.00434934)
(0.132421 0.002238 -0.00619035)
(0.133962 0.0015187 -0.00622138)
(0.135518 0.000737266 -0.00511515)
(0.13748 2.09577e-05 -0.00398778)
(0.140096 -0.000497844 -0.00360288)
(0.143129 -0.000959906 -0.00432511)
(0.146148 -0.00154126 -0.00644477)
(0.149168 -0.00229792 -0.00956377)
(0.151899 -0.00223451 -0.00999908)
(0.155619 -0.00304081 -0.0124896)
(0.157209 -0.00432063 -0.0140447)
(0.156029 -0.0056555 -0.0142452)
(0.1535 -0.00626429 -0.0125482)
(0.151121 -0.0058475 -0.0092764)
(0.14892 -0.00478452 -0.00555291)
(0.146594 -0.00358239 -0.00217266)
(0.144716 -0.00254246 0.000661593)
(0.144081 -0.00193698 0.00281823)
(0.144418 -0.00201381 0.00414845)
(0.144696 -0.00271098 0.00449544)
(0.143987 -0.003501 0.0039582)
(0.141984 -0.00367513 0.00296448)
(0.138987 -0.00310068 0.0018839)
(0.135589 -0.00224591 0.000779076)
(0.132676 -0.00133556 -0.000356808)
(0.131185 -0.000371705 -0.00138983)
(0.131708 0.000207193 -0.00238753)
(0.134006 -0.000401455 -0.00333171)
(0.137344 -0.00235977 -0.00383444)
(0.141327 -0.00484984 -0.00359978)
(0.144784 -0.00669632 -0.00247968)
(0.146039 -0.00763831 -0.000166302)
(0.144869 -0.00744283 0.00321859)
(0.142267 -0.0056746 0.00651779)
(0.138727 -0.00262917 0.00839872)
(0.134281 0.000443928 0.00850279)
(0.12997 0.00246868 0.00739885)
(0.127292 0.00327868 0.00543126)
(0.126643 0.00325826 0.00280445)
(0.127549 0.00274558 0.000273375)
(0.129296 0.00191372 -0.00124611)
(0.131409 0.00102601 -0.00135973)
(0.133673 0.000289216 -0.000709524)
(0.135915 -0.000226481 -0.000302558)
(0.138238 -0.000484224 -0.000580514)
(0.140895 -0.000678915 -0.00161739)
(0.144058 -0.00105784 -0.00373235)
(0.147739 -0.00162166 -0.00682518)
(0.150062 -0.000659053 -0.00665793)
(0.155108 -0.00127641 -0.0094764)
(0.159027 -0.002175 -0.0116431)
(0.160196 -0.00324708 -0.0128073)
(0.158697 -0.00397258 -0.012375)
(0.155997 -0.00398043 -0.0101914)
(0.152964 -0.00337087 -0.00696918)
(0.149758 -0.00245984 -0.00347173)
(0.146893 -0.00154984 -0.000189898)
(0.145142 -0.000962094 0.00246768)
(0.14448 -0.00101107 0.00421226)
(0.144085 -0.00159916 0.00489535)
(0.143158 -0.00222997 0.00454169)
(0.141491 -0.00237224 0.00336839)
(0.139476 -0.00195691 0.00182445)
(0.137562 -0.00134824 0.000348402)
(0.136162 -0.000775362 -0.000895345)
(0.135673 -0.000233762 -0.00184857)
(0.136424 9.11678e-05 -0.00249421)
(0.1383 -0.000383592 -0.00286857)
(0.140593 -0.00195572 -0.00284652)
(0.142992 -0.00405409 -0.0023108)
(0.145158 -0.00561169 -0.0011622)
(0.146255 -0.00621209 0.000846293)
(0.14585 -0.0058215 0.00362352)
(0.144113 -0.00416431 0.0063419)
(0.141172 -0.00136651 0.00812753)
(0.136905 0.00164121 0.00873411)
(0.132021 0.00361278 0.00841071)
(0.12808 0.00409209 0.00730125)
(0.126061 0.00337654 0.00554833)
(0.125993 0.00200385 0.00375676)
(0.127423 0.000508922 0.00255403)
(0.129752 -0.000585343 0.00225119)
(0.132368 -0.00101849 0.00253152)
(0.134714 -0.000866967 0.00262121)
(0.136696 -0.000371756 0.00204268)
(0.138808 9.3662e-05 0.000849793)
(0.14162 0.000161145 -0.000971207)
(0.145381 -0.000160818 -0.00358729)
(0.148591 0.00138836 -0.00345841)
(0.153711 0.000591624 -0.00622755)
(0.15841 -0.000326972 -0.00872177)
(0.161196 -0.00113278 -0.010679)
(0.161405 -0.00152197 -0.0114861)
(0.159618 -0.00152805 -0.0105922)
(0.156524 -0.00131565 -0.00826202)
(0.15261 -0.000928715 -0.0051699)
(0.148701 -0.000358437 -0.00187346)
(0.145723 0.000147855 0.00116735)
(0.143862 0.000190327 0.00345864)
(0.142647 -0.000284313 0.00460997)
(0.141604 -0.000806554 0.00456845)
(0.140702 -0.000967885 0.00362447)
(0.140164 -0.0008572 0.00227308)
(0.139926 -0.000839855 0.00100549)
(0.139783 -0.00101107 9.85657e-05)
(0.139724 -0.00109661 -0.000312108)
(0.139987 -0.00104283 -0.000173856)
(0.140675 -0.00131882 0.000370454)
(0.141445 -0.00236529 0.00121314)
(0.142266 -0.00378566 0.00223222)
(0.143406 -0.00474263 0.00327472)
(0.144494 -0.00478823 0.00444145)
(0.144713 -0.00402398 0.0058727)
(0.143494 -0.00246785 0.00719781)
(0.140811 -0.000140135 0.00798117)
(0.136901 0.00245841 0.00821575)
(0.132392 0.00434847 0.00818871)
(0.12845 0.00496437 0.00787331)
(0.126022 0.00436717 0.00714164)
(0.125521 0.00299438 0.00631389)
(0.126821 0.00148547 0.00584108)
(0.129266 0.000418257 0.005778)
(0.132 8.59761e-05 0.00581951)
(0.134412 0.000409659 0.00554499)
(0.1364 0.00115165 0.00471434)
(0.138317 0.00190169 0.00337342)
(0.140742 0.00219331 0.00156717)
(0.144135 0.0019674 -0.000744547)
(0.148141 0.00197772 -0.00124443)
(0.152432 0.00113831 -0.00384001)
(0.156586 0.000332027 -0.0063081)
(0.159731 -0.000235759 -0.00837441)
(0.16139 -0.000238658 -0.00973441)
(0.161502 0.000319884 -0.0100083)
(0.15998 0.000946222 -0.00906273)
(0.15691 0.00116491 -0.00711384)
(0.153019 0.0010596 -0.00453738)
(0.149318 0.000892771 -0.00173991)
(0.146341 0.000631923 0.000824431)
(0.144204 0.000153657 0.00268361)
(0.143062 -0.0003138 0.00359686)
(0.143084 -0.00050418 0.00364191)
(0.144148 -0.000532275 0.0031424)
(0.145534 -0.000684362 0.00262047)
(0.146456 -0.000925486 0.00252789)
(0.146651 -0.00094783 0.00291336)
(0.146346 -0.000689185 0.00345486)
(0.145806 -0.00054187 0.0037655)
(0.145034 -0.000942903 0.0040281)
(0.144319 -0.00179102 0.00456777)
(0.144286 -0.00245324 0.00512126)
(0.144775 -0.00231812 0.00521153)
(0.144798 -0.00134659 0.00514931)
(0.143557 0.00018146 0.00544279)
(0.141037 0.00227081 0.00600006)
(0.137575 0.00471964 0.0063196)
(0.133639 0.00663033 0.00629329)
(0.130117 0.00715794 0.00606864)
(0.127855 0.00637243 0.00566959)
(0.1273 0.00493772 0.00525901)
(0.128423 0.00354834 0.00506488)
(0.130686 0.0026046 0.00514579)
(0.133411 0.00225471 0.00543436)
(0.135968 0.00244148 0.00571755)
(0.138117 0.00295112 0.00558192)
(0.139979 0.00337091 0.00473226)
(0.141947 0.00329319 0.00320321)
(0.144556 0.0027504 0.001166)
(0.146832 0.000510205 0.000327832)
(0.150668 -0.000420865 -0.0018996)
(0.154311 -0.000968202 -0.00410686)
(0.15703 -0.00118194 -0.00614056)
(0.158525 -0.000887785 -0.0076853)
(0.159045 7.29951e-05 -0.00840003)
(0.158811 0.00136828 -0.00821328)
(0.157691 0.00237132 -0.00728315)
(0.155605 0.00268437 -0.00580109)
(0.152939 0.00229627 -0.00392511)
(0.150292 0.00129986 -0.00184777)
(0.148055 -0.000230808 0.000132635)
(0.146586 -0.00203714 0.00169741)
(0.146223 -0.00357796 0.00266144)
(0.146985 -0.00453253 0.00307494)
(0.148298 -0.00493119 0.00317371)
(0.14931 -0.00478759 0.0033411)
(0.14955 -0.00391485 0.00362682)
(0.148955 -0.00233858 0.00362067)
(0.147656 -0.000611095 0.00296927)
(0.14587 0.00059661 0.00195048)
(0.144216 0.000979356 0.00129227)
(0.143405 0.000761527 0.00113965)
(0.14337 0.000517324 0.00111422)
(0.143413 0.000710038 0.00124072)
(0.143168 0.00149662 0.00188016)
(0.142663 0.00303429 0.00285528)
(0.141769 0.00535789 0.00336107)
(0.140156 0.0078178 0.00303598)
(0.138136 0.00921441 0.00233988)
(0.136522 0.00903793 0.00176341)
(0.135801 0.00776508 0.00145387)
(0.135886 0.00617563 0.00150191)
(0.136325 0.00480883 0.00201835)
(0.136849 0.00389051 0.00301011)
(0.137432 0.00345609 0.0042335)
(0.138216 0.0034195 0.00512134)
(0.13937 0.00339691 0.00510776)
(0.14108 0.00285479 0.00411132)
(0.143541 0.0017382 0.00240773)
(0.146577 -0.00151925 0.00425188)
(0.149118 -0.00177857 0.00171402)
(0.15105 -0.00127498 -0.00109383)
(0.15199 -0.000360819 -0.00378683)
(0.15178 0.000678911 -0.00594943)
(0.150666 0.00172921 -0.00732391)
(0.149266 0.00263665 -0.00789916)
(0.148274 0.00315668 -0.00774584)
(0.148098 0.00312435 -0.00696728)
(0.148681 0.00250861 -0.00573713)
(0.149606 0.00140348 -0.0042846)
(0.150398 -0.000115359 -0.00271289)
(0.15094 -0.00193588 -0.000986253)
(0.151358 -0.00375737 0.00085204)
(0.151745 -0.00516321 0.00257411)
(0.151946 -0.00590295 0.00391618)
(0.151628 -0.00590676 0.00478245)
(0.150669 -0.00512127 0.00517617)
(0.149193 -0.00358873 0.00498135)
(0.147468 -0.00172414 0.00400431)
(0.145698 -0.000204263 0.00238374)
(0.144209 0.000499591 0.000848974)
(0.143482 0.000356504 5.01337e-05)
(0.143606 -0.00017512 6.45835e-05)
(0.144171 -0.000426695 0.0007287)
(0.144897 0.000102939 0.00180645)
(0.145695 0.00152413 0.00279417)
(0.14633 0.00367928 0.0029058)
(0.146452 0.0060939 0.00172998)
(0.146081 0.00783389 -0.000313416)
(0.145588 0.00822016 -0.00242468)
(0.145139 0.00748789 -0.00389257)
(0.144584 0.00633012 -0.00424248)
(0.143758 0.00522336 -0.00325151)
(0.142698 0.00427929 -0.00104242)
(0.141663 0.00347474 0.00196877)
(0.141012 0.00277463 0.00495193)
(0.141064 0.00199111 0.00688715)
(0.14207 0.000864862 0.00724972)
(0.144022 -0.000489123 0.00620961)
(0.153769 2.92157e-05 0.0071213)
(0.155647 0.000233449 0.00631151)