/*--------------------------------*- C++ -*----------------------------------*\
| =========                 |                                                 |
| \\      /  F ield         | OpenFOAM: The Open Source CFD Toolbox           |
|  \\    /   O peration     | Version:  2306                                  |
|   \\  /    A nd           | Website:  www.openfoam.com                      |
|    \\/     M anipulation  |                                                 |
\*---------------------------------------------------------------------------*/
FoamFile
{
    version     2.0;
    format      ascii;
    arch        "LSB;label=32;scalar=64";
    class       volScalarField;
    location    "2";
    object      nut;
}
// * * * * * * * * * * * * * * * * * * * * * * * * * * * * * * * * * * * * * //

dimensions      [0 2 -1 0 0 0 0];

internalField   nonuniform List<scalar> 
60000
(
9.87907e-05
9.82309e-05
9.60266e-05
9.38104e-05
9.21648e-05
9.03379e-05
8.73377e-05
8.23416e-05
7.49469e-05
6.62725e-05
5.89717e-05
5.51504e-05
5.43173e-05
5.46069e-05
5.49395e-05
5.53334e-05
5.65639e-05
5.89794e-05
6.21293e-05
6.56806e-05
6.98911e-05
7.5138e-05
8.12168e-05
8.67947e-05
8.99945e-05
8.93197e-05
8.45319e-05
7.71034e-05
6.97377e-05
6.4178e-05
6.06786e-05
5.91568e-05
5.96274e-05
6.22857e-05
6.68907e-05
7.26536e-05
7.90238e-05
8.57027e-05
9.18511e-05
9.65194e-05
0.000101106
0.000101551
9.92027e-05
9.63355e-05
9.44168e-05
9.28621e-05
9.03132e-05
8.60123e-05
7.99408e-05
7.26247e-05
6.51911e-05
5.95327e-05
5.6444e-05
5.49772e-05
5.43254e-05
5.43785e-05
5.5471e-05
5.7738e-05
6.08735e-05
6.47421e-05
6.96309e-05
7.56417e-05
8.2152e-05
8.79845e-05
9.17268e-05
9.19921e-05
8.84156e-05
8.23836e-05
7.58086e-05
6.94546e-05
6.38192e-05
5.99937e-05
5.89411e-05
6.0973e-05
6.53814e-05
7.12364e-05
7.78147e-05
8.45873e-05
9.12411e-05
9.7213e-05
0.000100294
0.000102231
9.98782e-05
9.6152e-05
9.37723e-05
9.26925e-05
9.14361e-05
8.91466e-05
8.58188e-05
8.09202e-05
7.3433e-05
6.48594e-05
5.83848e-05
5.47021e-05
5.28158e-05
5.2052e-05
5.24241e-05
5.40485e-05
5.66834e-05
6.01088e-05
6.47182e-05
7.06893e-05
7.7503e-05
8.42445e-05
8.98331e-05
9.27949e-05
9.22037e-05
8.8562e-05
8.31646e-05
7.66234e-05
6.92216e-05
6.21859e-05
5.75961e-05
5.69529e-05
5.99572e-05
6.5405e-05
7.21262e-05
7.92618e-05
8.67305e-05
9.43025e-05
9.42323e-05
9.8587e-05
9.69339e-05
9.22731e-05
8.92389e-05
8.87238e-05
8.91577e-05
8.937e-05
8.93208e-05
8.81615e-05
8.29443e-05
7.27683e-05
6.20766e-05
5.48308e-05
5.08807e-05
4.87575e-05
4.78673e-05
4.82102e-05
4.95578e-05
5.14994e-05
5.45554e-05
5.94171e-05
6.59678e-05
7.35558e-05
8.15825e-05
8.85689e-05
9.25207e-05
9.25318e-05
8.94241e-05
8.42543e-05
7.71379e-05
6.80533e-05
5.88988e-05
5.31836e-05
5.24055e-05
5.58611e-05
6.20019e-05
6.93624e-05
7.71624e-05
8.59407e-05
7.92351e-05
8.72884e-05
8.81185e-05
8.28319e-05
7.86389e-05
7.87973e-05
8.12245e-05
8.38329e-05
8.65771e-05
8.96385e-05
8.97973e-05
8.25019e-05
6.93596e-05
5.72804e-05
4.97487e-05
4.55273e-05
4.28967e-05
4.13533e-05
4.05207e-05
3.98621e-05
3.98221e-05
4.19199e-05
4.64504e-05
5.30848e-05
6.27608e-05
7.46218e-05
8.47041e-05
9.00286e-05
9.03566e-05
8.77479e-05
8.35068e-05
7.65868e-05
6.58371e-05
5.43963e-05
4.73162e-05
4.60608e-05
4.91002e-05
5.46038e-05
6.10646e-05
6.91552e-05
5.38461e-05
6.48465e-05
7.0787e-05
6.62569e-05
5.98153e-05
6.04194e-05
6.57322e-05
7.06547e-05
7.48201e-05
8.05699e-05
8.74833e-05
8.90013e-05
7.99036e-05
6.46786e-05
5.18132e-05
4.4166e-05
3.95984e-05
3.63171e-05
3.34717e-05
3.04389e-05
2.78519e-05
2.90036e-05
3.35347e-05
3.71692e-05
3.887e-05
4.74247e-05
6.37365e-05
7.6558e-05
8.17546e-05
8.20016e-05
8.12412e-05
8.01365e-05
7.51117e-05
6.35164e-05
5.02237e-05
4.26901e-05
4.16531e-05
4.31352e-05
4.50458e-05
4.72791e-05
4.0004e-05
3.98223e-05
4.63692e-05
4.52601e-05
3.49926e-05
3.20128e-05
4.14583e-05
5.07114e-05
5.38747e-05
5.77289e-05
6.88795e-05
8.25157e-05
8.68913e-05
7.68414e-05
6.00022e-05
4.68531e-05
3.95267e-05
3.54043e-05
3.25608e-05
3.00175e-05
2.68987e-05
2.43227e-05
2.75369e-05
3.50839e-05
3.95816e-05
3.45683e-05
3.44807e-05
5.03155e-05
6.00167e-05
6.04402e-05
6.12074e-05
6.75004e-05
7.38228e-05
7.24516e-05
6.164e-05
4.78726e-05
4.08199e-05
3.98039e-05
3.91529e-05
3.94211e-05
3.50477e-05
3.51285e-05
2.88744e-05
3.15343e-05
2.26102e-05
8.85198e-06
1.39211e-05
2.79377e-05
3.40783e-05
2.89701e-05
3.06519e-05
5.17328e-05
7.64818e-05
8.49517e-05
7.37994e-05
5.5827e-05
4.31998e-05
3.72476e-05
3.53382e-05
3.57787e-05
3.70243e-05
3.53304e-05
2.84744e-05
2.44382e-05
3.1358e-05
3.79307e-05
3.03658e-05
2.44472e-05
2.97344e-05
2.53636e-05
2.11472e-05
2.75513e-05
4.51795e-05
6.24187e-05
6.71262e-05
5.89559e-05
4.55286e-05
3.74905e-05
3.41015e-05
3.22666e-05
2.49179e-05
2.91004e-05
2.66634e-05
2.57128e-05
2.90623e-05
1.27518e-05
9.91185e-06
1.31976e-05
2.04031e-05
2.08559e-05
1.07044e-05
1.55675e-05
3.99413e-05
7.25671e-05
8.24286e-05
6.96954e-05
5.1911e-05
4.07514e-05
3.70543e-05
3.85494e-05
4.32851e-05
4.71357e-05
4.41165e-05
3.26655e-05
2.20351e-05
2.65233e-05
3.01782e-05
1.81566e-05
1.65491e-05
2.71678e-05
3.32246e-05
3.76187e-05
3.46353e-05
3.6163e-05
5.11708e-05
5.84491e-05
5.33733e-05
4.04731e-05
3.04833e-05
2.62067e-05
2.24333e-05
2.24392e-05
2.5867e-05
2.39536e-05
3.00954e-05
2.9101e-05
7.38179e-06
1.74378e-05
1.40787e-05
1.89321e-05
2.04606e-05
1.38829e-05
2.31473e-05
3.71323e-05
6.89871e-05
7.65227e-05
6.35003e-05
4.72434e-05
3.7907e-05
3.7238e-05
4.32604e-05
5.19321e-05
5.48323e-05
4.75263e-05
3.20877e-05
1.96933e-05
2.26562e-05
2.07374e-05
2.17955e-05
3.29888e-05
3.03877e-05
2.85117e-05
3.75558e-05
3.74678e-05
3.3095e-05
4.10753e-05
4.93925e-05
4.76946e-05
3.57432e-05
2.50055e-05
2.3147e-05
2.3202e-05
2.33335e-05
2.58519e-05
2.47981e-05
2.84994e-05
2.28222e-05
3.35033e-06
2.1549e-05
1.32112e-05
2.0719e-05
2.05799e-05
1.87918e-05
2.60051e-05
3.48977e-05
6.17206e-05
6.61614e-05
5.39613e-05
3.87496e-05
3.19114e-05
3.70455e-05
5.00102e-05
6.13406e-05
6.00198e-05
4.6494e-05
2.70822e-05
1.78887e-05
2.0455e-05
2.21322e-05
3.11949e-05
3.20299e-05
2.29288e-05
1.64462e-05
2.46462e-05
2.8416e-05
2.7063e-05
3.40641e-05
4.51983e-05
4.43738e-05
3.11829e-05
2.73625e-05
2.66808e-05
2.61174e-05
2.4902e-05
2.51953e-05
1.9218e-05
2.04238e-05
1.4689e-05
8.5071e-06
2.15672e-05
1.34102e-05
1.88146e-05
1.3054e-05
2.34901e-05
2.42545e-05
2.84785e-05
4.5341e-05
4.55485e-05
3.52169e-05
2.3473e-05
2.57534e-05
3.76885e-05
5.62047e-05
6.61351e-05
5.83494e-05
3.94002e-05
2.32863e-05
2.08347e-05
2.03022e-05
2.5334e-05
3.14662e-05
3.36082e-05
3.10215e-05
2.28804e-05
1.89579e-05
2.22602e-05
2.19686e-05
3.15952e-05
4.3275e-05
3.84538e-05
3.19016e-05
2.88637e-05
3.03298e-05
2.49615e-05
2.31413e-05
1.92289e-05
1.07555e-05
1.57144e-05
1.0181e-05
1.31883e-05
1.95825e-05
1.48005e-05
1.64141e-05
1.30631e-05
2.6099e-05
2.31209e-05
1.69534e-05
1.88728e-05
2.23985e-05
2.66443e-05
2.63581e-05
2.9723e-05
3.58043e-05
5.58627e-05
6.1128e-05
4.77265e-05
3.15648e-05
2.60337e-05
2.19793e-05
2.07733e-05
2.6107e-05
3.34299e-05
4.0953e-05
4.07364e-05
3.04588e-05
2.16952e-05
2.22535e-05
1.78679e-05
3.09485e-05
3.79301e-05
3.13027e-05
3.09482e-05
3.33319e-05
2.95684e-05
2.29354e-05
1.89825e-05
1.0096e-05
1.01341e-05
1.35572e-05
9.96168e-06
1.5827e-05
1.75625e-05
1.82888e-05
1.66983e-05
1.97183e-05
3.23118e-05
3.3532e-05
2.03721e-05
1.44768e-05
2.85341e-05
2.93789e-05
2.41822e-05
2.2798e-05
2.98783e-05
4.92567e-05
4.80649e-05
3.49682e-05
2.90925e-05
2.50018e-05
1.80665e-05
1.69371e-05
2.02529e-05
3.04478e-05
3.98175e-05
3.80551e-05
2.75671e-05
2.27055e-05
1.93791e-05
1.42674e-05
2.75646e-05
2.40306e-05
3.00316e-05
3.40243e-05
3.2573e-05
2.92259e-05
2.3571e-05
1.25578e-05
6.75146e-06
1.43954e-05
1.43879e-05
1.28379e-05
1.58359e-05
1.82587e-05
2.19826e-05
2.10228e-05
2.08836e-05
1.9975e-05
1.67482e-05
1.90682e-05
2.41398e-05
2.9356e-05
2.30605e-05
1.84878e-05
1.67386e-05
3.20706e-05
4.24365e-05
3.47158e-05
2.68198e-05
2.28636e-05
1.56886e-05
1.40399e-05
1.47535e-05
1.31681e-05
1.91676e-05
2.45461e-05
2.11876e-05
1.66969e-05
2.15514e-05
1.81765e-05
1.43811e-05
2.04025e-05
2.5892e-05
3.01355e-05
2.91197e-05
3.06661e-05
3.01995e-05
1.90754e-05
6.17367e-06
1.18013e-05
1.72635e-05
1.53058e-05
1.28734e-05
1.32772e-05
1.74223e-05
2.12161e-05
2.04946e-05
1.91555e-05
1.97209e-05
2.14648e-05
2.2151e-05
2.69274e-05
3.07379e-05
1.95213e-05
1.05111e-05
2.48373e-05
3.88384e-05
3.68842e-05
2.6647e-05
1.74221e-05
1.77903e-05
2.36064e-05
2.23273e-05
1.76596e-05
1.54547e-05
1.6964e-05
1.84707e-05
1.88599e-05
2.24879e-05
2.72746e-05
2.4118e-05
3.01459e-05
2.72136e-05
2.48057e-05
2.05258e-05
2.4308e-05
3.20496e-05
2.61637e-05
1.27181e-05
6.40376e-06
1.25687e-05
1.46649e-05
1.31966e-05
1.2889e-05
1.3264e-05
1.36303e-05
1.84845e-05
2.2969e-05
2.25014e-05
1.99149e-05
1.74324e-05
2.17515e-05
3.15022e-05
2.73806e-05
9.74333e-06
1.30388e-05
2.9726e-05
3.55099e-05
3.01814e-05
2.0751e-05
1.80416e-05
1.76299e-05
1.62015e-05
1.55651e-05
1.24042e-05
1.11429e-05
1.83457e-05
2.52344e-05
2.67168e-05
2.82827e-05
3.12157e-05
2.92122e-05
3.17981e-05
2.88953e-05
1.82203e-05
1.53552e-05
2.73358e-05
3.14962e-05
2.52137e-05
1.40679e-05
6.50118e-06
1.0382e-05
1.14117e-05
1.23397e-05
1.49205e-05
2.00388e-05
2.66892e-05
2.71151e-05
2.22404e-05
1.73522e-05
1.26366e-05
1.77474e-05
2.92313e-05
3.01174e-05
1.57123e-05
4.81798e-06
2.08355e-05
2.94925e-05
2.95977e-05
2.51216e-05
1.97617e-05
1.45615e-05
1.52287e-05
2.18068e-05
2.06365e-05
1.33081e-05
1.98214e-05
2.79465e-05
2.91894e-05
2.68584e-05
2.65389e-05
2.25783e-05
2.39333e-05
2.33243e-05
1.80062e-05
1.43155e-05
1.61823e-05
1.97843e-05
2.30336e-05
2.35726e-05
2.1156e-05
1.49917e-05
5.31091e-06
8.71264e-06
2.13074e-05
2.99416e-05
3.08303e-05
2.46231e-05
2.22107e-05
2.12978e-05
1.38417e-05
1.36361e-05
2.7577e-05
3.73516e-05
2.8685e-05
9.15273e-06
2.50273e-05
3.55782e-05
3.80659e-05
3.94627e-05
3.95114e-05
3.54147e-05
2.72338e-05
2.0897e-05
2.17197e-05
1.93497e-05
1.72122e-05
2.22359e-05
2.33952e-05
2.09064e-05
2.05208e-05
1.84691e-05
1.73702e-05
1.57023e-05
1.63536e-05
2.18068e-05
2.4234e-05
1.85091e-05
1.28875e-05
1.55471e-05
1.87223e-05
2.1798e-05
2.20407e-05
1.77537e-05
1.79771e-05
2.7112e-05
3.12774e-05
2.63009e-05
2.31232e-05
2.64998e-05
2.40991e-05
1.66152e-05
1.27861e-05
2.1311e-05
2.4238e-05
9.89609e-06
1.94901e-05
3.78376e-05
4.56433e-05
5.05299e-05
5.14374e-05
4.53714e-05
3.4698e-05
2.37328e-05
1.66497e-05
1.47871e-05
1.52205e-05
1.95615e-05
2.38724e-05
2.38983e-05
2.10124e-05
1.94624e-05
1.84419e-05
1.73228e-05
1.82879e-05
1.85049e-05
1.57585e-05
1.09253e-05
9.62561e-06
1.56661e-05
1.91951e-05
1.7263e-05
1.56423e-05
1.88237e-05
2.05773e-05
1.62328e-05
9.22579e-06
1.03661e-05
1.38333e-05
2.18908e-05
2.79815e-05
2.52054e-05
1.71394e-05
1.05741e-05
1.25336e-05
1.04409e-05
1.36226e-05
3.16156e-05
4.22628e-05
4.41548e-05
3.95707e-05
3.24685e-05
2.69624e-05
2.4987e-05
2.45356e-05
2.31551e-05
2.12721e-05
2.07784e-05
2.1956e-05
2.27677e-05
2.11864e-05
1.53124e-05
2.14149e-05
2.35653e-05
2.23853e-05
2.26589e-05
2.20815e-05
1.84017e-05
1.27874e-05
7.76016e-06
6.72906e-06
1.0574e-05
1.40936e-05
1.34222e-05
1.18772e-05
1.63698e-05
2.01226e-05
1.70219e-05
1.24671e-05
1.98446e-05
3.02082e-05
3.39524e-05
2.86468e-05
1.90591e-05
1.43613e-05
1.25688e-05
1.46414e-05
2.48757e-05
3.13665e-05
2.95089e-05
2.33249e-05
1.84953e-05
1.71106e-05
1.99097e-05
2.59961e-05
2.96709e-05
2.87939e-05
2.61159e-05
2.31177e-05
2.01098e-05
1.5938e-05
1.21237e-05
1.2626e-05
1.07637e-05
8.469e-06
1.26075e-05
1.60102e-05
1.5326e-05
1.69275e-05
2.00053e-05
1.91033e-05
1.45877e-05
1.00082e-05
1.2454e-05
1.53253e-05
1.2854e-05
1.24343e-05
1.78862e-05
1.9086e-05
1.73625e-05
2.44748e-05
3.37742e-05
3.524e-05
2.73281e-05
1.66143e-05
1.34084e-05
1.4173e-05
1.64577e-05
1.9048e-05
2.11374e-05
2.26467e-05
2.10194e-05
1.62617e-05
1.17198e-05
1.60801e-05
2.29459e-05
2.36494e-05
1.94357e-05
1.45266e-05
1.15875e-05
1.10516e-05
1.15723e-05
1.00845e-05
9.68969e-06
1.24933e-05
1.56347e-05
1.64332e-05
1.69896e-05
2.06737e-05
2.36114e-05
2.11768e-05
1.51963e-05
1.22643e-05
1.21553e-05
1.08004e-05
8.74293e-06
8.48037e-06
1.19512e-05
1.54785e-05
1.77441e-05
1.82942e-05
1.62503e-05
1.2318e-05
9.838e-06
1.02707e-05
1.14279e-05
1.31204e-05
1.51407e-05
1.68377e-05
1.89121e-05
1.99979e-05
1.7519e-05
1.21445e-05
7.56641e-06
6.63669e-06
8.5547e-06
1.06795e-05
1.18607e-05
1.26041e-05
1.25305e-05
1.23363e-05
1.424e-05
1.11872e-05
9.86386e-06
1.12248e-05
1.26256e-05
1.21545e-05
9.34307e-06
7.14006e-06
9.27481e-06
1.02452e-05
9.70429e-06
1.19267e-05
1.6318e-05
2.05602e-05
2.32346e-05
2.27702e-05
1.92972e-05
1.78076e-05
2.04998e-05
2.35326e-05
2.58547e-05
2.51378e-05
1.85739e-05
8.26266e-06
4.37232e-06
9.33255e-06
1.31912e-05
1.80559e-05
2.27276e-05
2.45305e-05
2.24711e-05
1.70288e-05
1.18883e-05
1.13443e-05
1.06395e-05
6.70469e-06
8.72982e-06
1.31718e-05
1.47799e-05
1.53846e-05
8.14896e-05
8.65209e-05
9.09232e-05
9.31762e-05
9.27646e-05
9.04005e-05
8.72698e-05
8.35925e-05
7.9058e-05
7.39306e-05
6.96339e-05
6.70706e-05
6.56384e-05
6.43075e-05
6.3168e-05
6.31669e-05
6.48014e-05
6.76492e-05
7.09018e-05
7.42351e-05
7.80952e-05
8.28299e-05
8.80163e-05
9.21414e-05
9.31254e-05
9.0056e-05
8.40024e-05
7.69998e-05
7.08598e-05
6.59998e-05
6.15032e-05
5.73458e-05
5.46906e-05
5.40375e-05
5.49933e-05
5.72975e-05
6.13892e-05
6.68394e-05
7.22491e-05
7.68432e-05
8.1388e-05
8.75843e-05
9.29484e-05
9.61353e-05
9.64045e-05
9.42725e-05
9.09364e-05
8.7219e-05
8.3396e-05
7.93667e-05
7.5215e-05
7.16423e-05
6.88406e-05
6.63369e-05
6.43698e-05
6.37934e-05
6.48827e-05
6.71468e-05
7.00041e-05
7.33704e-05
7.77944e-05
8.35117e-05
8.97474e-05
9.47124e-05
9.64923e-05
9.43924e-05
8.91148e-05
8.22975e-05
7.61986e-05
7.16186e-05
6.70576e-05
6.14954e-05
5.63621e-05
5.36207e-05
5.36333e-05
5.59636e-05
5.99775e-05
6.48962e-05
7.00655e-05
7.54424e-05
7.81469e-05
8.47409e-05
9.07727e-05
9.52061e-05
9.69156e-05
9.58489e-05
9.31583e-05
9.02802e-05
8.80216e-05
8.56975e-05
8.18836e-05
7.70912e-05
7.28977e-05
6.93083e-05
6.59787e-05
6.36172e-05
6.2972e-05
6.38702e-05
6.58164e-05
6.85954e-05
7.26097e-05
7.83365e-05
8.52714e-05
9.17642e-05
9.59159e-05
9.67909e-05
9.4242e-05
8.87915e-05
8.28633e-05
7.8766e-05
7.5185e-05
6.90395e-05
6.04812e-05
5.35875e-05
5.09723e-05
5.20962e-05
5.55529e-05
6.0287e-05
6.5754e-05
7.1711e-05
7.16813e-05
7.77807e-05
8.35031e-05
8.8727e-05
9.22878e-05
9.31862e-05
9.19994e-05
9.04318e-05
9.00511e-05
9.03112e-05
8.83609e-05
8.32632e-05
7.77794e-05
7.32368e-05
6.85753e-05
6.38083e-05
6.03206e-05
5.86969e-05
5.86122e-05
5.96417e-05
6.18937e-05
6.62214e-05
7.28833e-05
8.06895e-05
8.78085e-05
9.31049e-05
9.55176e-05
9.36057e-05
8.87078e-05
8.51059e-05
8.34711e-05
7.9238e-05
6.90531e-05
5.68343e-05
4.91164e-05
4.72376e-05
4.93564e-05
5.3686e-05
5.93016e-05
6.54484e-05
6.15297e-05
6.63371e-05
7.03033e-05
7.46619e-05
7.95237e-05
8.30591e-05
8.4347e-05
8.44222e-05
8.54399e-05
8.84074e-05
9.03933e-05
8.76501e-05
8.19593e-05
7.68358e-05
7.16682e-05
6.5127e-05
5.85051e-05
5.33967e-05
4.99631e-05
4.75824e-05
4.61836e-05
4.712e-05
5.15465e-05
5.88121e-05
6.7949e-05
7.7938e-05
8.71768e-05
9.20401e-05
9.04543e-05
8.73252e-05
8.75081e-05
8.76571e-05
8.0854e-05
6.63167e-05
5.19427e-05
4.427e-05
4.30403e-05
4.57254e-05
5.05541e-05
5.61269e-05
4.79192e-05
5.17667e-05
5.3641e-05
5.40552e-05
5.70729e-05
6.25e-05
6.70746e-05
6.92516e-05
7.07317e-05
7.48631e-05
8.14266e-05
8.4861e-05
8.23732e-05
7.77702e-05
7.30813e-05
6.65814e-05
5.8363e-05
5.03313e-05
4.34064e-05
3.73088e-05
3.26266e-05
3.14975e-05
3.36967e-05
3.6209e-05
3.98518e-05
4.88231e-05
6.3717e-05
7.81324e-05
8.38901e-05
8.23227e-05
8.2946e-05
8.77438e-05
8.88952e-05
7.96306e-05
6.29062e-05
4.80111e-05
4.03565e-05
3.89777e-05
4.07191e-05
4.39818e-05
3.37734e-05
3.70565e-05
3.97738e-05
3.73847e-05
3.2714e-05
3.39344e-05
4.00348e-05
4.46059e-05
4.48989e-05
4.58201e-05
5.39738e-05
6.6312e-05
7.31471e-05
7.30462e-05
7.0048e-05
6.50179e-05
5.77855e-05
4.95462e-05
4.13555e-05
3.35351e-05
2.70721e-05
2.41749e-05
2.65405e-05
2.91399e-05
2.74122e-05
2.52887e-05
3.18757e-05
4.94617e-05
6.45948e-05
6.7386e-05
6.69622e-05
7.39602e-05
8.38513e-05
8.63297e-05
7.72845e-05
6.15367e-05
4.62874e-05
3.76896e-05
3.4363e-05
3.30477e-05
2.6563e-05
2.71078e-05
2.98396e-05
3.13807e-05
2.52083e-05
1.58519e-05
1.56399e-05
2.03998e-05
2.25503e-05
1.91371e-05
1.92997e-05
2.91597e-05
4.65234e-05
5.85221e-05
6.17489e-05
5.91944e-05
5.37154e-05
4.74111e-05
4.12732e-05
3.6079e-05
3.31051e-05
3.08333e-05
2.67838e-05
2.59242e-05
2.52236e-05
2.04404e-05
1.88543e-05
2.42273e-05
3.7643e-05
4.24371e-05
3.53629e-05
3.77913e-05
5.60125e-05
7.44247e-05
8.10965e-05
7.60718e-05
6.14999e-05
4.46085e-05
3.46697e-05
2.94201e-05
2.65457e-05
2.55887e-05
2.47333e-05
2.57477e-05
2.76963e-05
1.90866e-05
1.11063e-05
1.45453e-05
1.54564e-05
1.4794e-05
5.79775e-06
1.23563e-05
1.54829e-05
3.20851e-05
4.78758e-05
5.25446e-05
4.89216e-05
4.28033e-05
3.81745e-05
3.67853e-05
3.97591e-05
4.46828e-05
4.34957e-05
3.45323e-05
2.85014e-05
2.28288e-05
1.60327e-05
1.7389e-05
1.94016e-05
2.11359e-05
1.3564e-05
2.07907e-05
1.90599e-05
3.53319e-05
6.23636e-05
7.62167e-05
7.46363e-05
5.77482e-05
3.98382e-05
3.07889e-05
2.59312e-05
2.57865e-05
2.77073e-05
2.35141e-05
2.3007e-05
2.45599e-05
1.40195e-05
1.63224e-05
2.25776e-05
1.91293e-05
1.48046e-05
7.82254e-06
1.83159e-05
1.50171e-05
2.50323e-05
4.21655e-05
4.58378e-05
3.97102e-05
3.28415e-05
3.09002e-05
3.49436e-05
4.3552e-05
4.99319e-05
4.52297e-05
3.3808e-05
2.63295e-05
1.76419e-05
1.33805e-05
1.41529e-05
1.64515e-05
1.90416e-05
2.2184e-05
3.56547e-05
2.57892e-05
2.46639e-05
5.52057e-05
7.40669e-05
6.93507e-05
4.88806e-05
3.27898e-05
2.38959e-05
2.1759e-05
2.73832e-05
2.8977e-05
2.16455e-05
2.04244e-05
2.00553e-05
1.35682e-05
2.36843e-05
2.73064e-05
1.8579e-05
1.30658e-05
1.53153e-05
2.5547e-05
1.80842e-05
1.99387e-05
3.46119e-05
3.53079e-05
2.73923e-05
2.1154e-05
2.22363e-05
3.10538e-05
4.30153e-05
4.7252e-05
3.77386e-05
2.77789e-05
1.98366e-05
1.03613e-05
1.05344e-05
1.78496e-05
2.63418e-05
2.6538e-05
1.97547e-05
3.1327e-05
2.7041e-05
2.24066e-05
5.59902e-05
7.25209e-05
5.90316e-05
3.72622e-05
2.65722e-05
1.89886e-05
2.17605e-05
2.75152e-05
2.59658e-05
1.83495e-05
1.96808e-05
1.82703e-05
1.46452e-05
2.19265e-05
2.36498e-05
1.91902e-05
1.55444e-05
2.12431e-05
2.80626e-05
1.77643e-05
1.23119e-05
2.1045e-05
2.14828e-05
1.76062e-05
1.59443e-05
2.11103e-05
2.88321e-05
3.8611e-05
3.63322e-05
2.54113e-05
1.98408e-05
1.34822e-05
8.20474e-06
1.46655e-05
2.3872e-05
3.20939e-05
3.52011e-05
2.3005e-05
2.76614e-05
2.65353e-05
2.50498e-05
6.18311e-05
6.61376e-05
4.54646e-05
3.54889e-05
2.3562e-05
2.14514e-05
2.29834e-05
2.36491e-05
1.92066e-05
1.65573e-05
1.97714e-05
1.59601e-05
1.37621e-05
2.07127e-05
2.36344e-05
1.94678e-05
1.43893e-05
2.1157e-05
2.70806e-05
2.35043e-05
1.43469e-05
1.38007e-05
2.2528e-05
1.99038e-05
1.78384e-05
2.13832e-05
2.16316e-05
2.69772e-05
2.17828e-05
1.78058e-05
1.73449e-05
1.38734e-05
1.23897e-05
1.79181e-05
2.33201e-05
2.88829e-05
3.31338e-05
2.16145e-05
2.90107e-05
1.8901e-05
3.63993e-05
6.44097e-05
5.56626e-05
4.85772e-05
3.47564e-05
2.91553e-05
2.56808e-05
2.05429e-05
1.63373e-05
1.42348e-05
1.87714e-05
1.9499e-05
1.62345e-05
1.95416e-05
2.51931e-05
2.31058e-05
1.39025e-05
1.08731e-05
2.3308e-05
2.91992e-05
2.25884e-05
2.07074e-05
2.60526e-05
2.32294e-05
1.26351e-05
1.25995e-05
1.32487e-05
1.42505e-05
1.82083e-05
1.50255e-05
1.89793e-05
1.88533e-05
1.42888e-05
1.18233e-05
1.59221e-05
1.95401e-05
2.07529e-05
2.42338e-05
2.03649e-05
2.47418e-05
9.70285e-06
4.82662e-05
6.04433e-05
6.00515e-05
5.14661e-05
4.19893e-05
3.55692e-05
2.76395e-05
2.00089e-05
1.52554e-05
1.83038e-05
2.2046e-05
2.2051e-05
2.22249e-05
2.45551e-05
2.29765e-05
1.70343e-05
1.2811e-05
1.61241e-05
2.00812e-05
2.25603e-05
2.63964e-05
2.48054e-05
1.74642e-05
1.51038e-05
9.29459e-06
8.57555e-06
1.21428e-05
1.89766e-05
1.56432e-05
1.78455e-05
2.06271e-05
1.56628e-05
9.56735e-06
6.98192e-06
1.16924e-05
1.72638e-05
2.05327e-05
1.87605e-05
1.82744e-05
1.28192e-05
2.33386e-05
5.27962e-05
5.50399e-05
6.52925e-05
5.9323e-05
4.81417e-05
3.58157e-05
2.49857e-05
1.73687e-05
1.61055e-05
2.15093e-05
2.60644e-05
2.61634e-05
2.31761e-05
2.01435e-05
1.63158e-05
1.27845e-05
1.40563e-05
2.11045e-05
2.70557e-05
2.64325e-05
1.85689e-05
8.71005e-06
1.09708e-05
1.21065e-05
1.02341e-05
1.41618e-05
2.12008e-05
2.13369e-05
1.73919e-05
1.70387e-05
1.53187e-05
1.25775e-05
1.32253e-05
1.54666e-05
1.4835e-05
1.91399e-05
2.40699e-05
2.1402e-05
1.85978e-05
1.12497e-05
2.84616e-05
2.78744e-05
4.91222e-05
6.11823e-05
5.65592e-05
4.07558e-05
2.25829e-05
1.19053e-05
8.94093e-06
1.3333e-05
2.13152e-05
2.72934e-05
2.62852e-05
2.22171e-05
1.931e-05
1.35871e-05
8.805e-06
1.44997e-05
1.88438e-05
1.79564e-05
1.2505e-05
1.06824e-05
1.6591e-05
1.85678e-05
1.51091e-05
1.35202e-05
1.71602e-05
2.06472e-05
1.97766e-05
1.70246e-05
1.48208e-05
1.44471e-05
1.61817e-05
1.76818e-05
1.8297e-05
2.02571e-05
2.59069e-05
2.64081e-05
2.0774e-05
1.99375e-05
1.99627e-05
2.45569e-05
2.24458e-05
3.31969e-05
4.67437e-05
4.60029e-05
3.12306e-05
1.31625e-05
8.27485e-06
1.4784e-05
1.44012e-05
1.41853e-05
2.17746e-05
2.70139e-05
2.64245e-05
2.1712e-05
1.86906e-05
1.84664e-05
1.37948e-05
8.88678e-06
1.0495e-05
1.44965e-05
2.25335e-05
2.96545e-05
2.7898e-05
1.81958e-05
1.37917e-05
1.88829e-05
2.25616e-05
2.35265e-05
2.13503e-05
1.64484e-05
1.51398e-05
1.86351e-05
2.11689e-05
2.503e-05
2.94975e-05
2.8872e-05
2.31378e-05
1.7262e-05
2.00442e-05
1.7896e-05
2.27942e-05
1.95352e-05
2.25464e-05
3.75696e-05
4.10808e-05
3.14401e-05
1.76713e-05
7.07631e-06
9.11542e-06
1.27127e-05
1.51303e-05
1.87775e-05
2.64835e-05
3.47323e-05
3.75492e-05
3.17883e-05
1.99842e-05
1.40628e-05
1.55397e-05
1.56516e-05
1.59443e-05
2.32609e-05
3.0768e-05
2.78041e-05
1.95898e-05
2.28837e-05
2.8949e-05
3.14137e-05
2.99285e-05
2.42959e-05
1.59846e-05
1.43615e-05
2.29142e-05
2.84781e-05
2.87348e-05
2.52692e-05
1.95662e-05
1.39265e-05
1.20228e-05
1.25464e-05
1.57908e-05
2.06973e-05
1.85193e-05
1.284e-05
1.83208e-05
2.08e-05
1.78612e-05
1.79521e-05
1.72337e-05
1.23015e-05
1.15705e-05
1.97894e-05
2.82336e-05
3.68174e-05
4.0528e-05
3.17456e-05
1.53638e-05
1.32189e-05
1.79834e-05
1.78419e-05
1.72719e-05
1.42251e-05
1.27236e-05
1.99321e-05
2.35699e-05
2.59027e-05
2.76907e-05
2.65593e-05
2.56128e-05
2.57865e-05
2.29427e-05
1.59969e-05
1.31629e-05
1.71149e-05
1.85947e-05
2.02605e-05
2.21684e-05
2.0397e-05
1.56599e-05
1.37051e-05
1.37554e-05
1.1031e-05
1.0855e-05
1.52e-05
1.54663e-05
1.01928e-05
5.06666e-06
1.14468e-05
1.53835e-05
1.63125e-05
1.93124e-05
2.4181e-05
2.66179e-05
2.56741e-05
2.5718e-05
2.58611e-05
1.94175e-05
1.35717e-05
2.01563e-05
2.53214e-05
2.6324e-05
2.42824e-05
1.95396e-05
1.76925e-05
2.08779e-05
2.39292e-05
2.21594e-05
1.69095e-05
1.99218e-05
2.75337e-05
3.11368e-05
2.87883e-05
2.20721e-05
1.47167e-05
1.09451e-05
1.46714e-05
1.90817e-05
1.9346e-05
1.59055e-05
1.51835e-05
1.32482e-05
1.43703e-05
2.11964e-05
2.68124e-05
2.77679e-05
2.38714e-05
1.68619e-05
8.50405e-06
6.97251e-06
1.33058e-05
1.60637e-05
1.67392e-05
1.877e-05
1.96195e-05
1.57951e-05
1.00621e-05
7.64778e-06
3.84674e-06
1.01502e-05
2.15997e-05
2.78974e-05
2.69771e-05
2.2405e-05
1.8992e-05
1.90846e-05
1.9967e-05
1.84505e-05
1.55667e-05
1.68404e-05
2.14802e-05
2.58648e-05
2.81863e-05
2.87403e-05
2.6718e-05
2.1842e-05
1.68755e-05
1.35551e-05
1.23438e-05
1.38972e-05
1.08781e-05
1.27658e-05
1.28387e-05
1.26519e-05
1.63491e-05
2.21256e-05
2.44875e-05
2.14218e-05
1.85044e-05
2.04164e-05
2.30824e-05
2.41718e-05
2.39969e-05
2.17457e-05
1.81601e-05
1.48296e-05
1.15969e-05
8.01899e-06
5.55018e-06
5.69998e-06
9.74704e-06
1.69777e-05
2.20935e-05
2.09534e-05
1.77066e-05
1.82575e-05
1.74846e-05
1.36397e-05
1.29877e-05
1.29481e-05
9.15259e-06
6.57522e-06
8.85688e-06
1.25374e-05
1.67464e-05
1.71506e-05
1.36385e-05
1.12405e-05
1.01082e-05
9.45809e-06
1.2629e-05
1.46191e-05
1.2567e-05
9.73848e-06
1.2371e-05
1.57686e-05
1.56729e-05
1.40284e-05
1.35103e-05
1.21865e-05
9.69316e-06
8.90926e-06
1.03482e-05
1.37039e-05
1.60643e-05
1.47278e-05
1.2289e-05
1.16661e-05
1.25968e-05
1.71809e-05
2.23101e-05
2.3255e-05
2.05185e-05
1.67472e-05
1.28224e-05
1.04455e-05
1.29028e-05
1.76017e-05
2.05706e-05
1.92261e-05
1.33428e-05
7.88472e-06
8.63708e-06
9.51429e-06
9.30727e-06
9.15659e-06
9.7729e-06
1.0402e-05
9.30566e-06
9.27047e-06
1.9242e-05
2.27047e-05
2.47174e-05
2.42505e-05
2.35276e-05
2.22586e-05
1.77634e-05
1.11713e-05
1.03892e-05
1.39188e-05
1.33701e-05
1.00541e-05
1.12439e-05
1.61009e-05
1.88881e-05
1.83625e-05
1.6436e-05
1.49334e-05
1.39208e-05
1.7748e-05
2.45115e-05
2.58988e-05
2.12329e-05
1.69247e-05
1.55044e-05
1.55167e-05
1.96883e-05
2.63241e-05
2.83029e-05
2.36021e-05
1.89995e-05
1.62789e-05
1.12216e-05
8.21308e-06
7.5103e-06
6.43487e-06
1.238e-05
1.8e-05
1.93703e-05
1.83803e-05
6.03081e-05
6.43126e-05
6.80172e-05
7.04693e-05
7.10102e-05
6.98508e-05
6.78342e-05
6.55171e-05
6.31189e-05
6.12508e-05
6.06758e-05
6.13077e-05
6.25344e-05
6.39795e-05
6.57406e-05
6.81653e-05
7.13002e-05
7.46155e-05
7.72332e-05
7.88015e-05
7.97055e-05
8.08858e-05
8.29912e-05
8.57225e-05
8.74638e-05
8.69612e-05
8.44124e-05
8.04162e-05
7.49344e-05
6.75444e-05
5.87575e-05
5.12464e-05
4.6895e-05
4.50088e-05
4.41704e-05
4.41363e-05
4.54641e-05
4.83483e-05
5.21716e-05
5.63003e-05
5.9339e-05
6.52131e-05
7.05686e-05
7.42329e-05
7.56525e-05
7.49756e-05
7.27666e-05
6.97928e-05
6.70191e-05
6.52167e-05
6.44804e-05
6.43378e-05
6.4465e-05
6.49689e-05
6.62034e-05
6.8353e-05
7.12532e-05
7.43719e-05
7.7057e-05
7.90021e-05
8.05139e-05
8.24927e-05
8.53565e-05
8.85113e-05
9.0607e-05
9.06035e-05
8.85375e-05
8.52975e-05
8.13763e-05
7.58094e-05
6.75284e-05
5.79087e-05
4.99666e-05
4.53826e-05
4.33812e-05
4.30554e-05
4.40121e-05
4.63085e-05
4.96809e-05
5.40008e-05
5.68763e-05
6.38151e-05
7.06153e-05
7.59702e-05
7.90926e-05
7.97834e-05
7.82974e-05
7.54536e-05
7.26349e-05
7.06857e-05
6.93653e-05
6.81601e-05
6.69856e-05
6.60022e-05
6.55805e-05
6.6151e-05
6.78887e-05
7.04139e-05
7.30502e-05
7.52932e-05
7.72292e-05
7.96741e-05
8.31203e-05
8.70608e-05
9.04557e-05
9.21331e-05
9.15681e-05
8.97553e-05
8.80969e-05
8.56885e-05
7.95425e-05
6.81908e-05
5.50984e-05
4.60523e-05
4.19728e-05
4.06305e-05
4.08805e-05
4.27043e-05
4.5997e-05
5.06964e-05
5.24366e-05
5.95687e-05
6.71731e-05
7.41121e-05
7.93843e-05
8.23551e-05
8.27536e-05
8.10298e-05
7.8768e-05
7.71522e-05
7.57487e-05
7.38209e-05
7.14627e-05
6.87693e-05
6.58005e-05
6.32849e-05
6.22716e-05
6.29504e-05
6.46057e-05
6.64718e-05
6.83397e-05
7.09099e-05
7.4878e-05
7.98584e-05
8.50742e-05
8.93455e-05
9.11544e-05
9.0825e-05
9.1109e-05
9.24366e-05
9.09097e-05
8.14281e-05
6.44043e-05
4.90719e-05
4.11415e-05
3.79788e-05
3.73058e-05
3.86258e-05
4.16724e-05
4.62637e-05
4.61173e-05
5.21422e-05
5.89145e-05
6.62016e-05
7.32096e-05
7.89976e-05
8.25398e-05
8.32764e-05
8.24689e-05
8.20277e-05
8.17948e-05
8.04023e-05
7.77829e-05
7.4142e-05
6.8934e-05
6.25071e-05
5.69191e-05
5.36286e-05
5.22848e-05
5.19863e-05
5.23258e-05
5.40757e-05
5.82654e-05
6.43036e-05
7.13753e-05
7.88218e-05
8.4312e-05
8.56161e-05
8.65344e-05
9.0989e-05
9.60286e-05
9.37781e-05
7.8307e-05
5.7103e-05
4.29543e-05
3.65116e-05
3.41678e-05
3.45538e-05
3.70234e-05
4.09759e-05
3.95717e-05
4.34981e-05
4.73653e-05
5.19459e-05
5.80566e-05
6.56252e-05
7.30142e-05
7.76644e-05
7.9384e-05
8.08123e-05
8.30683e-05
8.43138e-05
8.33133e-05
8.04962e-05
7.49738e-05
6.59297e-05
5.54296e-05
4.67152e-05
4.04947e-05
3.60684e-05
3.3429e-05
3.37365e-05
3.76012e-05
4.30795e-05
4.89587e-05
5.75483e-05
6.7968e-05
7.25182e-05
7.20884e-05
7.69571e-05
8.8579e-05
9.81564e-05
9.25837e-05
7.09173e-05
4.95304e-05
3.78601e-05
3.25652e-05
3.10979e-05
3.26338e-05
3.5862e-05
3.46222e-05
3.69626e-05
3.82427e-05
3.82501e-05
3.90905e-05
4.3086e-05
5.06677e-05
5.89056e-05
6.41808e-05
6.77597e-05
7.28016e-05
7.84641e-05
8.18146e-05
8.24492e-05
7.94701e-05
7.10039e-05
5.80528e-05
4.51552e-05
3.47402e-05
2.66392e-05
2.21583e-05
2.3321e-05
2.81626e-05
3.33497e-05
3.53242e-05
3.36446e-05
4.11611e-05
5.19928e-05
4.92563e-05
4.76046e-05
6.24823e-05
8.58795e-05
9.82053e-05
8.65369e-05
6.20312e-05
4.35886e-05
3.4029e-05
2.93874e-05
2.91e-05
3.17552e-05
3.13379e-05
3.31113e-05
3.41616e-05
3.2812e-05
2.95345e-05
2.87516e-05
3.10583e-05
3.42084e-05
3.819e-05
4.13114e-05
4.59923e-05
5.43915e-05
6.38891e-05
7.12582e-05
7.42714e-05
7.03164e-05
5.89589e-05
4.51906e-05
3.44811e-05
2.77193e-05
2.26672e-05
1.92533e-05
2.15501e-05
2.74633e-05
3.14216e-05
3.06584e-05
2.34694e-05
2.94697e-05
3.25062e-05
1.7064e-05
2.00094e-05
4.8173e-05
8.4109e-05
9.44457e-05
7.81151e-05
5.50838e-05
3.98845e-05
3.1454e-05
2.73781e-05
2.85977e-05
2.86371e-05
3.10427e-05
3.31428e-05
3.35475e-05
3.07222e-05
2.58914e-05
2.50294e-05
2.59537e-05
2.39605e-05
2.1584e-05
2.08303e-05
2.50253e-05
3.07403e-05
3.82588e-05
4.96016e-05
5.62216e-05
5.24031e-05
4.11945e-05
3.2102e-05
3.08427e-05
3.35345e-05
3.29413e-05
2.77065e-05
2.63943e-05
3.01641e-05
2.81825e-05
2.56387e-05
1.91508e-05
2.63282e-05
1.78606e-05
1.83608e-05
2.29529e-05
4.28381e-05
8.25847e-05
8.92358e-05
7.19856e-05
5.11337e-05
3.83584e-05
3.00371e-05
2.67504e-05
2.67757e-05
2.89134e-05
3.30296e-05
3.63675e-05
3.56473e-05
3.04818e-05
2.37141e-05
2.1887e-05
2.19008e-05
2.03455e-05
2.04587e-05
2.55373e-05
3.26299e-05
2.98565e-05
1.79719e-05
2.59113e-05
3.6803e-05
3.49373e-05
2.79993e-05
2.82363e-05
3.67035e-05
4.47818e-05
4.35185e-05
3.27991e-05
2.86209e-05
3.1952e-05
2.27747e-05
2.27924e-05
1.55637e-05
2.903e-05
1.36782e-05
3.03974e-05
2.87815e-05
4.35322e-05
8.16826e-05
8.67976e-05
6.83092e-05
4.87279e-05
3.73153e-05
2.92935e-05
2.71387e-05
2.52512e-05
3.00598e-05
3.70396e-05
4.02221e-05
3.71587e-05
2.80567e-05
1.80814e-05
1.70398e-05
1.90289e-05
1.88069e-05
1.9189e-05
2.5201e-05
3.34143e-05
3.05853e-05
1.47575e-05
1.71624e-05
2.73902e-05
2.74484e-05
2.65049e-05
3.11775e-05
3.83807e-05
4.45544e-05
3.92216e-05
2.59097e-05
2.36602e-05
2.65655e-05
1.29788e-05
2.21266e-05
1.2359e-05
2.98255e-05
1.37259e-05
3.57514e-05
2.84561e-05
4.46444e-05
8.22863e-05
8.44487e-05
6.26184e-05
4.53261e-05
3.48011e-05
2.77858e-05
2.12024e-05
2.39363e-05
3.2005e-05
3.80805e-05
3.94859e-05
3.52526e-05
2.56786e-05
1.76265e-05