/*--------------------------------*- C++ -*----------------------------------*\
| =========                 |                                                 |
| \\      /  F ield         | OpenFOAM: The Open Source CFD Toolbox           |
|  \\    /   O peration     | Version:  2306                                  |
|   \\  /    A nd           | Website:  www.openfoam.com                      |
|    \\/     M anipulation  |                                                 |
\*---------------------------------------------------------------------------*/
FoamFile
{
    version     2.0;
    format      ascii;
    arch        "LSB;label=32;scalar=64";
    class       surfaceScalarField;
    location    "2";
    object      phi;
}
// * * * * * * * * * * * * * * * * * * * * * * * * * * * * * * * * * * * * * //

dimensions      [0 3 -1 0 0 0 0];

oriented        oriented;

internalField   nonuniform List<scalar> 
175300
(
6.5758e-06
4.70536e-07
1.86897e-06
6.49337e-06
-9.85699e-08
2.23496e-06
6.4067e-06
-4.43902e-07
2.28973e-06
6.31902e-06
-4.66588e-07
2.15511e-06
6.20881e-06
-3.05441e-07
1.92184e-06
6.052e-06
-1.61491e-07
1.63123e-06
5.80363e-06
-8.46544e-08
1.35667e-06
5.38497e-06
-3.7288e-08
1.20556e-06
4.77997e-06
-4.57514e-08
1.23549e-06
4.15509e-06
-2.13023e-07
1.3763e-06
3.74864e-06
-5.35889e-07
1.49766e-06
3.63479e-06
-8.06927e-07
1.54574e-06
3.71051e-06
-8.95962e-07
1.49305e-06
3.825e-06
-7.98377e-07
1.27702e-06
3.88857e-06
-5.34069e-07
9.01391e-07
3.94271e-06
-2.13935e-07
4.67099e-07
4.07186e-06
3.18244e-08
8.14934e-08
4.27584e-06
1.86767e-07
-2.24704e-07
4.49333e-06
2.63688e-07
-4.67398e-07
4.71773e-06
2.38364e-07
-6.61849e-07
4.95585e-06
7.19971e-08
-8.58008e-07
5.26236e-06
-1.81022e-07
-1.09508e-06
5.62437e-06
-3.34488e-07
-1.41378e-06
5.91123e-06
-2.75302e-07
-1.74008e-06
5.99897e-06
-1.73579e-07
-1.90633e-06
5.82051e-06
-6.08751e-08
-1.93554e-06
5.37554e-06
1.05678e-07
-1.95288e-06
4.79691e-06
1.48203e-07
-1.91962e-06
4.33089e-06
-1.3272e-07
-1.80208e-06
4.07648e-06
-4.38956e-07
-1.77566e-06
3.97821e-06
-4.35967e-07
-1.90742e-06
4.01962e-06
-2.38175e-07
-1.97095e-06
4.21062e-06
2.03235e-08
-1.75517e-06
4.53191e-06
3.5388e-07
-1.28236e-06
4.90645e-06
7.62647e-07
-7.6788e-07
5.31142e-06
1.02169e-06
-3.89965e-07
5.75011e-06
1.04313e-06
-9.35737e-08
6.19267e-06
1.01846e-06
1.95704e-07
6.4868e-06
1.09113e-06
6.21364e-07
9.52515e-07
1.23377e-06
2.24012e-05
7.43192e-07
5.72423e-06
2.21773e-05
-9.0282e-07
6.41096e-06
2.17762e-05
-1.78018e-06
6.3829e-06
2.13812e-05
-1.729e-06
6.06655e-06
2.09971e-05
-1.20575e-06
5.62776e-06
2.04729e-05
-7.35116e-07
5.00016e-06
1.96094e-05
-4.04335e-07
4.26061e-06
1.82307e-05
-1.76169e-07
3.74071e-06
1.63781e-05
-2.22754e-07
3.72955e-06
1.44878e-05
-8.41908e-07
4.13808e-06
1.31419e-05
-1.9474e-06
4.57084e-06
1.2562e-05
-2.86713e-06
4.70512e-06
1.25025e-05
-3.11918e-06
4.39114e-06
1.26037e-05
-2.67736e-06
3.60457e-06
1.26998e-05
-1.72608e-06
2.507e-06
1.28938e-05
-6.71961e-07
1.35591e-06
1.33376e-05
7.44989e-08
3.49836e-07
1.40075e-05
4.82363e-07
-4.83633e-07
1.47877e-05
6.14572e-07
-1.19179e-06
1.56653e-05
3.53356e-07
-1.80731e-06
1.66693e-05
-3.4788e-07
-2.44147e-06
1.7849e-05
-1.20935e-06
-3.21073e-06
1.90763e-05
-1.6423e-06
-4.1662e-06
2.00069e-05
-1.39286e-06
-5.06344e-06
2.02941e-05
-9.61203e-07
-5.48783e-06
1.97342e-05
-4.90356e-07
-5.45709e-06
1.83981e-05
8.94272e-09
-5.26683e-06
1.67036e-05
3.22718e-08
-5.02583e-06
1.51754e-05
-7.71151e-07
-4.87226e-06
1.40426e-05
-1.51735e-06
-5.13256e-06
1.3383e-05
-1.44585e-06
-5.68329e-06
1.33277e-05
-8.84223e-07
-5.80898e-06
1.38928e-05
-8.65471e-08
-5.02163e-06
1.49131e-05
1.04359e-06
-3.54827e-06
1.61523e-05
2.39898e-06
-2.03707e-06
1.752e-05
3.25001e-06
-8.76986e-07
1.89834e-05
3.32939e-06
8.99673e-08
2.04296e-05
3.22033e-06
1.05922e-06
2.15542e-05
3.14914e-06
2.46654e-06
2.37242e-06
4.2128e-06
4.23918e-05
2.86102e-07
9.58755e-06
4.2039e-05
-2.55135e-06
1.05711e-05
4.11396e-05
-3.90885e-06
1.03319e-05
4.02588e-05
-3.66718e-06
9.75172e-06
3.95333e-05
-2.64905e-06
9.24996e-06
3.86515e-05
-1.7298e-06
8.57215e-06
3.72198e-05
-9.91514e-07
7.5336e-06
3.49792e-05
-4.41374e-07
6.52528e-06
3.19506e-05
-4.64194e-07
6.17683e-06
2.86072e-05
-1.54952e-06
6.67552e-06
2.57986e-05
-3.62759e-06
7.54845e-06
2.41477e-05
-5.57808e-06
8.02054e-06
2.35081e-05
-6.27539e-06
7.58934e-06
2.33341e-05
-5.46845e-06
6.31004e-06
2.33299e-05
-3.60071e-06
4.58951e-06
2.36122e-05
-1.55302e-06
2.81761e-06
2.43774e-05
-1.33512e-07
1.22255e-06
2.55804e-05
5.16087e-07
-8.27363e-08
2.70553e-05
5.92652e-07
-1.27414e-06
2.87867e-05
-1.4736e-07
-2.28179e-06
3.08273e-05
-1.86744e-06
-3.28132e-06
3.31893e-05
-3.81392e-06
-4.53703e-06
3.55983e-05
-4.72153e-06
-6.20395e-06
3.7493e-05
-4.11602e-06
-7.90005e-06
3.82981e-05
-2.97775e-06
-8.86297e-06
3.76328e-05
-1.72265e-06
-8.9e-06
3.55746e-05
-5.98245e-07
-8.38245e-06
3.27502e-05
-5.28058e-07
-7.70216e-06
2.99038e-05
-1.88786e-06
-7.35847e-06
2.73989e-05
-3.06665e-06
-7.90331e-06
2.55295e-05
-2.90203e-06
-9.10006e-06
2.4783e-05
-2.01943e-06
-9.73181e-06
2.53968e-05
-7.56282e-07
-8.78343e-06
2.70862e-05
1.26359e-06
-6.47679e-06
2.93551e-05
3.82638e-06
-3.91689e-06
3.19529e-05
5.581e-06
-1.82612e-06
3.4767e-05
5.75575e-06
2.36204e-08
3.76038e-05
5.56989e-06
1.78827e-06
4.00267e-05
5.1682e-06
4.24644e-06
3.38931e-06
7.17317e-06
6.66802e-05
-1.35975e-06
1.29965e-05
6.63144e-05
-5.07459e-06
1.46564e-05
6.47134e-05
-6.58059e-06
1.42083e-05
6.30997e-05
-6.02656e-06
1.30528e-05
6.19598e-05
-4.45144e-06
1.23586e-05
6.08392e-05
-3.01551e-06
1.19425e-05
5.90887e-05
-1.79309e-06
1.105e-05
5.63517e-05
-8.23906e-07
9.6299e-06
5.25291e-05
-6.94546e-07
8.53755e-06
4.77878e-05
-1.95241e-06
8.6327e-06
4.29337e-05
-4.74261e-06
9.90916e-06
3.92231e-05
-7.95309e-06
1.1221e-05
3.71582e-05
-9.7054e-06
1.11949e-05
3.62063e-05
-8.97941e-06
9.68228e-06
3.58182e-05
-6.29313e-06
7.48412e-06
3.60092e-05
-3.16524e-06
5.24449e-06
3.69834e-05
-9.52161e-07
3.18795e-06
3.86682e-05
-2.32931e-08
1.47451e-06
4.08378e-05
-2.27479e-07
1.2599e-07
4.34815e-05
-1.74182e-06
-1.20382e-06
4.67207e-05
-5.15424e-06
-2.28013e-06
5.05775e-05
-9.01126e-06
-3.75258e-06
5.46226e-05
-1.08622e-05
-6.15544e-06
5.80406e-05
-9.74092e-06
-9.1225e-06
6.00112e-05
-7.2823e-06
-1.13761e-05
5.99039e-05
-4.43381e-06
-1.21354e-05
5.76385e-05
-2.00333e-06
-1.15425e-05
5.39116e-05
-1.56966e-06
-1.01967e-05
4.96854e-05
-3.40516e-06
-9.15285e-06
4.54594e-05
-4.91589e-06
-9.55399e-06
4.16274e-05
-4.53477e-06
-1.14089e-05
3.9082e-05
-3.42616e-06
-1.31894e-05
3.87445e-05
-2.18284e-06
-1.31014e-05
4.0618e-05
1.42492e-07
-1.07342e-05
4.39094e-05
3.6104e-06
-7.36338e-06
4.80082e-05
6.24217e-06
-4.2846e-06
5.25998e-05
6.64676e-06
-1.47283e-06
5.73517e-05
6.41572e-06
1.39922e-06
6.16825e-05
5.90463e-06
4.93641e-06
3.15471e-06
9.25167e-06
9.45279e-05
-5.14289e-06
1.4852e-05
9.45549e-05
-8.81007e-06
1.81766e-05
9.2085e-05
-9.5221e-06
1.81261e-05
8.93954e-05
-8.36471e-06
1.61385e-05
8.77474e-05
-6.32696e-06
1.46663e-05
8.66257e-05
-4.39666e-06
1.4482e-05
8.49861e-05
-2.68145e-06
1.43882e-05
8.23181e-05
-1.28519e-06
1.31656e-05
7.84281e-05
-9.3292e-07
1.11626e-05
7.2933e-05
-1.92148e-06
1.00314e-05
6.59898e-05
-4.63486e-06
1.10967e-05
5.91896e-05
-8.76294e-06
1.362e-05
5.43131e-05
-1.21989e-05
1.49444e-05
5.15827e-05
-1.25628e-05
1.37497e-05
5.02418e-05
-9.66092e-06
1.12024e-05
4.99615e-05
-5.60554e-06
8.63875e-06
5.08153e-05
-2.56829e-06
6.39961e-06
5.26511e-05
-1.28279e-06
4.57157e-06
5.51517e-05
-1.70573e-06
3.15726e-06
5.82941e-05
-4.51175e-06
2.27169e-06
6.2419e-05
-1.05959e-05
1.81642e-06
6.78206e-05
-1.78445e-05
9.32795e-07
7.40567e-05
-2.18552e-05
-1.77709e-06
7.99482e-05
-2.03601e-05
-6.5117e-06
8.42543e-05
-1.57585e-05
-1.13695e-05
8.59283e-05
-9.91983e-06
-1.43507e-05
8.44929e-05
-4.78288e-06
-1.47413e-05
8.0503e-05
-3.17626e-06
-1.29814e-05
7.51828e-05
-5.30203e-06
-1.07028e-05
6.93235e-05
-7.02166e-06
-1.0127e-05
6.32994e-05
-6.10157e-06
-1.20831e-05
5.79746e-05
-4.52323e-06
-1.51377e-05
5.49635e-05
-3.62153e-06
-1.69487e-05
5.53818e-05
-2.03453e-06
-1.60727e-05
5.88067e-05
1.02067e-06
-1.30873e-05
6.42581e-05
3.41494e-06
-9.58086e-06
7.0983e-05
3.37491e-06
-6.02653e-06
7.82404e-05
2.87047e-06
-1.62622e-06
8.51854e-05
3.14813e-06
3.08001e-06
2.08517e-07
9.01852e-06
0.000123331
-1.33323e-05
1.26969e-05
0.000125062
-1.52303e-05
1.93757e-05
0.000121869
-1.29642e-05
2.1634e-05
0.000117608
-1.0126e-05
1.95897e-05
0.000115283
-7.94568e-06
1.66168e-05
0.00011457
-5.87293e-06
1.57807e-05
0.000113666
-3.623e-06
1.67135e-05
0.00011168
-1.75095e-06
1.68871e-05
0.000108586
-1.26605e-06
1.46768e-05
0.000103653
-1.79745e-06
1.16039e-05
9.58295e-05
-3.42298e-06
1.10517e-05
8.59105e-05
-7.21657e-06
1.42728e-05
7.67152e-05
-1.21439e-05
1.79405e-05
7.04179e-05
-1.47148e-05
1.821e-05
6.69734e-05
-1.28854e-05
1.55836e-05
6.5572e-05
-8.47074e-06
1.26025e-05
6.57791e-05
-4.68396e-06
1.03063e-05
6.71502e-05
-2.91356e-06
8.72002e-06
6.91199e-05
-3.39092e-06
7.7863e-06
7.15034e-05
-7.64066e-06
7.91711e-06
7.49415e-05
-1.7464e-05
9.22791e-06
8.05328e-05
-2.99857e-05
1.03185e-05
8.85872e-05
-3.8189e-05
8.75244e-06
9.81303e-05
-3.84564e-05
3.20776e-06
0.000107153
-3.14657e-05
-5.64813e-06
0.00011312
-2.07678e-05
-1.32693e-05
0.00011449
-1.03347e-05
-1.69203e-05
0.000111498
-5.77838e-06
-1.61183e-05
0.000105761
-7.68702e-06
-1.27709e-05
9.88166e-05
-9.58062e-06
-1.03875e-05
9.12895e-05
-7.75532e-06
-1.13446e-05
8.35532e-05
-5.07745e-06
-1.48831e-05
7.69365e-05
-3.98312e-06
-1.85941e-05
7.35287e-05
-3.221e-06
-2.04679e-05
7.44299e-05
-1.99627e-06
-2.00018e-05
7.93635e-05
-2.28401e-06
-1.79778e-05
8.73194e-05
-4.92531e-06
-1.48021e-05
9.69011e-05
-6.86383e-06
-1.00636e-05
0.000106796
-6.71697e-06
-3.42625e-06
-8.26611e-06
3.99747e-06
0.000146375
-2.91851e-05
3.52578e-06
0.000153417
-2.81015e-05
1.48319e-05
0.000151179
-1.88268e-05
2.23839e-05
0.000144714
-1.08881e-05
2.33057e-05
0.000141171
-8.72405e-06
1.95175e-05
0.000141615
-7.9703e-06
1.65374e-05
0.000142594
-5.27554e-06
1.72554e-05
0.000141889
-2.28677e-06
1.96659e-05
0.000140089
-1.73397e-06
1.93117e-05
0.000137187
-2.43107e-06
1.48196e-05
0.000131048
-2.56827e-06
1.09359e-05
0.000120319
-4.27854e-06
1.29051e-05
0.000106881
-8.84539e-06
1.88455e-05
9.49362e-05
-1.34294e-05
2.21448e-05
8.7197e-05
-1.41586e-05
2.04708e-05
8.34822e-05
-1.07962e-05
1.69773e-05
8.25176e-05
-6.73002e-06
1.42564e-05
8.30781e-05
-4.33141e-06
1.27232e-05
8.41114e-05
-4.46461e-06
1.21466e-05
8.4988e-05
-9.78493e-06
1.31791e-05
8.62087e-05
-2.34002e-05
1.64254e-05
8.95648e-05
-4.22598e-05
2.03729e-05
9.64303e-05
-5.63669e-05
2.15125e-05
0.000107106
-5.96367e-05
1.70663e-05
0.000121081
-5.32695e-05
7.32556e-06
0.000134893
-3.91281e-05
-5.6605e-06
0.000143138
-2.13851e-05
-1.52807e-05
0.000143679
-1.07371e-05
-1.81056e-05
0.000138669
-1.08333e-05
-1.53783e-05
0.000131414
-1.26285e-05
-1.13634e-05
0.000123663
-9.67728e-06
-1.02072e-05
0.000115436
-5.39085e-06
-1.27653e-05
0.000106859
-3.23339e-06
-1.71791e-05
9.93761e-05
-1.76931e-06
-2.14227e-05
9.51914e-05
-1.57003e-06
-2.47108e-05
9.61175e-05
-6.29768e-06
-2.67514e-05
0.00010231
-1.4856e-05
-2.64786e-05
0.000111701
-2.0753e-05
-2.27742e-05
0.000122016
-2.10104e-05
-1.61951e-05
-2.28927e-05
-7.33316e-06
0.000160098
-4.74201e-05
-1.01644e-05
0.000174016
-4.91605e-05
4.42734e-06
0.000176962
-3.12476e-05
1.79564e-05
0.00016881
-1.16458e-05
2.48971e-05
0.000161564
-6.3561e-06
2.34467e-05
0.000162816
-1.00647e-05
1.82599e-05
0.000168076
-9.63738e-06
1.62719e-05
0.000169871
-3.84029e-06
1.95029e-05
0.000168184
-1.36871e-06
2.31759e-05
0.000167206
-4.2828e-06
2.06325e-05
0.000166011
-5.72636e-06
1.34873e-05
0.000159632
-4.49372e-06
1.12923e-05
0.000145964
-5.14375e-06
1.73249e-05
0.000128539
-8.4695e-06
2.41322e-05
0.000113776
-1.11331e-05
2.51461e-05
0.000105248
-1.06026e-05
2.19334e-05
0.000102177
-7.9501e-06
1.8518e-05
0.000102156
-5.57977e-06
1.64105e-05
0.000103289
-5.32375e-06
1.53743e-05
0.000104317
-1.10078e-05
1.59635e-05
0.000104498
-2.66238e-05
1.94438e-05
0.000104772
-4.97569e-05
2.55697e-05
0.00010759
-6.96752e-05
3.08016e-05
0.000115071
-7.72945e-05
3.00273e-05
0.000128652
-7.29946e-05
2.13698e-05
0.000147414
-5.91781e-05
7.34699e-06
0.00016446
-3.76459e-05
-7.82181e-06
0.000171459
-1.95904e-05
-1.607e-05
0.000167405
-1.38107e-05
-1.65437e-05
0.000158925
-1.38497e-05
-1.29172e-05
0.000152276
-1.16602e-05
-9.56597e-06
0.000147551
-7.35254e-06
-9.42628e-06
0.000141731
-3.06842e-06
-1.28088e-05
0.000133903
1.76588e-06
-1.80021e-05
0.000125803
4.01895e-06
-2.42217e-05
0.00012061
-3.47089e-06
-3.13138e-05
0.000121463
-1.96731e-05
-3.68643e-05
0.000127968
-3.29559e-05
-3.6993e-05
0.000136243
-3.53962e-05
-3.13923e-05
-3.75349e-05
-2.20626e-05
0.00017398
-6.09561e-05
-2.36373e-05
0.000189653
-6.99261e-05
-7.1724e-06
0.000199687
-5.16247e-05
1.05745e-05
0.000194991
-1.84689e-05
2.31569e-05
0.000183126
-1.82706e-06
2.58604e-05
0.000179204
-7.47073e-06
2.03352e-05
0.000187009
-1.50891e-05
1.44541e-05
0.000195211
-9.65388e-06
1.5195e-05
0.000193888
-3.97915e-08
2.13696e-05
0.000188311
-1.46623e-06
2.42677e-05
0.000188938
-1.13512e-05
1.85945e-05
0.000193161
-1.56928e-05
1.24053e-05
0.000189019
-1.11556e-05
1.55958e-05
0.000172394
-5.80555e-06
2.40715e-05
0.000150895
-4.36021e-06
2.83256e-05
0.000134325
-5.22765e-06
2.67417e-05
0.000126435
-5.96513e-06
2.33918e-05
0.000125164
-6.16158e-06
2.07971e-05
0.000127251
-7.05022e-06
1.88523e-05
0.000130201
-1.29963e-05
1.78041e-05
0.000131798
-2.83466e-05
1.93686e-05
0.000131081
-5.16557e-05
2.5178e-05
0.000129692
-7.41628e-05
3.37799e-05
0.000131413
-8.6307e-05
3.88493e-05
0.000140344
-8.59835e-05
3.44302e-05
0.000158283
-7.57272e-05
2.06035e-05
0.000179861
-5.55193e-05
3.08717e-06
0.000191825
-3.0926e-05
-1.07189e-05
0.000186006
-1.36304e-05
-1.51601e-05
0.000170419
-6.30653e-06
-1.29908e-05
0.000159873
-6.71629e-06
-8.20184e-06
0.000160525
-1.00467e-05
-4.54013e-06
0.000166448
-8.98547e-06
-4.95979e-06
0.000168388
1.20711e-06
-9.75828e-06
0.000163617
1.11128e-05
-1.77455e-05
0.00015564
6.12354e-06
-2.87024e-05
0.000149968
-1.48223e-05
-4.08781e-05
0.00015068
-3.7099e-05
-4.82431e-05
0.000156079
-4.51352e-05
-4.66927e-05
-4.79417e-05
-3.75194e-05
0.00019375
-6.63935e-05
-3.81556e-05
0.000206746
-8.36627e-05
-1.88734e-05
0.000220713
-7.43078e-05
1.1898e-06
0.00022393
-3.57842e-05
1.80807e-05
0.000213745
-3.67213e-06
2.54497e-05
0.000201978
-1.06034e-06
2.19974e-05
0.00020239
-1.48948e-05
1.33724e-05
0.0002141
-1.82245e-05
9.22823e-06
0.000221544
-4.88456e-06
1.3509e-05
0.00021564
4.30945e-06
1.9825e-05
0.000207442
-7.19106e-06
1.93544e-05
0.000212137
-2.79014e-05
1.38619e-05
0.000222649
-3.25956e-05
1.45502e-05
0.000219245
-1.79678e-05
2.31079e-05
0.00019889
-2.05302e-06
2.97099e-05
0.000174955
4.02583e-06
2.99155e-05
0.000158906
2.38933e-06
2.7535e-05
0.000153087
-2.5101e-06
2.58224e-05
0.000154824
-8.64145e-06
2.40856e-05
0.000160386
-1.79398e-05
2.11816e-05
0.000165117
-3.25363e-05
1.87844e-05
0.00016543
-5.17197e-05
2.11594e-05
0.000161676
-7.17483e-05
3.0643e-05
0.000157918
-8.57379e-05
4.10911e-05
0.000160142
-8.94452e-05
4.2911e-05
0.000172919
-8.46071e-05
3.20053e-05
0.000193089
-6.93947e-05
1.30172e-05
0.000206792
-4.17244e-05
-4.98559e-06
0.000201302
-1.19565e-05
-1.3626e-05
0.000181646
7.13427e-06
-1.30913e-05
0.000165107
7.21795e-06
-6.62966e-06
0.000162876
-5.7354e-06
1.51485e-06
0.000174378
-1.45462e-05
5.94851e-06
0.000189439
-5.6357e-06
3.44371e-06
0.000197034
1.19599e-05
-4.96134e-06
0.000194824
1.67882e-05
-1.87753e-05
0.000187781
-2.10694e-06
-3.61952e-05
0.000182585
-3.01374e-05
-5.17815e-05
0.000182387
-4.56145e-05
-5.83189e-05
-5.13798e-05
-5.3079e-05
0.000218491
-6.34234e-05
-5.41302e-05
0.000228419
-8.72632e-05
-3.27781e-05
0.000242072
-9.08838e-05
-1.04497e-05
0.000251421
-5.99342e-05
9.29539e-06
0.000248668
-1.79777e-05
2.09798e-05
0.000236015
3.43633e-07
2.19149e-05
0.000225558
-7.90409e-06
1.36708e-05
0.000228583
-1.96163e-05
5.05938e-06
0.000241603
-1.43343e-05
4.73316e-06
0.000248446
1.22701e-07
1.1501e-05
0.000241256
-1.26897e-06
1.59195e-05
0.00023443
-2.6676e-05
1.34719e-05
0.000243386
-5.05186e-05
1.25021e-05
0.00025507
-4.37721e-05
2.01681e-05
0.000248287
-1.47572e-05
2.8864e-05
0.000225624
8.33253e-06
3.06802e-05
0.000202896
1.47712e-05
2.9059e-05
0.000189202
9.20135e-06
2.90549e-05
0.000186363
-4.59937e-06
2.96277e-05
0.000192954
-2.42251e-05
2.62963e-05
0.00020276
-4.29385e-05
1.86695e-05
0.000207074
-5.56674e-05
1.38378e-05
0.000202719
-6.63773e-05
2.07744e-05
0.000194005
-7.74559e-05
3.6081e-05
0.000188435
-8.34371e-05
4.58112e-05
0.000192816
-8.28184e-05
4.00812e-05
0.000207262
-7.36953e-05
2.14604e-05
0.000220268
-4.87297e-05
1.80363e-06
0.000218459
-1.10745e-05
-1.1329e-05
0.000202175
1.88723e-05
-1.39612e-05
0.000184674
2.27892e-05
-8.20716e-06
0.000177363
4.35366e-06
2.79435e-06
0.000184219
-1.35615e-05
1.30072e-05
0.000201513
-1.15252e-05
1.63408e-05
0.000219342
7.15848e-06
1.11813e-05
0.000228798
2.07788e-05
-2.57616e-06
0.000228641
1.13815e-05
-2.3274e-05
0.000223198
-1.52343e-05
-4.5823e-05
0.000217271
-3.54007e-05
-6.20929e-05
-4.58343e-05
-6.5599e-05
0.000249494
-5.41332e-05
-6.82407e-05
0.000256893
-8.283e-05
-4.89002e-05
0.000268278
-9.71814e-05
-2.39355e-05
0.000277838
-7.99989e-05
-3.12554e-06
0.000280117
-4.10513e-05
1.26123e-05
0.000272555
-9.14024e-06
1.85982e-05
0.000258999
-1.84652e-06
1.38464e-05
0.000250916
-1.15423e-05
3.46285e-06
0.000257463
-1.7993e-05
-8.5402e-07
0.00027212
-1.21322e-05
5.23036e-06
0.000277612
-7.96921e-06
1.36877e-05
0.000269768
-2.37995e-05
1.40834e-05
0.000266297
-5.31832e-05
1.04265e-05
0.000277401
-6.35034e-05
1.46115e-05
0.000285621
-3.81958e-05
2.44539e-05
0.000275591
-8.5611e-07
2.86556e-05
0.000254322
2.19254e-05
2.76517e-05
0.000234718
2.49961e-05
2.89215e-05
0.000223919
1.02093e-05
3.12553e-05
0.000226331
-2.1655e-05
2.72493e-05
0.000240155
-5.36071e-05
1.44338e-05
0.000252853
-6.52572e-05
1.51024e-06
0.000252581
-6.30292e-05
3.71232e-06
0.000240661
-6.42315e-05
2.22649e-05
0.000226658
-6.94946e-05
4.18946e-05
0.00022027
-7.03516e-05
4.50928e-05
0.000225684
-6.50708e-05
2.95434e-05
0.000235982
-4.62555e-05
8.45527e-06
0.000238577
-9.253e-06
-7.62803e-06
0.000229557
2.59576e-05
-1.49075e-05
0.000216538
3.42275e-05
-1.35873e-05
0.00020794
1.53855e-05
-3.87356e-06
0.00020835
-6.27821e-06
8.80531e-06
0.000218806
-1.04121e-05
1.8615e-05
0.000236194
3.0104e-06
2.09389e-05
0.000254182
1.63275e-05
1.37599e-05
0.000265954
1.44547e-05
-5.55181e-06
0.000267481
-1.65261e-06
-3.22811e-05
0.00026031
-1.81744e-05
-5.72445e-05
-3.19784e-05
-7.12355e-05
0.000288967
-4.18089e-05
-7.67169e-05
0.000293904
-7.49894e-05
-6.2879e-05
0.000302772
-9.41723e-05
-3.87097e-05
0.000307651
-8.88843e-05
-1.62157e-05
0.000307637
-6.10048e-05
9.50548e-07
0.000303538
-2.5698e-05
1.17703e-05
0.000294491
-2.77682e-06
1.22696e-05
0.000284285
-8.88768e-07
3.4809e-06
0.000283171
-1.2523e-05
-3.39247e-06
0.000294989
-2.12082e-05
1.25741e-06
0.000307254
-2.13382e-05
1.21548e-05
0.000306386
-2.67337e-05
1.55238e-05
0.00029786
-4.80491e-05
9.24496e-06
0.000298334
-6.70903e-05
7.07206e-06
0.000307479
-5.58258e-05
1.54115e-05
0.000308531
-1.87056e-05
2.41898e-05
0.000295111
1.61072e-05
2.75899e-05
0.000276511
3.22701e-05
2.98281e-05
0.00026258
2.68432e-05
2.88383e-05
0.000258655
-4.14892e-06
1.77688e-05
0.000270095
-4.94217e-05
-1.85276e-07
0.000291623
-7.59543e-05
-1.43148e-05
0.000303411
-6.8569e-05
-1.48692e-05
0.000294315
-5.36541e-05
4.91125e-06
0.000273407
-5.18873e-05
3.24502e-05
0.000255974
-5.16974e-05
4.66224e-05
0.000251248
-4.58794e-05
3.7237e-05
0.000256792
-3.08877e-05
1.56738e-05
0.000262047
-1.16454e-06
-2.61803e-06
0.00026008
3.04957e-05
-1.44016e-05
0.000253655
3.94312e-05
-1.99365e-05
0.000248168
2.23693e-05
-1.62012e-05
0.000246289
1.41212e-06
-4.03544e-06
0.000249355
-3.60767e-06
8.91516e-06
0.000258853
4.63867e-06
1.73794e-05
0.000276203
8.66045e-06
1.88144e-05
0.000297241
3.03833e-06
8.75141e-06
0.000309852
-1.29759e-06
-1.70221e-05
0.000306658
-3.21506e-06
-4.76123e-05
-1.40868e-05
-7.06745e-05
0.000336839
-2.79241e-05
-8.01188e-05
0.000339457
-6.31433e-05
-7.29146e-05
0.000345477
-8.2388e-05
-5.23717e-05
0.00034445
-8.36155e-05
-3.13025e-05
0.000337431
-6.9146e-05
-1.31175e-05
0.000331172
-4.06665e-05
2.93727e-06
0.000326241
-9.47315e-06
1.02999e-05
0.000320608
6.53228e-06
5.09075e-06
0.000318513
-1.60075e-06
-3.1767e-06
0.000326197
-2.12766e-05
-1.34791e-06
0.000339024
-3.14532e-05
1.04345e-05
0.000343591
-3.14414e-05
1.73243e-05
0.000335215
-3.91915e-05
1.04214e-05
0.000324173
-5.53832e-05
1.39951e-06
0.000319181
-5.59102e-05
5.28874e-06
0.000315503
-3.02885e-05
1.87614e-05
0.000307964
2.29525e-06
2.98023e-05
0.000300564
2.45522e-05
3.07534e-05
0.000297302
3.15202e-05
1.92345e-05
0.000295222
1.43983e-05
-6.92552e-07
0.000298952
-3.04543e-05
-1.91126e-05
0.000318833
-7.74514e-05
-2.75951e-05
0.000343412
-8.46842e-05
-2.28065e-05
0.00034636
-5.97205e-05
-3.5719e-06
0.000324319
-4.08218e-05
2.60166e-05
0.000297044
-3.32358e-05
4.68717e-05
0.000282983
-2.42973e-05
4.51782e-05
0.000284924
-9.79325e-06
2.51173e-05
0.000293354
1.20109e-05
3.22908e-06
0.000298246
3.32635e-05
-1.26162e-05
0.000298203
3.72544e-05
-2.36793e-05
0.000297195
2.09668e-05
-2.75537e-05
0.000296923
3.24156e-06
-2.12783e-05
0.000296911
8.13269e-07
-8.96096e-06
0.0002992
8.47203e-06
2.82575e-06
0.000309044
3.92027e-06
1.05492e-05
0.000328742
-1.12576e-05
9.25828e-06
0.000348361
-1.21424e-05
-8.41156e-06
0.000353229
1.60069e-06
-3.79442e-05
7.34494e-07
-6.61726e-05
0.000390759
-1.50739e-05
-7.76101e-05
0.000391513
-4.61838e-05
-7.79426e-05
0.000396044
-6.34675e-05
-6.34534e-05
0.000392472
-6.85307e-05
-4.54757e-05
0.000379099
-6.58849e-05
-2.75178e-05
0.000366043
-4.77101e-05
-8.47346e-06
0.000359129
-1.56533e-05
5.79773e-06
0.000356442
1.10248e-05
6.67422e-06
0.00035709
1.07502e-05
8.67018e-08
0.00036369
-1.30107e-05
-2.97445e-07
0.000375062
-3.30456e-05
9.99363e-06
0.000381567
-3.42601e-05
2.00769e-05
0.000373755
-3.09919e-05
1.63413e-05
0.000353926
-3.62021e-05
2.40171e-06
0.000333145
-3.83744e-05
-3.13615e-06
0.000319796
-2.47085e-05
4.74377e-06
0.000316573
-3.37651e-06
1.43384e-05
0.000323097
1.30004e-05
1.25314e-05
0.000333825
2.33729e-05
-2.06809e-06
0.000339997
2.07496e-05
-2.251e-05
0.000341873
-1.03742e-05
-3.68078e-05
0.000353183
-6.4428e-05
-3.61376e-05
0.000377182
-9.57189e-05
-2.18353e-05
0.000389657
-7.86668e-05
1.36055e-06
0.000372843
-4.33715e-05
2.80501e-05
0.000341097
-2.03999e-05
4.84508e-05
0.000319778
-6.14134e-06
5.10351e-05
0.000317813
7.62991e-06
3.41709e-05
0.000326541
2.33015e-05
1.05465e-05
0.000333415
3.5937e-05
-8.2004e-06
0.000334727
3.45243e-05
-2.04333e-05
0.000335929
1.68651e-05
-2.83012e-05
0.000340812
-1.26305e-06
-3.00813e-05
0.000346597
-2.96989e-06
-2.37263e-05
0.000349915
5.91364e-06
-1.05751e-05
0.00035293
3.38951e-06
2.18212e-06
0.000361937
-1.30534e-05
5.10955e-06
0.000378736
-1.74431e-05
-7.71523e-06
0.000393098
-1.01502e-06
-3.26335e-05
6.37932e-06
-5.96119e-05
0.000444902
-6.55878e-06
-7.03019e-05
0.000447276
-2.70466e-05
-7.74342e-05
0.000452592
-4.11101e-05
-7.19324e-05
0.000451312
-4.9649e-05
-5.86794e-05
0.000435044
-5.48976e-05
-4.21305e-05
0.000413276
-4.54002e-05
-2.26372e-05
0.000399417
-1.65744e-05
-4.17298e-06
0.000395687
1.3536e-05
6.81972e-06
0.00039825
2.0437e-05
7.36463e-06
0.000404279
-4.81724e-07
6.00981e-06
0.000412459
-2.5281e-05
1.06303e-05
0.000418015
-3.25307e-05
2.01983e-05
0.000413018
-2.76686e-05
2.31071e-05
0.00039522
-2.39219e-05
1.22001e-05
0.000372486
-1.98306e-05
-3.88225e-06
0.000356918
-9.8646e-06
-1.21479e-05
0.000354813
3.94652e-07
-1.05444e-05
0.000364446
4.55434e-06
-7.26731e-06
0.000378529
8.75429e-06
-1.15703e-05
0.000389715
1.37978e-05
-2.58101e-05
0.000396274
1.75208e-06
-3.94078e-05
0.000404127
-4.06539e-05
-3.96645e-05
0.000419311
-8.58216e-05
-2.30846e-05
0.000430391
-8.88409e-05
2.66351e-06
0.000418432
-5.11833e-05
2.75482e-05
0.000388243
-1.16129e-05
4.62969e-05
0.000362882
1.27185e-05
5.40503e-05
0.000354037
2.50963e-05
4.47409e-05
0.000354832
3.26453e-05
2.37299e-05
0.00035518
3.70651e-05
4.78777e-06
0.000354113
3.12032e-05
-5.09091e-06
0.000357224
1.06961e-05
-1.10681e-05
0.000367923
-1.15637e-05
-1.93614e-05
0.000381325
-1.61543e-05
-2.34058e-05
0.000389315
-4.0065e-06
-1.30167e-05
0.000390118
4.6139e-06
4.55779e-06
0.000390471
-1.67359e-06
9.43202e-06
0.000400314
-7.34321e-06
-5.9125e-06
0.000420477
-5.68728e-08
-3.03569e-05
5.18834e-06
-5.3262e-05
0.000492456
-1.1711e-06
-6.07848e-05
0.000503996
-1.38596e-05
-6.8963e-05
0.000514191
-2.20008e-05
-7.1408e-05
0.000516517
-3.01082e-05
-6.68497e-05
0.000499731
-3.82332e-05
-5.58223e-05
0.000470607
-3.32707e-05
-3.91599e-05
0.000447585
-9.23199e-06
-1.87685e-05
0.000439171
1.78099e-05
-9.33406e-07
0.000441382
2.46745e-05
9.32327e-06
0.000447151
7.37235e-06
1.29869e-05
0.000452039
-1.51042e-05
1.62298e-05
0.000453247
-2.40942e-05
2.17709e-05
0.000447145
-2.14838e-05
2.45831e-05
0.00043369
-1.67977e-05
1.70841e-05
0.000419448
-1.04046e-05
2.82425e-08
0.000412463
-1.81379e-06
-1.61797e-05
0.00041422
1.3545e-06
-2.00277e-05
0.000421095
-4.40233e-06
-1.15164e-05
0.000429354
-7.31528e-06
-4.77721e-06
0.000436528
1.66164e-06
-1.13864e-05
0.000442532
6.63509e-06
-2.35733e-05
0.000449487
-1.7542e-05
-2.81059e-05
0.000460908
-6.3648e-05
-1.95348e-05
0.000471848
-8.47746e-05
3.50692e-07
0.000467368
-5.57192e-05
2.46921e-05
0.000444613
-5.86478e-06
4.34093e-05
0.00041839
3.15771e-05
5.11314e-05
0.000400056
4.55606e-05
4.66939e-05
0.000388573
4.30258e-05
3.49021e-05
0.00038175
3.55343e-05
2.2336e-05
0.000381674
2.6185e-05
1.19417e-05
0.000389949
9.33275e-06
3.51745e-06
0.000404338
-1.31331e-05
-4.93655e-06
0.000418862
-2.47608e-05
-1.05458e-05
0.000427292
-1.42163e-05
-7.56103e-06
0.000428531
6.52116e-06
5.19382e-06
0.000426582
1.60381e-05
1.48199e-05
0.000431305
1.49451e-05
4.12423e-06
0.000449068
1.35354e-05
-2.23741e-05
9.87329e-06
-4.61314e-05
0.000536543
-8.89925e-07
-4.68462e-05
0.000555805
-1.16617e-05
-5.8243e-05
0.000572393
-1.28764e-05
-6.52424e-05
0.000579108
-1.33011e-05
-6.73191e-05
0.000565261
-1.74469e-05
-6.32322e-05
0.000535661
-1.51222e-05
-5.23175e-05
0.000508061
2.22917e-06
-3.43276e-05
0.000492816
2.32449e-05
-1.2596e-05
0.000487937
2.76073e-05
5.04239e-06
0.000487957
1.23029e-05
1.47324e-05
0.000488716
-6.23747e-06
2.03105e-05
0.000487722
-1.49122e-05
2.63252e-05
0.000483391
-1.42816e-05
2.74197e-05
0.000477531
-1.06669e-05
1.56913e-05
0.000475408
-5.0783e-06
-4.91723e-06
0.000479587
5.82589e-07
-1.96942e-05
0.000484773
-2.27268e-06
-1.75815e-05
0.000483936
-1.36341e-05
-1.76721e-06
0.000477875
-1.82993e-05
1.16213e-05
0.000474305
-4.93733e-06
1.05646e-05
0.000479295
1.18951e-05
5.10662e-07
0.000491319
2.76782e-06
-4.88145e-06
0.000505074
-3.73535e-05
-1.29631e-06
0.000514245
-7.01801e-05
1.12328e-05
0.000510433
-5.41066e-05
2.67278e-05
0.000490567
-3.62013e-07
3.96526e-05
0.000464334
4.71776e-05
4.66764e-05
0.000441888
6.40835e-05
4.36761e-05
0.000426216
5.603e-05
3.43895e-05
0.000418351
4.15005e-05
2.8068e-05
0.000420088
3.03694e-05
2.66466e-05
0.000430732
1.88465e-05
2.2571e-05
0.000446061
2.57471e-06
1.17056e-05
0.000460193
-1.01099e-05
1.65709e-06
0.000468272
-5.79759e-06
2.27178e-06
0.000470651
1.27725e-05
1.41139e-05
0.000471574
2.81731e-05
2.41694e-05
0.000477004
3.25078e-05
1.81741e-05
0.000491664
2.82286e-05
-4.09712e-06
1.5985e-05
-2.90805e-05
0.000582302
-7.4472e-06
-3.37624e-05
0.000606612
-2.51392e-05
-4.66623e-05
0.000626369
-2.39193e-05
-5.11886e-05
0.000634116
-1.00044e-05
-5.71948e-05
0.000625898
5.54595e-07
-6.4334e-05
0.000607748
4.61853e-06
-6.52939e-05
0.00058969
1.28723e-05
-5.35815e-05
0.000575127
2.61905e-05
-3.03641e-05
0.00056094
3.06737e-05
-5.90277e-06
0.000545973
1.99658e-05
9.95282e-06
0.000533585
3.10153e-06
1.90532e-05
0.000527465
-9.99533e-06
2.75418e-05
0.000529717
-1.91475e-05
3.42849e-05
0.000540405
-2.6091e-05
3.08461e-05
0.000557243
-2.81966e-05
1.61599e-05
0.000572621
-2.36586e-05
1.99253e-06
0.000575739
-1.84205e-05
1.05922e-06
0.000561984
-1.73241e-05
1.71761e-05
0.000541129
-1.28424e-05
4.00853e-05
0.000528896
4.05863e-06
4.83242e-05
0.000532008
2.53721e-05
3.07578e-05
0.000544713
2.70842e-05
1.44478e-06
0.000557872
-2.16199e-06
-1.35018e-05
0.000564942
-4.04416e-05
-9.36642e-07
0.000559759
-4.51942e-05
2.46314e-05
0.000539165
-4.16854e-06
4.17656e-05
0.000512047
4.8513e-05
4.55261e-05
0.000490151
7.76255e-05
4.04051e-05
0.000478372
7.80002e-05
3.16907e-05
0.000475423
6.33306e-05
2.47143e-05
0.000478645
4.62061e-05
2.10433e-05
0.000486184
3.08887e-05
1.78566e-05
0.000497136
1.69054e-05
1.27936e-05
0.000510121
7.96914e-06
6.75821e-06
0.00052199
9.87586e-06
5.61446e-06
0.000529334
2.10421e-05
1.58309e-05
0.000531794
3.13899e-05
3.23101e-05
0.000533854
3.47046e-05
3.91591e-05
0.000541961
3.01871e-05
2.44487e-05
1.55923e-05
-6.65322e-06
0.00063584
-1.97003e-05
-1.71214e-05
0.000659293
-3.39809e-05
-4.30824e-05
0.000678903
-2.98786e-05
-5.31942e-05
0.000688015
-8.28751e-06
-5.35756e-05
0.000681471
1.37441e-05
-5.42486e-05
0.000663803
2.48137e-05
-5.78125e-05
0.0006477
2.77523e-05
-5.69697e-05
0.000640621
2.92089e-05
-4.58401e-05
0.000638177
2.78145e-05
-2.83821e-05
0.00063142
2.00941e-05
-1.20361e-05
0.000617101
7.97647e-06
9.28563e-07
0.000600479
-4.83806e-06
1.37108e-05
0.000590855
-1.99143e-05
2.79435e-05
0.00059559
-3.86827e-05
3.80472e-05
0.000615783
-5.56823e-05
3.72398e-05
0.0006409
-6.08521e-05
2.74294e-05
0.000652452
-5.10454e-05
1.96574e-05
0.000640312
-3.16644e-05
2.53401e-05
0.000614341
-8.08504e-06
4.31119e-05
0.000592927
1.71363e-05
5.32974e-05
0.000585399
3.50123e-05
3.70372e-05
0.000588484
3.34947e-05
6.28608e-08
0.000597518
8.81593e-06
-3.10363e-05
0.000608019
-2.51312e-05
-3.05258e-05
0.000611753
-3.93777e-05
-5.21318e-07
0.000602182
-1.52683e-05
3.08777e-05
0.00058634
3.21338e-05
4.43368e-05
0.000575801
7.12242e-05
3.95014e-05
0.000573835
8.59202e-05
2.26039e-05
0.000574804
7.86294e-05
3.14616e-06
0.000574184
6.03196e-05
-9.52185e-06
0.000572209
3.82471e-05
-8.53905e-06
0.000572244
2.03798e-05
1.31354e-06
0.000574848
1.35883e-05
1.26745e-05
0.000577964
1.81532e-05