/*--------------------------------*- C++ -*----------------------------------*\
| =========                 |                                                 |
| \\      /  F ield         | OpenFOAM: The Open Source CFD Toolbox           |
|  \\    /   O peration     | Version:  2306                                  |
|   \\  /    A nd           | Website:  www.openfoam.com                      |
|    \\/     M anipulation  |                                                 |
\*---------------------------------------------------------------------------*/
FoamFile
{
    version     2.0;
    format      ascii;
    arch        "LSB;label=32;scalar=64";
    class       volScalarField;
    location    "2";
    object      pPrime2Mean;
}
// * * * * * * * * * * * * * * * * * * * * * * * * * * * * * * * * * * * * * //

dimensions      [0 4 -4 0 0 0 0];

internalField   nonuniform List<scalar> 
60000
(
7.50615e-11
2.01935e-10
3.00451e-10
4.51693e-10
5.20259e-10
1.03302e-09
2.4099e-09
3.09383e-09
1.52811e-09
2.39394e-10
2.34674e-10
4.17972e-10
1.85031e-09
4.04757e-09
4.47686e-09
3.84876e-09
3.78235e-09
3.78785e-09
2.75285e-09
1.17818e-09
2.121e-10
2.39647e-10
4.36166e-10
1.18505e-09
2.30137e-09
2.55461e-09
8.75101e-10
3.125e-10
4.34631e-10
1.08199e-09
2.01877e-09
1.84238e-09
1.38881e-09
1.66595e-09
2.45164e-09
3.63407e-09
6.12391e-09
8.26178e-09
4.86024e-09
7.83874e-10
7.41936e-11
1.99763e-10
2.94094e-10
4.53608e-10
5.29145e-10
1.05278e-09
2.45121e-09
3.13781e-09
1.55046e-09
2.37158e-10
2.32732e-10
4.07563e-10
1.82731e-09
4.03371e-09
4.47602e-09
3.84197e-09
3.78188e-09
3.7969e-09
2.76734e-09
1.17756e-09
2.08667e-10
2.40448e-10
4.39109e-10
1.20367e-09
2.33023e-09
2.5945e-09
8.97358e-10
3.10791e-10
4.33679e-10
1.06083e-09
1.99368e-09
1.81689e-09
1.37135e-09
1.64302e-09
2.43076e-09
3.57544e-09
6.11186e-09
8.39043e-09
5.03093e-09
8.42472e-10
8.33808e-11
2.0987e-10
2.88086e-10
4.56098e-10
5.33916e-10
1.0496e-09
2.46547e-09
3.22834e-09
1.6431e-09
2.51831e-10
2.41563e-10
3.92652e-10
1.78768e-09
4.03412e-09
4.51259e-09
3.86501e-09
3.80029e-09
3.82051e-09
2.77979e-09
1.16535e-09
1.99527e-10
2.4317e-10
4.46736e-10
1.22089e-09
2.35387e-09
2.66282e-09
9.43619e-10
3.15469e-10
4.40391e-10
1.04448e-09
1.96553e-09
1.77016e-09
1.33448e-09
1.63102e-09
2.41734e-09
3.54569e-09
6.15145e-09
8.60134e-09
5.23439e-09
8.88272e-10
9.61034e-11
2.2921e-10
2.77019e-10
4.53088e-10
5.27264e-10
1.02409e-09
2.45221e-09
3.33234e-09
1.78893e-09
2.77686e-10
2.50172e-10
3.67223e-10
1.71817e-09
4.04904e-09
4.60049e-09
3.93272e-09
3.84716e-09
3.8744e-09
2.79469e-09
1.13402e-09
1.82302e-10
2.46737e-10
4.60645e-10
1.25078e-09
2.38211e-09
2.74548e-09
9.983e-10
3.17981e-10
4.4982e-10
1.04526e-09
1.95535e-09
1.7074e-09
1.28699e-09
1.64754e-09
2.43823e-09
3.55712e-09
6.29e-09
8.92274e-09
5.45662e-09
9.03377e-10
1.15919e-10
2.61495e-10
2.64625e-10
4.43618e-10
5.16263e-10
9.87882e-10
2.39281e-09
3.36097e-09
1.93719e-09
3.22469e-10
2.53103e-10
3.37917e-10
1.5982e-09
4.0414e-09
4.72599e-09
4.04799e-09
3.93977e-09
3.94992e-09
2.84107e-09
1.08852e-09
1.60053e-10
2.53146e-10
4.75453e-10
1.27689e-09
2.41002e-09
2.8189e-09
1.03542e-09
3.27311e-10
4.69503e-10
1.07246e-09
1.99389e-09
1.6437e-09
1.20533e-09
1.65493e-09
2.49784e-09
3.56574e-09
6.53407e-09
9.42488e-09
5.71123e-09
9.00417e-10
1.49167e-10
3.00581e-10
2.61252e-10
4.28113e-10
4.98903e-10
9.661e-10
2.32338e-09
3.24537e-09
1.98076e-09
3.68799e-10
2.39434e-10
3.14566e-10
1.44318e-09
3.96049e-09
4.85431e-09
4.20196e-09
4.08801e-09
4.10098e-09
2.92319e-09
1.04095e-09
1.32287e-10
2.62867e-10
5.11075e-10
1.28569e-09
2.27916e-09
2.78655e-09
1.03674e-09
3.54293e-10
5.0081e-10
1.09433e-09
2.09237e-09
1.62831e-09
1.10998e-09
1.62665e-09
2.51791e-09
3.50135e-09
6.8308e-09
1.04543e-08
6.10727e-09
8.8574e-10
2.31905e-10
3.98426e-10
2.65934e-10
4.34126e-10
4.74948e-10
9.49246e-10
2.32809e-09
3.10676e-09
1.83634e-09
3.82675e-10
2.30761e-10
3.05769e-10
1.33136e-09
3.81548e-09
4.94889e-09
4.38012e-09
4.29416e-09
4.35725e-09
3.112e-09
1.03696e-09
1.02509e-10
2.83515e-10
5.55958e-10
1.48825e-09
2.21332e-09
2.55965e-09
9.16511e-10
4.1028e-10
5.80053e-10
1.0459e-09
2.1444e-09
1.66667e-09
1.0961e-09
1.60874e-09
2.42724e-09
3.19138e-09
6.80336e-09
1.17871e-08
7.60815e-09
1.06015e-09
2.87266e-10
6.36724e-10
2.7807e-10
4.71966e-10
4.83722e-10
9.07692e-10
2.33285e-09
3.05992e-09
1.70378e-09
3.3946e-10
2.48699e-10
3.22612e-10
1.34667e-09
3.70665e-09
5.00449e-09
4.58721e-09
4.5652e-09
4.71674e-09
3.41676e-09
1.09701e-09
8.14603e-11
3.579e-10
5.89144e-10
1.89775e-09
2.63937e-09
2.60165e-09
7.59796e-10
4.94765e-10
6.47686e-10
1.00724e-09
2.03195e-09
1.52921e-09
1.1964e-09
1.83081e-09
2.39575e-09
2.49575e-09
5.97425e-09
1.30338e-08
9.98138e-09
1.64185e-09
3.01914e-10
9.59833e-10
3.45397e-10
5.08189e-10
5.44833e-10
8.61292e-10
2.2278e-09
3.0046e-09
1.71077e-09
3.70723e-10
2.82683e-10
3.43227e-10
1.4363e-09
3.73147e-09
5.0261e-09
4.79864e-09
4.93612e-09
5.13793e-09
3.67061e-09
1.1393e-09
8.11255e-11
5.03016e-10
5.99559e-10
2.54322e-09
3.86091e-09
3.2868e-09
7.03815e-10
7.57776e-10
8.46512e-10
1.01037e-09
2.08949e-09
1.38525e-09
1.07623e-09
2.0751e-09
2.60558e-09
1.85894e-09
4.34093e-09
1.3406e-08
1.32412e-08
2.8543e-09
2.55512e-10
1.41988e-09
5.15916e-10
5.1811e-10
6.22057e-10
8.23407e-10
2.06842e-09
2.92182e-09
1.77842e-09
4.59783e-10
2.35424e-10
3.12016e-10
1.22845e-09
3.63782e-09
4.97856e-09
4.90066e-09
5.36937e-09
5.66065e-09
3.76807e-09
1.00653e-09
1.30116e-10
7.54703e-10
6.58624e-10
3.54881e-09
6.06457e-09
4.8088e-09
9.19779e-10
1.0677e-09
1.10718e-09
9.73632e-10
2.06614e-09
1.21121e-09
1.00327e-09
2.22271e-09
2.97148e-09
1.4835e-09
2.62989e-09
1.22915e-08
1.69029e-08
5.09828e-09
3.56749e-10
1.53332e-09
8.82832e-10
4.55108e-10
6.77505e-10
8.21641e-10
1.89116e-09
2.85102e-09
1.93343e-09
5.741e-10
2.00815e-10
2.69803e-10
1.05353e-09
3.1173e-09
4.46085e-09
4.58903e-09
5.65964e-09
6.22871e-09
3.84921e-09
7.92427e-10
2.89983e-10
1.23585e-09
7.36112e-10
4.69119e-09
9.40371e-09
7.19554e-09
1.463e-09
1.0907e-09
1.18124e-09
8.22873e-10
1.68325e-09
8.64908e-10
8.94856e-10
2.30931e-09
3.49474e-09
1.59158e-09
1.46855e-09
9.79553e-09
1.95278e-08
8.63522e-09
1.11029e-09
1.03107e-09
1.15672e-09
3.57084e-10
6.29815e-10
8.62769e-10
1.77061e-09
2.81358e-09
2.01492e-09
7.27284e-10
2.04714e-10
2.8876e-10
1.145e-09
2.89238e-09
3.52718e-09
3.67429e-09
4.9673e-09
6.18633e-09
3.83535e-09
6.93971e-10
4.49989e-10
1.76806e-09
9.48979e-10
4.68557e-09
1.25222e-08
1.03454e-08
2.49631e-09
5.45769e-10
9.16519e-10
5.99072e-10
1.12125e-09
4.84266e-10
6.90076e-10
2.33383e-09
3.90354e-09
2.10284e-09
9.59766e-10
6.91161e-09
1.94386e-08
1.26399e-08
2.73037e-09
3.53645e-10
9.20105e-10
3.95318e-10
5.45886e-10
8.51595e-10
1.63683e-09
2.77015e-09
2.19371e-09
7.96144e-10
2.51793e-10
3.63694e-10
1.52254e-09
3.41815e-09
3.06198e-09
2.36905e-09
3.65043e-09
5.0658e-09
3.41555e-09
7.29743e-10
3.40278e-10
1.82667e-09
1.44598e-09
3.05902e-09
1.27573e-08
1.30375e-08
4.15487e-09
3.03121e-10
3.6494e-10
3.86639e-10
6.01485e-10
2.73786e-10
5.34032e-10
2.12269e-09
3.8864e-09
2.79574e-09
9.45428e-10
4.45318e-09
1.62204e-08
1.53049e-08
4.62445e-09
1.6829e-10
4.13091e-10
3.17651e-10
5.48333e-10
9.34459e-10
1.49356e-09
2.53816e-09
2.29513e-09
8.41587e-10
2.46151e-10
3.57387e-10
1.79247e-09
4.31086e-09
3.30946e-09
1.6666e-09
2.80152e-09
4.16052e-09
2.63284e-09
7.25764e-10
1.61678e-10
1.11017e-09
1.76789e-09
1.53752e-09
9.59455e-09
1.3591e-08
6.19899e-09
1.06459e-09
2.35736e-10
2.57452e-10
2.81042e-10
2.51656e-10
4.37952e-10
1.75041e-09
3.46531e-09
3.32867e-09
1.39084e-09
2.8439e-09
1.13797e-08
1.49119e-08
5.79718e-09
7.07158e-10
1.18865e-10
2.21863e-10
5.83541e-10
1.24275e-09
1.63267e-09
2.22263e-09
2.24559e-09
9.13612e-10
2.46355e-10
3.39707e-10
1.44895e-09
4.04741e-09
3.7961e-09
1.98431e-09
2.73036e-09
4.25621e-09
2.33657e-09
5.08819e-10
1.32974e-10
3.73365e-10
1.46681e-09
1.05031e-09
5.89535e-09
1.24462e-08
8.20119e-09
2.62055e-09
5.38141e-10
2.15638e-10
1.87419e-10
2.20064e-10
3.8392e-10
1.40853e-09
2.92064e-09
3.50561e-09
2.10772e-09
2.01381e-09
6.77193e-09
1.17417e-08
5.64871e-09
1.80067e-09
3.2222e-10
1.43402e-10
6.50131e-10
1.72784e-09
2.20837e-09
1.98511e-09
1.75928e-09
8.98162e-10
2.49943e-10
2.86128e-10
9.82105e-10
2.91309e-09
3.60793e-09
2.63442e-09
3.22274e-09
4.89158e-09
2.65112e-09
2.87026e-10
2.01876e-10
8.50725e-11
7.89818e-10
1.08388e-09
3.12569e-09
9.57302e-09
9.27778e-09
4.61714e-09
1.15659e-09
2.02882e-10
1.68422e-10
2.12543e-10
2.63119e-10
8.55396e-10
2.54588e-09
3.90506e-09
2.8386e-09
1.79723e-09
3.9901e-09
7.82791e-09
4.81632e-09
2.65918e-09
8.76024e-10
1.90208e-10
7.34586e-10
2.23275e-09
2.95246e-09
2.32454e-09
1.35005e-09
7.38894e-10
2.54257e-10
2.23829e-10
7.68812e-10
2.27336e-09
3.14544e-09
2.79738e-09
3.37507e-09
5.05828e-09
2.91709e-09
3.81855e-10
2.67156e-10
4.13442e-10
1.88406e-10
6.04571e-10
1.64646e-09
6.00778e-09
8.03457e-09
5.73928e-09
2.07564e-09
3.57946e-10
1.47132e-10
1.703e-10
2.5776e-10
6.66993e-10
1.5348e-09
3.76037e-09
3.57787e-09
1.92564e-09
2.59421e-09
5.12978e-09
3.21543e-09
2.67188e-09
1.55214e-09
5.05699e-10
9.22598e-10
2.71172e-09
3.69189e-09
2.68213e-09
1.23594e-09
6.29588e-10
2.55659e-10
1.83543e-10
4.83134e-10
2.09793e-09
3.51393e-09
3.00672e-09
3.07748e-09
4.58533e-09
2.67508e-09
3.56166e-10
2.161e-10
6.43429e-10
2.51805e-10
2.89477e-10
1.06812e-09
3.90561e-09
6.75641e-09
5.60833e-09
2.23051e-09
4.9057e-10
2.66034e-10
3.13185e-10
3.30649e-10
7.05448e-10
1.96008e-09
4.30691e-09
4.31115e-09
2.23043e-09
1.75778e-09
2.9328e-09
2.34477e-09
1.92175e-09
1.20709e-09
9.01878e-10
1.64798e-09
3.45238e-09
4.28622e-09
3.2837e-09
1.71984e-09
7.05912e-10
2.67731e-10
1.53502e-10
2.69012e-10
1.29628e-09
3.12114e-09
2.95786e-09
2.82273e-09
3.96562e-09
3.10915e-09
7.43944e-10
2.84248e-10
6.07548e-10
2.97733e-10
2.29257e-10
1.05999e-09
4.01092e-09
6.4098e-09
4.72264e-09
1.90426e-09
6.45378e-10
3.69471e-10
3.12629e-10
3.62047e-10
8.81467e-10
2.43591e-09
4.64022e-09
4.95443e-09
2.8681e-09
1.46142e-09
1.81782e-09
1.47384e-09
1.56137e-09
1.13452e-09
7.89914e-10
1.48282e-09
3.08287e-09
3.93135e-09
3.50073e-09
2.59764e-09
1.59374e-09
6.93528e-10
1.22434e-10
1.07511e-10
4.8017e-10
1.91307e-09
2.25202e-09
1.64771e-09
2.6608e-09
4.18387e-09
2.25775e-09
5.62563e-10
3.79108e-10
1.40604e-10
1.55024e-10
9.70242e-10
4.73172e-09
7.26099e-09
4.79038e-09
1.87867e-09
6.99061e-10
4.5025e-10
3.25756e-10
3.10816e-10
8.09046e-10
2.52605e-09
4.18022e-09
4.56943e-09
3.50246e-09
2.04502e-09
1.26923e-09
8.39741e-10
6.13363e-10
7.61387e-10
1.18434e-09
2.13875e-09
3.14437e-09
3.12626e-09
2.79676e-09
2.76421e-09
2.35355e-09
1.4424e-09
5.66196e-10
1.67932e-10
1.94665e-10
7.8153e-10
1.4758e-09
1.38672e-09
1.68456e-09
3.32935e-09
3.58406e-09
1.36176e-09
2.30263e-10
6.01478e-11
1.73682e-10
1.10699e-09
5.98364e-09
9.87238e-09
6.38178e-09
1.71733e-09
3.64686e-10
2.6825e-10
3.39222e-10
5.03953e-10
1.02081e-09
2.20551e-09
3.29528e-09
3.99412e-09
4.28028e-09
3.40934e-09
1.78827e-09
2.08729e-09
9.16565e-10
7.40719e-10
1.10558e-09
1.99612e-09
2.76253e-09
2.82036e-09
2.61491e-09
2.46112e-09
2.10607e-09
1.57641e-09
1.18992e-09
8.28223e-10
5.08864e-10
4.24145e-10
6.47803e-10
1.00092e-09
1.56414e-09
2.76013e-09
3.15156e-09
1.63452e-09
4.65693e-10
8.14044e-11
1.98208e-10
9.26101e-10
5.99611e-09
1.13279e-08
8.92238e-09
2.75972e-09
2.93325e-10
4.56966e-10
6.84101e-10
6.02838e-10
1.15689e-09
2.70034e-09
3.2366e-09
2.22818e-09
2.85039e-09
4.19425e-09
3.96403e-09
3.50376e-09
2.68583e-09
1.56671e-09
1.25428e-09
1.42001e-09
1.64633e-09
2.02652e-09
2.54229e-09
2.51818e-09
1.84345e-09
1.30269e-09
1.23447e-09
1.27046e-09
1.13312e-09
7.69939e-10
5.99427e-10
8.65135e-10
1.47859e-09
2.24404e-09
2.48028e-09
1.75928e-09
8.45904e-10
2.59036e-10
1.12836e-10
7.29202e-10
3.76092e-09
8.01672e-09
7.52869e-09
3.49965e-09
8.68486e-10
4.33767e-10
6.23669e-10
7.35656e-10
1.28462e-09
2.19706e-09
2.19271e-09
1.65084e-09
1.86029e-09
3.1393e-09
3.79842e-09
4.6797e-09
2.54215e-09
1.11984e-09
6.83654e-10
7.0389e-10
9.47188e-10
1.50029e-09
2.32575e-09
2.63869e-09
2.1575e-09
1.72062e-09
1.49942e-09
1.17695e-09
8.14386e-10
7.6687e-10
8.522e-10
8.92572e-10
1.33072e-09
2.10661e-09
2.64281e-09
2.33917e-09
1.56265e-09
7.00433e-10
2.32724e-10
4.84827e-10
2.18975e-09
5.4958e-09
6.34342e-09
3.62123e-09
1.20608e-09
4.72518e-10
4.57783e-10
5.6876e-10
1.04063e-09
1.73791e-09
1.72317e-09
1.32603e-09
1.68781e-09
3.59637e-09
5.41898e-09
6.13943e-09
3.72962e-09
1.32941e-09
5.4965e-10
5.14867e-10
8.13139e-10
1.39185e-09
2.17347e-09
2.50067e-09
1.91563e-09
1.22733e-09
1.15201e-09
1.50514e-09
1.53479e-09
9.61643e-10
5.1497e-10
5.38121e-10
1.0992e-09
2.3909e-09
3.81777e-09
3.8877e-09
2.67015e-09
1.5547e-09
6.83139e-10
2.46771e-10
8.79303e-10
3.07344e-09
4.63848e-09
3.43856e-09
1.48728e-09
6.16919e-10
6.55818e-10
8.35893e-10
1.02179e-09
1.13556e-09
1.11547e-09
1.09838e-09
1.90903e-09
3.90228e-09
6.07396e-09
1.0678e-09
2.19135e-15
1.53575e-10
1.98928e-10
2.78948e-10
8.97253e-10
2.37216e-09
2.8419e-09
1.2802e-09
1.77013e-10
1.71122e-10
7.76618e-10
2.40849e-09
3.48959e-09
2.9062e-09
2.39077e-09
2.88248e-09
3.71135e-09
3.33912e-09
1.49104e-09
1.6468e-10
3.49365e-10
4.26508e-10
8.20002e-10
1.98663e-09
2.51931e-09
2.26796e-09
1.40379e-09
8.38833e-10
8.11059e-10
8.55349e-10
9.48181e-10
1.33469e-09
2.09126e-09
2.16161e-09
2.59658e-09
6.20996e-09
1.27322e-08
1.36891e-08
6.32184e-09
1.14126e-09
6.64239e-13
1.40224e-10
1.95751e-10
2.75509e-10
8.92323e-10
2.36917e-09
2.85501e-09
1.28925e-09
1.69801e-10
1.66441e-10
7.66422e-10
2.39934e-09
3.48252e-09
2.89085e-09
2.37241e-09
2.86993e-09
3.70692e-09
3.35654e-09
1.51605e-09
1.6882e-10
3.28141e-10
4.09269e-10
8.09324e-10
1.9699e-09
2.48106e-09
2.22179e-09
1.3852e-09
8.40854e-10
8.14578e-10
8.38289e-10
9.07392e-10
1.28615e-09
2.05219e-09
2.14286e-09
2.59979e-09
6.16487e-09
1.27387e-08
1.38505e-08
6.48454e-09
1.19667e-09
7.38773e-13
1.46889e-10
2.03573e-10
2.73409e-10
8.78932e-10
2.38982e-09
2.91932e-09
1.32897e-09
1.67483e-10
1.60534e-10
7.53748e-10
2.40097e-09
3.49038e-09
2.87123e-09
2.33709e-09
2.84559e-09
3.71211e-09
3.39231e-09
1.54359e-09
1.74329e-10
3.27098e-10
4.12369e-10
8.20831e-10
1.99497e-09
2.472e-09
2.18828e-09
1.38788e-09
8.70171e-10
8.49134e-10
8.29345e-10
8.39009e-10
1.20191e-09
2.00767e-09
2.12297e-09
2.54902e-09
6.08783e-09
1.29105e-08
1.42985e-08
6.76862e-09
1.2047e-09
2.03129e-12
1.72302e-10
2.19005e-10
2.70946e-10
8.60394e-10
2.41185e-09
3.02752e-09
1.40343e-09
1.71145e-10
1.53033e-10
7.38469e-10
2.42329e-09
3.52934e-09
2.8518e-09
2.2814e-09
2.81407e-09
3.72342e-09
3.4488e-09
1.55729e-09
1.66974e-10
3.38509e-10
4.168e-10
8.30833e-10
2.04848e-09
2.49747e-09
2.17102e-09
1.39717e-09
9.10166e-10
9.14007e-10
8.5411e-10
7.71168e-10
1.08435e-09
1.94334e-09
2.10599e-09
2.46072e-09
6.02748e-09
1.34041e-08
1.51711e-08
7.17534e-09
1.17242e-09
1.52064e-11
2.20439e-10
2.42555e-10
2.6857e-10
8.32773e-10
2.40491e-09
3.08342e-09
1.492e-09
1.92215e-10
1.49549e-10
7.21157e-10
2.45251e-09
3.60534e-09
2.84592e-09
2.20892e-09
2.77732e-09
3.76103e-09
3.5005e-09
1.56223e-09
1.5172e-10
3.69213e-10
4.32292e-10
8.39891e-10
2.09762e-09
2.53796e-09
2.17955e-09
1.40942e-09
9.39707e-10
9.91687e-10
9.32444e-10
7.54853e-10
9.69079e-10
1.82055e-09
2.02672e-09
2.31199e-09
5.93949e-09
1.42271e-08
1.65652e-08
7.76391e-09
1.12995e-09
5.40302e-11
2.87109e-10
2.64005e-10
2.67286e-10
7.96731e-10
2.33942e-09
3.01626e-09
1.49681e-09
2.20431e-10
1.64257e-10
7.32178e-10
2.46524e-09
3.68431e-09
2.86106e-09
2.13254e-09
2.72894e-09
3.82029e-09
3.60029e-09
1.58221e-09
1.39736e-10
4.11099e-10
4.48959e-10
8.63303e-10
2.11182e-09
2.46313e-09
2.1293e-09
1.40483e-09
9.38256e-10
1.04055e-09
1.04392e-09
8.2496e-10
9.34093e-10
1.68776e-09
1.80536e-09
2.02166e-09
5.81945e-09
1.52589e-08
1.85609e-08
8.66332e-09
1.2313e-09
1.41703e-10
3.73956e-10
2.62989e-10
2.54491e-10
7.56262e-10
2.27085e-09
2.87587e-09
1.38122e-09
2.12331e-10
2.0125e-10
8.38686e-10
2.5284e-09
3.72177e-09
2.8639e-09
2.05631e-09
2.67996e-09
3.91091e-09
3.80012e-09
1.69277e-09
1.34166e-10
4.94323e-10
4.796e-10
8.63499e-10
2.15096e-09
2.28865e-09
1.87777e-09
1.28776e-09
8.72741e-10
1.00709e-09
1.12567e-09
9.62401e-10
1.03347e-09
1.69899e-09
1.51825e-09
1.49813e-09
5.39072e-09
1.65565e-08
2.11192e-08
1.01675e-08
1.68031e-09
2.40248e-10
5.31937e-10
2.96589e-10
2.52329e-10
7.0508e-10
2.18205e-09
2.82143e-09
1.40124e-09
2.20491e-10
2.0278e-10
9.40368e-10
2.70123e-09
3.79747e-09
2.85007e-09
1.97106e-09
2.63598e-09
4.03957e-09
4.12605e-09
1.96592e-09
1.45035e-10
6.38851e-10
6.04978e-10
8.61504e-10
2.24965e-09
2.17241e-09
1.55781e-09
1.02279e-09
7.25692e-10
8.94073e-10
1.05195e-09
1.05463e-09
1.23711e-09
1.96184e-09
1.3803e-09
9.34798e-10
4.27145e-09
1.73575e-08
2.41931e-08
1.2343e-08
2.49355e-09
2.48966e-10
7.05691e-10
3.73788e-10
2.63728e-10
6.4757e-10
2.03539e-09
2.77561e-09
1.55754e-09
3.21201e-10
1.96827e-10
8.79031e-10
2.68319e-09
3.87026e-09
2.86443e-09
1.89783e-09
2.60938e-09
4.18409e-09
4.46771e-09
2.34075e-09
1.95311e-10
7.35669e-10
8.38599e-10
7.77677e-10
2.43539e-09
2.21299e-09
1.37236e-09
7.25761e-10
4.88888e-10
7.7645e-10
1.09689e-09
1.0109e-09
1.232e-09
2.33062e-09
1.56758e-09
6.20929e-10
2.79834e-09
1.67768e-08
2.76699e-08
1.52264e-08
3.70249e-09
2.1761e-10
8.48643e-10
4.8147e-10
2.67941e-10
5.77124e-10
1.87631e-09
2.72387e-09
1.68299e-09
4.74616e-10
2.54534e-10
8.73127e-10
2.44695e-09
3.65884e-09
2.84047e-09
1.85551e-09
2.63094e-09
4.32799e-09
4.59625e-09
2.55676e-09
2.94726e-10
5.71275e-10
8.98659e-10
6.70932e-10
2.58137e-09
2.48461e-09
1.32652e-09
5.12162e-10
3.35214e-10
6.44655e-10
1.18486e-09
1.12049e-09
1.19031e-09
2.33645e-09
1.92532e-09
5.1026e-10
1.65724e-09
1.44637e-08
3.05408e-08
1.93114e-08
5.85347e-09
2.3646e-10
8.88643e-10
6.91169e-10
2.87978e-10
5.17584e-10
1.77253e-09
2.70786e-09
1.79467e-09
6.26761e-10
3.54139e-10
9.89748e-10
2.39235e-09
3.31338e-09
2.54801e-09
1.70234e-09
2.6348e-09
4.47369e-09
4.3997e-09
2.25234e-09
2.77317e-10
3.6526e-10
6.99355e-10
6.34501e-10
2.85299e-09
3.00523e-09
1.50827e-09
4.56397e-10
3.41275e-10
5.49641e-10
1.16365e-09
1.23161e-09
1.13354e-09
2.35124e-09
2.50272e-09
5.03049e-10
1.08e-09
1.10978e-08
3.13498e-08
2.43286e-08
9.12771e-09
5.53318e-10
6.19552e-10
9.21973e-10
3.59277e-10
4.43439e-10
1.69954e-09
2.83103e-09
1.99035e-09
6.89431e-10
4.02816e-10
1.11479e-09
2.57777e-09
3.24538e-09
2.29313e-09
1.42089e-09
2.38042e-09
4.38191e-09
4.0906e-09
1.60098e-09
1.15043e-10
3.03755e-10
4.98052e-10
6.74271e-10
3.22352e-09
3.68281e-09
2.01881e-09
5.35247e-10
3.84095e-10
4.87418e-10
9.34455e-10
1.2273e-09
1.08384e-09
2.09426e-09
2.73694e-09
7.02045e-10
8.24797e-10
7.85756e-09
2.89756e-08
2.83664e-08
1.25826e-08
1.52489e-09
2.47213e-10
7.90963e-10
4.54341e-10
3.5698e-10
1.54561e-09
2.91239e-09
2.14974e-09
6.5269e-10
3.47336e-10
1.14558e-09
2.9172e-09
3.50706e-09
2.18292e-09
1.14201e-09
1.93298e-09
4.03519e-09
3.73879e-09
1.05694e-09
6.33489e-11
3.25458e-10
4.65455e-10
5.66527e-10
3.13087e-09
4.18145e-09
2.66817e-09
9.07384e-10
2.86434e-10
4.91663e-10
6.33209e-10
8.54589e-10
9.71375e-10
1.89612e-09
2.83204e-09
9.82002e-10
6.82826e-10
5.10134e-09
2.38806e-08
2.92198e-08
1.44655e-08
2.96911e-09
8.27666e-11
4.58209e-10
4.07334e-10
3.0294e-10
1.3182e-09
2.72768e-09
2.2204e-09
5.6401e-10
2.49796e-10
1.03507e-09
3.08298e-09
3.82237e-09
2.26548e-09
1.02677e-09
1.83654e-09
3.71993e-09
3.32782e-09
8.90833e-10
9.49063e-11
1.61037e-10
3.56217e-10
3.69149e-10
2.21288e-09
4.03408e-09
3.2772e-09
1.54627e-09
4.96757e-10
3.80968e-10
4.83938e-10
5.9608e-10
7.18989e-10
1.56196e-09
2.86284e-09
1.37041e-09
6.04052e-10
2.9534e-09
1.73349e-08
2.61385e-08
1.41482e-08
4.3725e-09
3.90191e-10
1.33043e-10
2.77827e-10
2.76166e-10
1.14878e-09
2.38005e-09
2.03684e-09
5.21527e-10
2.10331e-10
7.83883e-10
2.46753e-09
3.37496e-09
2.49828e-09
1.70631e-09
2.5929e-09
3.75998e-09
2.74622e-09
6.35966e-10
2.22531e-10
1.50686e-10
2.05022e-10
2.09748e-10
1.34725e-09
3.83316e-09
3.89973e-09
2.29858e-09
1.03855e-09
4.75559e-10
3.98831e-10
4.14616e-10
5.04199e-10
1.16771e-09
2.57435e-09
1.79364e-09
6.13677e-10
1.61996e-09
1.06139e-08
2.00958e-08
1.11691e-08
5.03865e-09
1.174e-09
5.72046e-11
1.2692e-10
3.3455e-10
1.09825e-09
1.95405e-09
1.58846e-09
4.61114e-10
1.70077e-10
5.93079e-10
1.97705e-09
2.99396e-09
2.70495e-09
2.45354e-09
3.83462e-09
4.54457e-09
2.02475e-09
2.2193e-10
2.69068e-10
4.69933e-10
2.16557e-10
2.48185e-10
7.50877e-10
3.55191e-09
4.98338e-09
3.44704e-09
1.38502e-09
6.33943e-10
4.63771e-10
4.88758e-10
5.46939e-10
8.23685e-10
2.26532e-09
2.65672e-09
1.17309e-09
1.18746e-09
5.59048e-09
1.26685e-08
7.79051e-09
4.02361e-09
1.60912e-09
6.34017e-10
6.27784e-10
9.01337e-10
1.26229e-09
1.54297e-09
1.14175e-09
3.38373e-10
1.6493e-10
4.6065e-10
1.65171e-09
2.74087e-09
2.74583e-09
2.77341e-09
3.9182e-09
5.13438e-09
2.41787e-09
1.59315e-10
2.42786e-10
7.63795e-10
4.53941e-10
1.58558e-10
4.97275e-10
3.09941e-09
5.25729e-09
3.86876e-09
1.84648e-09
7.81834e-10
4.64027e-10
4.4299e-10
5.34642e-10
8.09564e-10
1.91221e-09
3.50501e-09
2.25565e-09
1.17329e-09
3.03087e-09
7.87222e-09
4.99349e-09
3.2164e-09
1.76404e-09
1.3459e-09
1.94718e-09
2.31911e-09
2.16764e-09
1.94529e-09
1.11659e-09
2.93162e-10
1.62303e-10
3.37313e-10
1.19677e-09
2.52854e-09
3.11647e-09
3.05656e-09
3.28019e-09
4.30618e-09
3.00863e-09
3.56027e-10
1.98145e-10
5.64303e-10
6.19148e-10
2.80624e-10
5.48119e-10
2.70058e-09
5.14984e-09
4.08825e-09
2.04134e-09
9.46241e-10
5.71143e-10
5.26865e-10
5.75004e-10
8.21123e-10
2.05911e-09
4.17936e-09
3.32794e-09
1.34712e-09
1.54294e-09
3.96381e-09
3.32352e-09
2.50283e-09
1.20908e-09
1.62452e-09
3.4007e-09
4.63324e-09
3.57809e-09
2.4456e-09
1.59057e-09
5.11316e-10
1.74974e-10
2.80764e-10
4.76912e-10
1.72147e-09
3.68424e-09
3.71689e-09
2.7477e-09
3.30025e-09
3.23955e-09
1.06059e-09
1.98154e-10
4.30698e-10
4.47726e-10
3.48661e-10
1.01042e-09
3.24788e-09
4.88345e-09
3.69268e-09
2.03323e-09
1.15143e-09
7.05217e-10
5.67762e-10
6.02846e-10
9.8915e-10
2.21452e-09
4.31014e-09
4.48987e-09
2.08365e-09
9.33592e-10
1.9129e-09
1.79692e-09
1.91953e-09
1.45319e-09
1.44726e-09
2.3486e-09
3.91964e-09
4.43622e-09
3.581e-09
2.58514e-09
1.34364e-09
3.75257e-10
9.7505e-11
1.87465e-10
5.54026e-10
1.77016e-09
2.94498e-09
2.63593e-09
2.63096e-09
3.73421e-09
2.66491e-09
6.3611e-10
1.40512e-10
2.58479e-10
4.18591e-10
1.13482e-09
3.9851e-09
5.23723e-09
3.27621e-09
1.79506e-09
1.19543e-09
8.01885e-10
6.42734e-10
5.36082e-10
8.64123e-10
1.98003e-09
3.48381e-09
4.27826e-09
3.0518e-09
1.27723e-09
1.04851e-09
1.03285e-09
1.16024e-09
1.0281e-09
1.36735e-09
2.90021e-09
4.36692e-09
3.99114e-09
3.26701e-09
3.13753e-09
2.3754e-09
1.11603e-09
3.71396e-10
2.244e-10
2.92562e-10
5.89028e-10
1.27612e-09
1.79129e-09
2.35514e-09
3.33939e-09
3.11862e-09
1.22172e-09
1.84418e-10
1.35954e-10
2.70019e-10
1.27166e-09
4.32313e-09
5.70175e-09
3.76485e-09
1.69396e-09
7.24923e-10
5.42556e-10
6.08191e-10
8.60418e-10
1.33421e-09
1.82657e-09
2.32078e-09
3.52029e-09
4.03907e-09
2.45984e-09
1.07662e-09
1.4908e-09
1.01033e-09
1.00912e-09
1.5091e-09
2.8925e-09
3.97948e-09
3.47079e-09
2.58488e-09
2.4214e-09
2.51623e-09
2.0713e-09
1.38207e-09
7.81842e-10
3.99932e-10
2.6209e-10
3.95111e-10
8.1007e-10
1.54259e-09
2.36568e-09
2.40099e-09
1.39475e-09
5.10564e-10
2.20445e-10
3.07534e-10
1.07433e-09
3.99046e-09
6.50956e-09
5.18433e-09
2.27338e-09
5.87402e-10
3.67261e-10
4.66156e-10
7.89804e-10
1.60656e-09
2.34961e-09
2.09071e-09
1.78568e-09
2.8837e-09
3.76399e-09
2.76828e-09
2.44194e-09
1.77038e-09
1.51832e-09
1.75253e-09
2.39398e-09
2.62535e-09
2.41694e-09
2.29256e-09
2.08936e-09
1.66914e-09
1.48922e-09
1.73718e-09
1.91489e-09
1.75007e-09
1.0385e-09
5.33123e-10
6.23534e-10
1.31676e-09
2.08475e-09
1.96199e-09
1.13444e-09
5.27568e-10
3.09097e-10
3.35782e-10
9.38147e-10
2.9904e-09
5.60924e-09
5.52557e-09
2.99837e-09
8.68057e-10
3.72959e-10
4.36953e-10
7.0815e-10
1.53014e-09
2.20264e-09
1.76321e-09
1.32265e-09
1.88955e-09
3.16532e-09
3.28301e-09
3.73552e-09
2.41442e-09
1.65407e-09
1.35618e-09
1.29507e-09
1.24798e-09
1.38389e-09
2.0266e-09
2.54956e-09
2.29443e-09
1.6688e-09
1.19654e-09
1.18735e-09
1.18516e-09
1.15131e-09
1.05043e-09
1.03897e-09
1.3837e-09
1.89727e-09
2.11383e-09
1.76352e-09
1.135e-09
6.25122e-10
4.39255e-10
7.25915e-10
1.95924e-09
4.24246e-09
5.06677e-09
3.09861e-09
1.06796e-09
4.80832e-10
4.65774e-10
6.04725e-10
1.15748e-09
1.79657e-09
1.60154e-09
1.13211e-09
1.63094e-09
3.34014e-09
4.44977e-09
5.57667e-09
3.6578e-09
1.68699e-09
7.0506e-10
5.31805e-10
6.75666e-10
1.11749e-09
1.90271e-09
2.50503e-09
2.15703e-09
1.39451e-09
1.15452e-09
1.37316e-09
1.43882e-09
1.03841e-09
6.91143e-10
7.4449e-10
1.31138e-09
2.33296e-09
3.46698e-09
3.38288e-09
2.21134e-09
1.22047e-09
6.4082e-10
4.56034e-10
1.04066e-09
2.775e-09
3.8922e-09
2.74699e-09
1.29406e-09
8.4821e-10
9.5096e-10
1.04307e-09
1.152e-09
1.15806e-09
1.0596e-09
1.06449e-09
1.934e-09
3.95872e-09
5.80361e-09
4.12913e-09
1.36306e-09
3.9858e-10
1.91395e-10
1.62102e-10
4.94804e-10
1.54083e-09
2.54551e-09
1.75958e-09
5.75612e-10
4.1863e-10
1.0525e-09
2.1181e-09
2.31851e-09
1.77234e-09
1.65543e-09
2.41855e-09
3.01405e-09
2.45442e-09
1.21433e-09
2.41921e-10
2.68542e-10
4.65283e-10
5.20987e-10
1.27983e-09
2.26467e-09
2.46926e-09
1.38947e-09
5.47369e-10
4.4257e-10
8.25547e-10
1.66951e-09
2.60575e-09
4.12962e-09
4.00302e-09
3.42445e-09
4.61528e-09
6.74449e-09
7.63936e-09
6.92776e-09
4.19586e-09
1.38243e-09
4.01673e-10
1.92826e-10
1.63017e-10
4.92562e-10
1.52936e-09
2.53571e-09
1.76156e-09
5.77738e-10
4.191e-10
1.05395e-09
2.12926e-09
2.33791e-09
1.77828e-09
1.65246e-09
2.41702e-09
3.02959e-09
2.47488e-09
1.22813e-09
2.45284e-10
2.57323e-10
4.53253e-10
5.17138e-10
1.28284e-09
2.2708e-09
2.50127e-09
1.42402e-09
5.50806e-10
4.26545e-10
7.8617e-10
1.61315e-09
2.53182e-09
4.11669e-09
3.9933e-09
3.37664e-09
4.5979e-09
6.78318e-09
7.71705e-09
7.0353e-09
4.27276e-09
1.3926e-09
3.89763e-10
1.88615e-10
1.60589e-10
4.8409e-10
1.51235e-09
2.54242e-09
1.78699e-09
5.84183e-10
4.16925e-10
1.05725e-09
2.15003e-09
2.35574e-09
1.77592e-09
1.64228e-09
2.41245e-09
3.05619e-09
2.50106e-09
1.24311e-09
2.51711e-10
2.56702e-10
4.58798e-10
5.27878e-10
1.29387e-09
2.27154e-09
2.55134e-09
1.50909e-09
6.0526e-10
4.51669e-10
7.69828e-10
1.55626e-09
2.46315e-09
4.12315e-09
4.00303e-09
3.36968e-09
4.61832e-09
6.88048e-09
7.8658e-09
7.18845e-09
4.36904e-09
1.38446e-09
3.65882e-10
1.81514e-10
1.55148e-10
4.69977e-10
1.49514e-09
2.57303e-09
1.84183e-09
5.99373e-10
4.14194e-10
1.06215e-09
2.17997e-09
2.36707e-09
1.74889e-09
1.60593e-09
2.40416e-09
3.09407e-09
2.52989e-09
1.2451e-09
2.47643e-10
2.59501e-10
4.77354e-10
5.37524e-10
1.31445e-09
2.26877e-09
2.59211e-09
1.59563e-09
6.80411e-10
5.08035e-10
7.4975e-10
1.47553e-09
2.33469e-09
4.09773e-09
4.04434e-09
3.40984e-09
4.73228e-09
7.12976e-09
8.15469e-09
7.40413e-09
4.50143e-09
1.36298e-09
3.34698e-10
1.74528e-10
1.48324e-10
4.52191e-10
1.47889e-09
2.62503e-09
1.9253e-09
6.30253e-10
4.16964e-10
1.06785e-09
2.2132e-09
2.36807e-09
1.6932e-09
1.5363e-09
2.38518e-09
3.1559e-09
2.58189e-09
1.23925e-09
2.33195e-10
2.74317e-10
5.13594e-10
5.51555e-10
1.37406e-09
2.30527e-09
2.62106e-09
1.63768e-09
7.39201e-10
6.12128e-10
7.75182e-10
1.43297e-09
2.15248e-09
3.96693e-09
4.07629e-09
3.4798e-09
4.94631e-09
7.56097e-09
8.60831e-09
7.68437e-09
4.68339e-09
1.35442e-09
2.99928e-10
1.67397e-10
1.40219e-10
4.32394e-10
1.45992e-09
2.68167e-09
2.02652e-09
6.87118e-10
4.44423e-10
1.09369e-09
2.2462e-09
2.35201e-09
1.60988e-09
1.42522e-09
2.34461e-09
3.24244e-09
2.66922e-09
1.26315e-09
2.29541e-10
3.10605e-10
5.89307e-10
5.56498e-10
1.43183e-09
2.42809e-09
2.69604e-09
1.60572e-09
7.15455e-10
7.20248e-10
8.74158e-10
1.44781e-09
1.9842e-09
3.68109e-09
4.01672e-09
3.54429e-09
5.26561e-09
8.23976e-09
9.28723e-09
8.05764e-09
4.89172e-09
1.38891e-09
2.62639e-10
1.66462e-10
1.32473e-10
4.07852e-10
1.42195e-09
2.69004e-09
2.08979e-09
7.58509e-10
5.20211e-10
1.19778e-09
2.31337e-09
2.31782e-09
1.49977e-09
1.27511e-09
2.26245e-09
3.33225e-09
2.80694e-09
1.36414e-09
2.63384e-10
3.08452e-10
6.88846e-10
5.53231e-10
1.34292e-09
2.48657e-09
2.90814e-09
1.60558e-09
5.81808e-10
7.21237e-10
1.03815e-09
1.52726e-09
1.94995e-09
3.2967e-09
3.72467e-09
3.49673e-09
5.71438e-09
9.27679e-09
1.02962e-08
8.62637e-09
5.19398e-09
1.47395e-09
2.19805e-10
1.68269e-10
1.34387e-10
3.69304e-10
1.35975e-09
2.64954e-09
2.07577e-09
8.1596e-10
6.3412e-10
1.42247e-09
2.49034e-09
2.31454e-09
1.34298e-09
1.10714e-09
2.14909e-09
3.42242e-09
2.99184e-09
1.5726e-09
3.71497e-10
2.74894e-10
7.91269e-10
5.32695e-10
1.16248e-09
2.27456e-09
3.05596e-09
1.76723e-09
5.38444e-10
5.48919e-10
1.03824e-09
1.64926e-09
2.06003e-09
3.01387e-09
3.15709e-09
3.14849e-09
6.12556e-09
1.0789e-08
1.17727e-08
9.50498e-09
5.67375e-09
1.4937e-09
1.90702e-10
1.63408e-10
1.44238e-10
3.55819e-10
1.33172e-09
2.63552e-09
2.06012e-09
8.55339e-10
7.18956e-10
1.50869e-09
2.5008e-09
2.32168e-09
1.25276e-09
9.46526e-10
2.03599e-09
3.52872e-09
3.21109e-09
1.89146e-09
6.08207e-10
2.30749e-10
1.01085e-09
5.7394e-10
9.99636e-10
1.97595e-09
2.92188e-09
1.91938e-09
5.9113e-10
5.40655e-10
8.27778e-10
1.49359e-09
2.10293e-09
2.90631e-09
2.63805e-09
2.39825e-09
6.07906e-09
1.25894e-08
1.39769e-08
1.08234e-08
6.53209e-09
1.56975e-09
1.58603e-10
1.56424e-10
1.65623e-10
3.74152e-10
1.34264e-09
2.74815e-09
2.16975e-09
9.1872e-10
8.23753e-10
1.60326e-09
2.2722e-09
1.86988e-09
9.67145e-10
7.77081e-10
1.90492e-09
3.62308e-09
3.3637e-09
2.22215e-09
1.05685e-09
1.55667e-10
1.16275e-09
7.28141e-10
8.26687e-10
1.8153e-09
2.72354e-09
1.96052e-09
6.55809e-10
6.31368e-10
9.37313e-10
1.25729e-09
1.79156e-09
2.75486e-09
2.323e-09
1.72025e-09
5.08909e-09
1.41136e-08
1.67725e-08
1.28213e-08
8.19014e-09
2.00339e-09
1.29583e-10
1.05802e-10
1.73092e-10
4.37565e-10
1.54252e-09
3.06031e-09
2.38282e-09
1.02767e-09
9.058e-10
1.62602e-09
2.15101e-09
1.6535e-09
7.25825e-10
5.52071e-10
1.64597e-09
3.63128e-09
3.37826e-09
2.31702e-09
1.5957e-09
2.44932e-10
9.3809e-10
9.29716e-10
6.6157e-10
1.81535e-09
2.88758e-09
1.99263e-09
6.95304e-10
6.23046e-10
1.20777e-09
1.19531e-09
1.37436e-09
2.1158e-09
2.08861e-09
1.37737e-09
3.46937e-09
1.37191e-08
1.91103e-08
1.54284e-08
1.03963e-08
3.08624e-09
2.76892e-10
4.61002e-11
1.39641e-10
4.41471e-10
1.82659e-09