/*--------------------------------*- C++ -*----------------------------------*\
| =========                 |                                                 |
| \\      /  F ield         | OpenFOAM: The Open Source CFD Toolbox           |
|  \\    /   O peration     | Version:  2306                                  |
|   \\  /    A nd           | Website:  www.openfoam.com                      |
|    \\/     M anipulation  |                                                 |
\*---------------------------------------------------------------------------*/
FoamFile
{
    version     2.0;
    format      ascii;
    arch        "LSB;label=32;scalar=64";
    class       volVectorField;
    location    "2";
    object      U_0;
}
// * * * * * * * * * * * * * * * * * * * * * * * * * * * * * * * * * * * * * //

dimensions      [0 1 -1 0 0 0 0];

internalField   nonuniform List<vector> 
60000
(
(0.010371 3.06643e-05 0.00269598)
(0.0102701 1.30703e-06 0.00255226)
(0.0101081 -1.65784e-05 0.00218464)
(0.00995943 -1.64929e-05 0.00187354)
(0.00982534 -9.50976e-06 0.00168714)
(0.00963885 -7.09804e-06 0.00150199)
(0.00932137 -9.73641e-06 0.00126087)
(0.00876279 -1.15074e-05 0.00104315)
(0.00788695 -1.09183e-05 0.000969092)
(0.0068524 -1.17007e-05 0.00102171)
(0.00603841 -1.47373e-05 0.00111612)
(0.0056979 -1.98062e-05 0.00119267)
(0.00573529 -2.47929e-05 0.00117028)
(0.00590266 -2.63681e-05 0.000946407)
(0.0060293 -1.93224e-05 0.000610958)
(0.00610847 -6.42593e-06 0.000302359)
(0.0062586 5.40205e-06 6.92522e-05)
(0.00653514 1.55179e-05 -0.000119152)
(0.00687062 2.14413e-05 -0.000316951)
(0.00721215 2.31142e-05 -0.000599698)
(0.0075801 1.79792e-05 -0.000995014)
(0.00803743 7.9036e-06 -0.00148235)
(0.00859894 -6.24948e-07 -0.00198471)
(0.00913449 -2.28251e-06 -0.00237201)
(0.00943186 -5.47689e-06 -0.00252374)
(0.00931711 -5.69101e-06 -0.00248864)
(0.00874233 4.06591e-07 -0.00238949)
(0.00787486 1.02325e-05 -0.00223103)
(0.00704555 -4.20803e-07 -0.0020658)
(0.00648283 -9.97397e-06 -0.00203568)
(0.00620496 -4.25146e-06 -0.0020756)
(0.00618352 4.39632e-06 -0.00196089)
(0.00641621 1.08814e-05 -0.0015037)
(0.00686393 2.36971e-05 -0.000747311)
(0.00743161 4.00685e-05 1.60787e-06)
(0.0080584 5.02152e-05 0.000485105)
(0.00873447 5.03403e-05 0.000791982)
(0.0094304 5.40907e-05 0.0012029)
(0.00999395 6.39375e-05 0.00181394)
(0.0103014 5.73215e-05 0.002418)
(0.0318898 8.89644e-05 0.00698)
(0.0317671 -6.97744e-05 0.00642458)
(0.0311909 -0.000152914 0.00540564)
(0.0305738 -0.000145112 0.00470094)
(0.0300961 -9.55686e-05 0.00442106)
(0.0295271 -5.42313e-05 0.00412288)
(0.028533 -2.67449e-05 0.00355366)
(0.0268388 -6.97877e-06 0.00292685)
(0.0243679 -1.58653e-05 0.00263995)
(0.0215375 -8.18566e-05 0.00277915)
(0.0191853 -0.000182327 0.0031066)
(0.0179485 -0.000256968 0.00327825)
(0.0176638 -0.000273307 0.00303885)
(0.0177552 -0.000230893 0.00234907)
(0.0178868 -0.000143407 0.00152305)
(0.0180784 -4.93341e-05 0.0008192)
(0.0185509 1.67339e-05 0.000272792)
(0.019385 5.69422e-05 -0.000217521)
(0.0204388 7.35059e-05 -0.000790516)
(0.0216182 5.52087e-05 -0.00159928)
(0.0229863 -2.26e-06 -0.00270554)
(0.0246198 -7.32376e-05 -0.00405326)
(0.0264133 -0.000106141 -0.0054188)
(0.0280115 -8.32642e-05 -0.00643796)
(0.0288926 -5.02906e-05 -0.00678966)
(0.0285851 -1.38943e-05 -0.00656178)
(0.0270128 2.56132e-05 -0.00608019)
(0.0246909 1.99792e-05 -0.00554165)
(0.0223514 -6.88695e-05 -0.0052237)
(0.0204131 -0.000137577 -0.00535026)
(0.0190977 -0.000120588 -0.00557649)
(0.0186587 -6.17502e-05 -0.00521275)
(0.0191896 1.46985e-05 -0.0038593)
(0.0204652 0.000121187 -0.00183761)
(0.0221466 0.000243365 5.96481e-05)
(0.0240507 0.000314812 0.00136394)
(0.0260939 0.000317648 0.00234193)
(0.0281702 0.000313347 0.00353858)
(0.029989 0.000317358 0.00508986)
(0.0312801 0.000245568 0.00647694)
(0.0545472 4.95633e-05 0.0103995)
(0.0545685 -0.000276864 0.00964737)
(0.0534676 -0.00042537 0.00799591)
(0.0521894 -0.000388528 0.00679021)
(0.0512893 -0.000271474 0.00646081)
(0.0504082 -0.000170041 0.00631494)
(0.0489141 -9.21904e-05 0.00569243)
(0.0464095 -4.07703e-05 0.00470017)
(0.0428184 -6.46474e-05 0.0040053)
(0.0384999 -0.00022172 0.00404755)
(0.0343443 -0.000464667 0.00464027)
(0.0315272 -0.000644657 0.00504328)
(0.0303055 -0.000678256 0.00467497)
(0.0299289 -0.000565433 0.00362195)
(0.0298395 -0.000351822 0.00245619)
(0.0300168 -0.000128715 0.00151884)
(0.0307283 2.14968e-05 0.000800149)
(0.0320668 9.39027e-05 0.000138997)
(0.0338384 0.000106388 -0.000658113)
(0.0359141 2.85078e-05 -0.00179923)
(0.0384029 -0.000141393 -0.00341152)
(0.0413727 -0.000323799 -0.00548464)
(0.0445687 -0.000394241 -0.00773126)
(0.0474354 -0.000327464 -0.0095543)
(0.0492114 -0.000225136 -0.0103312)
(0.0491565 -0.000119225 -0.0100146)
(0.0470847 -2.38479e-05 -0.00906746)
(0.0436771 -5.09824e-05 -0.00798766)
(0.039917 -0.000227246 -0.00737834)
(0.0363537 -0.000355736 -0.0076661)
(0.0333965 -0.000317318 -0.00837428)
(0.0317268 -0.0001894 -0.00828073)
(0.031894 -1.1843e-05 -0.00652752)
(0.0336788 0.000236808 -0.00356689)
(0.0364072 0.0005233 -0.000652376)
(0.0396577 0.000694791 0.00148435)
(0.0432006 0.000708314 0.00316205)
(0.046856 0.000684056 0.00506556)
(0.0502586 0.000634548 0.00740228)
(0.0529866 0.000417727 0.00951404)
(0.077528 -0.000131705 0.0127565)
(0.0779894 -0.00061443 0.0124395)
(0.0763027 -0.00080577 0.0103683)
(0.0741439 -0.000722567 0.00833493)
(0.0727227 -0.000524491 0.00765096)
(0.071671 -0.000346179 0.00780305)
(0.0700193 -0.000193011 0.00757033)
(0.0672462 -8.33277e-05 0.00647354)
(0.0632811 -0.000102282 0.00519823)
(0.0581398 -0.000334927 0.00476531)
(0.0521853 -0.000743103 0.00550262)
(0.0469375 -0.00109883 0.0064253)
(0.0437729 -0.00120468 0.00623359)
(0.0422989 -0.00103454 0.00493066)
(0.0416435 -0.000675849 0.00349046)
(0.0415653 -0.000295228 0.00245113)
(0.0423048 -3.78006e-05 0.00175718)
(0.0439518 6.75481e-05 0.00117268)
(0.0462737 4.81441e-05 0.000456143)
(0.0490998 -0.000129514 -0.000643203)
(0.0526152 -0.000492345 -0.00235775)
(0.0569459 -0.000865335 -0.0048581)
(0.0617334 -0.000998719 -0.00799142)
(0.0662194 -0.000856308 -0.0109995)
(0.0694342 -0.00062438 -0.0128033)
(0.0703927 -0.000370685 -0.0129232)
(0.0686673 -0.000163733 -0.0117401)
(0.0648287 -0.000186873 -0.0100086)
(0.0599824 -0.000447165 -0.00874417)
(0.0548578 -0.000630384 -0.00883954)
(0.0499295 -0.000576077 -0.010086)
(0.046047 -0.000412115 -0.0109599)
(0.0445097 -0.000175513 -0.00979947)
(0.0458497 0.000207421 -0.00660194)
(0.0492453 0.000683022 -0.00294581)
(0.0538172 0.000992956 -2.95366e-05)
(0.0590142 0.0010303 0.00234201)
(0.0644957 0.000993393 0.00490424)
(0.0698478 0.000883685 0.00798709)
(0.0744987 0.000477454 0.0109838)
(0.0991631 -0.000494801 0.0131101)
(0.100683 -0.00107173 0.0143329)
(0.0985046 -0.001245 0.0127676)
(0.0952085 -0.00109102 0.00985079)
(0.093122 -0.000808875 0.00814706)
(0.0920912 -0.000556621 0.00829804)
(0.0907401 -0.000320887 0.00887352)
(0.0882971 -0.000137718 0.00829701)
(0.0847818 -0.000119663 0.00655422)
(0.0798715 -0.000349811 0.00516768)
(0.0729369 -0.00085152 0.00557193)
(0.0649972 -0.00143072 0.00719093)
(0.0586548 -0.00173592 0.00772721)
(0.0549934 -0.00159899 0.00637103)
(0.0531759 -0.0011279 0.00457515)
(0.0524622 -0.000590589 0.00343509)
(0.0528608 -0.000215893 0.00294556)
(0.0544014 -7.33177e-05 0.00275007)
(0.0567839 -0.000143025 0.00253545)
(0.0597739 -0.000480539 0.00202955)
(0.0636699 -0.00116484 0.000916291)
(0.068911 -0.00191475 -0.00127744)
(0.0753349 -0.00222032 -0.00489349)
(0.0820031 -0.0019197 -0.00938793)
(0.0875385 -0.0013837 -0.0131702)
(0.0906256 -0.000850705 -0.0148362)
(0.0904636 -0.000420078 -0.0142259)
(0.0871897 -0.000377774 -0.0121257)
(0.081899 -0.000702441 -0.00995328)
(0.0756853 -0.000916769 -0.00925534)
(0.0691749 -0.000822519 -0.0105057)
(0.0629237 -0.000645637 -0.0124437)
(0.0583328 -0.000463235 -0.0128764)
(0.0572378 -9.09585e-05 -0.0107476)
(0.0598408 0.000479704 -0.00726157)
(0.0650562 0.000882729 -0.00404729)
(0.0717988 0.000925405 -0.00119437)
(0.0793172 0.000897241 0.00196834)
(0.0869141 0.000859836 0.00578939)
(0.093962 0.000314634 0.00983412)
(0.116272 -0.00124595 0.00951679)
(0.120325 -0.00168964 0.0136079)
(0.118311 -0.00169669 0.0145024)
(0.113572 -0.00144346 0.0118602)
(0.110537 -0.00107964 0.00866992)
(0.109773 -0.000757981 0.00785663)
(0.10932 -0.000464814 0.00910093)
(0.107741 -0.000210538 0.00988123)
(0.105256 -0.00013261 0.00838989)
(0.101718 -0.000280323 0.0058022)
(0.0955201 -0.000697368 0.0050345)
(0.0861681 -0.00140678 0.00698275)
(0.0761747 -0.00203649 0.00883048)
(0.0687664 -0.00213134 0.00797988)
(0.0646471 -0.00166104 0.00574637)
(0.0627276 -0.000996931 0.00425136)
(0.0623618 -0.000506476 0.00389188)
(0.0632733 -0.000316812 0.00420018)
(0.064987 -0.00043947 0.00473647)
(0.0670599 -0.00102493 0.00524554)
(0.0697733 -0.00221936 0.00545491)
(0.0741576 -0.00363095 0.00471632)
(0.0809435 -0.00444929 0.0020964)
(0.0898182 -0.00423636 -0.00287326)
(0.0993029 -0.00317674 -0.00915443)
(0.106646 -0.0018769 -0.014079)
(0.109913 -0.000876525 -0.0156987)
(0.108655 -0.000631952 -0.0143133)
(0.103821 -0.000994819 -0.0116021)
(0.0972191 -0.00120913 -0.00974026)
(0.0900919 -0.00101095 -0.0101287)
(0.0826768 -0.000758939 -0.0122832)
(0.0754683 -0.00066168 -0.0142314)
(0.0704593 -0.000468827 -0.0143062)
(0.0695813 -7.78347e-05 -0.0126237)
(0.0730789 0.000152094 -0.0104202)
(0.0798376 3.268e-05 -0.00793998)
(0.0885696 -8.16633e-05 -0.00467123)
(0.098068 -6.41646e-05 -0.000489551)
(0.107738 -0.00047952 0.00436072)
(0.122908 -0.00311981 0.00055804)
(0.132476 -0.00293867 0.00784436)
(0.1332 -0.00218822 0.0132353)
(0.126999 -0.0016597 0.0136951)
(0.122159 -0.00137335 0.0101424)
(0.121937 -0.000998594 0.00731518)
(0.123403 -0.000592348 0.00798737)
(0.123324 -0.000307437 0.0103896)
(0.121896 -0.000227068 0.0105339)
(0.120305 -0.00021388 0.00728788)
(0.11678 -0.000371251 0.00453548)
(0.108963 -0.000939694 0.00575598)
(0.0972368 -0.00179888 0.00891184)
(0.0853135 -0.00232692 0.00946312)
(0.0770265 -0.0021102 0.00719432)
(0.0727958 -0.00142926 0.00507373)
(0.071274 -0.000825475 0.00443993)
(0.0713711 -0.000551904 0.00489023)
(0.0722187 -0.000695058 0.00577344)
(0.0730695 -0.00158095 0.00684008)
(0.0738025 -0.00350705 0.00820938)
(0.0755823 -0.00585176 0.00953431)
(0.0801077 -0.00734921 0.00944772)
(0.0880009 -0.00746169 0.00655608)
(0.0993207 -0.00634132 0.000334182)
(0.112515 -0.0042369 -0.00778614)
(0.12257 -0.00203622 -0.0137185)
(0.125793 -0.00112186 -0.0151649)
(0.122629 -0.00144007 -0.0133925)
(0.116324 -0.00162404 -0.0108926)
(0.109606 -0.00111342 -0.00988808)
(0.102834 -0.000645857 -0.0110598)
(0.0954469 -0.0005677 -0.0132397)
(0.0880368 -0.000503113 -0.0150983)
(0.082699 -0.000486922 -0.0163434)
(0.0816171 -0.00084826 -0.0170072)
(0.0854309 -0.00152763 -0.0163311)
(0.0929112 -0.00196147 -0.0137762)
(0.101701 -0.00201184 -0.00997737)
(0.111269 -0.00240025 -0.00546482)
(0.120356 -0.00605915 -0.00939361)
(0.133569 -0.00557344 -0.00123655)
(0.140625 -0.00321455 0.00767084)
(0.135528 -0.00149331 0.0128504)
(0.127 -0.00137366 0.0119092)
(0.12546 -0.00150453 0.00781575)
(0.130187 -0.000960087 0.00624581)
(0.133521 -0.000344265 0.00880307)
(0.132235 -0.000367135 0.0114948)
(0.130892 -0.000576506 0.0094969)
(0.131249 -0.000335473 0.00486657)
(0.12875 -0.000279653 0.00408174)
(0.120017 -0.000965602 0.00765125)
(0.106089 -0.00180351 0.0100798)
(0.0925007 -0.00210187 0.00876716)
(0.0838664 -0.00171353 0.00635187)
(0.0802503 -0.00111676 0.00519854)
(0.0796314 -0.000726232 0.00526551)
(0.0803328 -0.000784438 0.0057961)
(0.0813417 -0.00180797 0.00651999)
(0.0818681 -0.00428714 0.00797377)
(0.0816619 -0.0076059 0.0106898)
(0.0823785 -0.0100197 0.013488)
(0.0864976 -0.0105496 0.0138684)
(0.0951535 -0.00958383 0.0102328)
(0.108922 -0.00730598 0.00243619)
(0.124863 -0.00415553 -0.00661352)
(0.13483 -0.00213902 -0.0122797)
(0.134121 -0.00203701 -0.0134619)
(0.126795 -0.00229331 -0.0119478)
(0.120409 -0.00172286 -0.00987197)
(0.116999 -0.000781882 -0.00917595)
(0.113416 -0.000189516 -0.0102984)
(0.107641 0.000120339 -0.0124952)
(0.100764 -2.77592e-05 -0.0158382)
(0.0951927 -0.00124153 -0.0202581)
(0.0935959 -0.00302674 -0.023312)
(0.0973292 -0.00416612 -0.0226536)
(0.104009 -0.00427658 -0.0192196)
(0.110835 -0.00483677 -0.014947)
(0.119675 -0.00877362 -0.0156165)
(0.130244 -0.00909683 -0.00805258)
(0.141411 -0.00554913 0.00131923)
(0.141986 -0.00154371 0.00912147)
(0.132717 -0.000589875 0.0113641)
(0.125552 -0.00177845 0.00829876)
(0.128934 -0.00195885 0.00489697)
(0.137456 -0.00065832 0.00566624)
(0.139621 -2.03614e-05 0.00931341)
(0.134436 -0.000908624 0.0100998)
(0.132241 -0.00160543 0.00582739)
(0.136569 -0.00102957 0.00276623)
(0.137831 -0.00041823 0.00545774)
(0.128758 -0.0006932 0.0093461)
(0.112803 -0.00121865 0.00972157)
(0.0984279 -0.00140136 0.00791907)
(0.0905308 -0.00122323 0.00671803)
(0.0883168 -0.000949754 0.00642218)
(0.0892552 -0.000936112 0.00632341)
(0.0914681 -0.00188135 0.00625892)
(0.0934293 -0.00438981 0.00697672)
(0.0935585 -0.00806649 0.00956026)
(0.0919353 -0.0113107 0.0137285)
(0.091367 -0.012666 0.0171128)
(0.0952683 -0.0121402 0.0167141)
(0.105603 -0.0101539 0.0109349)
(0.121926 -0.00682658 0.0013486)
(0.136121 -0.00360638 -0.00730672)
(0.136664 -0.00209374 -0.0114302)
(0.125011 -0.00180921 -0.0109243)
(0.113899 -0.00174638 -0.00796977)
(0.11174 -0.00146723 -0.00526759)
(0.116649 -0.000695977 -0.00468601)
(0.120258 0.000596946 -0.00655899)
(0.118285 0.00124871 -0.0108278)
(0.112818 -0.000222145 -0.0177446)
(0.107173 -0.00334053 -0.0249585)
(0.105274 -0.00575164 -0.0281127)
(0.108551 -0.0062911 -0.0260867)
(0.11373 -0.00685144 -0.0214348)
(0.122476 -0.010357 -0.0191203)
(0.129103 -0.0120867 -0.0116844)
(0.139379 -0.00905571 -0.00352893)
(0.145521 -0.00303997 0.00435377)
(0.141261 0.000202448 0.00854507)
(0.131454 -0.000871989 0.00741778)
(0.127029 -0.00279054 0.00377424)
(0.133694 -0.00204631 0.00261381)
(0.142577 0.000193028 0.00556075)
(0.141901 0.000269294 0.00837663)
(0.133883 -0.00234297 0.0065296)
(0.132506 -0.0041244 0.00275353)
(0.14155 -0.00289191 0.00354495)
(0.145169 -0.000789556 0.00770442)
(0.134681 6.58851e-05 0.00958636)
(0.117758 -9.16141e-05 0.00884478)
(0.104485 -0.000582609 0.00829404)
(0.0983596 -0.000993667 0.00847075)
(0.0980456 -0.00139712 0.00832359)
(0.10133 -0.00236735 0.00739768)
(0.105502 -0.00457695 0.00656515)
(0.10719 -0.00788743 0.00778339)
(0.105055 -0.0111958 0.0118)
(0.101468 -0.0132 0.0167258)
(0.10049 -0.0134816 0.0192024)
(0.105827 -0.0122894 0.0160184)
(0.118592 -0.00941499 0.0070163)
(0.132357 -0.00525444 -0.0032981)
(0.134354 -0.00160542 -0.00961311)
(0.122073 0.00013131 -0.00979305)
(0.107933 -0.000263345 -0.00555876)
(0.102474 -0.00165125 -0.000412309)
(0.107586 -0.00190793 0.00263998)
(0.118546 1.16287e-06 0.00207606)
(0.126336 0.0021246 -0.00239843)
(0.127078 0.0016851 -0.0105967)
(0.122846 -0.00192228 -0.020476)
(0.117694 -0.00568931 -0.0276406)
(0.115992 -0.00719318 -0.028985)
(0.118302 -0.00796068 -0.0254065)
(0.125892 -0.010442 -0.0220674)
(0.13049 -0.0135697 -0.0142064)
(0.137947 -0.0125012 -0.00666559)
(0.145628 -0.00635663 -0.000247302)
(0.147216 -0.000643516 0.00438313)
(0.140893 0.000297893 0.00536569)
(0.131933 -0.00206275 0.00297095)
(0.12969 -0.00326224 0.000809811)
(0.137214 -0.00123432 0.00216522)
(0.145269 0.000973764 0.00560258)
(0.143806 -0.000616263 0.00638875)
(0.135947 -0.00515662 0.00369384)
(0.137116 -0.00722717 0.00293617)
(0.147733 -0.00435447 0.00630974)
(0.149401 -0.000334944 0.00894775)
(0.137515 0.00149942 0.00883713)
(0.122278 0.00128971 0.00875504)
(0.111632 6.17112e-05 0.00990585)
(0.107446 -0.00166001 0.0106338)
(0.109674 -0.00364296 0.00940687)
(0.116165 -0.00568836 0.00669968)
(0.121136 -0.00794463 0.00550988)
(0.120028 -0.0103894 0.00832817)
(0.1145 -0.0123391 0.01385)
(0.109368 -0.0131426 0.0184697)
(0.109104 -0.0128666 0.018131)
(0.11633 -0.0109 0.0109533)
(0.127139 -0.00650725 0.000350988)
(0.130601 -0.00115044 -0.00754624)
(0.122259 0.00230714 -0.00931084)
(0.110163 0.0021665 -0.0054462)
(0.102886 -0.000542381 0.00107472)
(0.103683 -0.00249608 0.00651237)
(0.112417 -0.00123737 0.00845442)
(0.124323 0.00187247 0.0058799)
(0.132659 0.00319123 -0.00154103)
(0.1346 0.000501026 -0.0123123)
(0.131447 -0.00390546 -0.0222698)
(0.127087 -0.00643559 -0.0274987)
(0.124643 -0.00769059 -0.0271992)
(0.130832 -0.00932073 -0.024108)
(0.133644 -0.0133444 -0.0172095)
(0.139369 -0.0144607 -0.00931568)
(0.145157 -0.0102008 -0.00362431)
(0.1484 -0.00362858 0.00034334)
(0.146438 -3.83619e-05 0.00275232)
(0.139311 -0.000647087 0.00238473)
(0.131928 -0.00269944 0.000418682)
(0.132136 -0.0026841 0.000380244)
(0.140629 -0.000697901 0.00320591)
(0.147667 -0.000372904 0.00543958)
(0.144889 -0.00406048 0.00427947)
(0.138612 -0.0086888 0.0027068)
(0.14254 -0.00857227 0.00487642)
(0.151178 -0.00346179 0.00797502)
(0.149797 0.00137732 0.00833363)
(0.138808 0.00322557 0.00814654)
(0.126785 0.00251206 0.00979782)
(0.118611 -0.000265793 0.0111538)
(0.11683 -0.00448394 0.00939241)
(0.12303 -0.00779771 0.00509107)
(0.132408 -0.00889937 0.00191486)
(0.135402 -0.0095011 0.00344299)
(0.129862 -0.0106493 0.00909761)
(0.121291 -0.0114893 0.0152738)
(0.115489 -0.0115268 0.0177864)
(0.116352 -0.0105009 0.0136015)
(0.122939 -0.0069283 0.00426343)
(0.127327 -0.00101663 -0.00472982)
(0.123836 0.00375096 -0.00887062)
(0.116321 0.00425976 -0.00739654)
(0.110474 0.0011937 -0.00216032)
(0.108478 -0.00177958 0.00404241)
(0.111876 -0.00173074 0.00845712)
(0.120319 0.00100934 0.00919679)
(0.130792 0.00331926 0.00512468)
(0.139523 0.00238993 -0.00376844)
(0.142295 -0.00126433 -0.0146141)
(0.139059 -0.00427591 -0.0226813)
(0.133685 -0.00617073 -0.0260098)
(0.137954 -0.0076792 -0.023915)
(0.138878 -0.0123749 -0.0194993)
(0.143581 -0.014787 -0.0123338)
(0.146749 -0.0128662 -0.00660708)
(0.147289 -0.00739244 -0.00273899)
(0.146181 -0.00205718 0.000564651)
(0.142791 7.38277e-05 0.00217972)
(0.136984 -0.000974414 0.0011668)
(0.133431 -0.00268249 0.000137445)
(0.137545 -0.00280694 0.00186789)
(0.145802 -0.0023102 0.00470283)
(0.148473 -0.00407962 0.00476337)
(0.143392 -0.00828187 0.00250586)
(0.140212 -0.0105573 0.00265291)
(0.145139 -0.00722706 0.00557642)
(0.149232 -0.000973679 0.00733741)
(0.14463 0.00353785 0.00792262)
(0.134969 0.00484729 0.00939026)
(0.126819 0.00272912 0.00956973)
(0.122678 -0.00272215 0.00567918)
(0.124872 -0.00878207 -0.000213988)
(0.135607 -0.0107449 -0.00393791)
(0.145734 -0.00929881 -0.00242894)
(0.144402 -0.00850911 0.00372745)
(0.134199 -0.00907071 0.0109085)
(0.123745 -0.00903914 0.0155664)
(0.119084 -0.00814456 0.01458)
(0.121243 -0.005494 0.00784693)
(0.125238 -0.000283498 -0.000991737)
(0.125357 0.00472657 -0.00756439)
(0.122235 0.00571816 -0.00950976)
(0.11923 0.00274223 -0.00708458)
(0.117549 -0.000510433 -0.00226977)
(0.117762 -0.00114846 0.00264457)
(0.120865 0.000559051 0.00589124)
(0.127739 0.00204134 0.00594061)
(0.138691 0.00181134 0.001233)
(0.147937 0.000305025 -0.00790458)
(0.148469 -0.00143073 -0.0171334)
(0.142822 -0.00367002 -0.0228387)
(0.146032 -0.0057649 -0.0224674)
(0.145831 -0.0109327 -0.0200978)
(0.149254 -0.0136316 -0.0147147)
(0.150308 -0.013122 -0.0100612)
(0.147191 -0.00964172 -0.00611822)
(0.143862 -0.00456603 -0.00142281)
(0.141966 -0.000484012 0.00229921)
(0.139505 0.00053868 0.00246904)
(0.137084 -0.00142384 0.000787337)
(0.138637 -0.0037537 0.00138652)
(0.144893 -0.00426164 0.00451078)
(0.149622 -0.00446088 0.00571995)
(0.147369 -0.00685665 0.00290672)
(0.141089 -0.00975487 0.000584188)
(0.138056 -0.00875336 0.00255244)
(0.13766 -0.00353992 0.00647435)
(0.134716 0.00179827 0.00941614)
(0.130413 0.00477892 0.00991313)
(0.1286 0.00466203 0.00638388)
(0.1281 0.000433522 -0.000395406)
(0.127268 -0.00722669 -0.00614671)
(0.132873 -0.012497 -0.00795783)
(0.146342 -0.0111415 -0.00558994)
(0.152988 -0.00763414 0.000360265)
(0.145302 -0.00653899 0.00732488)
(0.131699 -0.00617101 0.0127122)
(0.122675 -0.00487342 0.0141136)
(0.121742 -0.00250607 0.0102332)
(0.125783 0.00135855 0.00273045)
(0.128956 0.00522598 -0.00510147)
(0.129235 0.00596273 -0.0100905)
(0.128702 0.00331732 -0.0109399)
(0.128533 0.000585726 -0.00875263)
(0.128327 0.00020765 -0.00525664)
(0.128504 0.00117611 -0.00124244)
(0.130881 0.000611377 0.00202256)
(0.138291 -0.00103993 0.00156731)
(0.148963 -0.000895975 -0.00424347)
(0.153944 0.000216017 -0.0126417)
(0.150727 -0.00108186 -0.0195146)
(0.153674 -0.00352407 -0.0197734)
(0.152781 -0.00861714 -0.0191409)
(0.155124 -0.011119 -0.0156607)
(0.155796 -0.0114483 -0.0126016)
(0.150935 -0.0100449 -0.00939537)
(0.1446 -0.00632838 -0.00395009)
(0.141121 -0.0014435 0.00165383)
(0.139731 0.00156439 0.00362475)
(0.139259 0.000457775 0.00248501)
(0.140807 -0.00322123 0.00219268)
(0.145297 -0.00543362 0.00462891)
(0.149841 -0.00513556 0.00644613)
(0.149191 -0.00519508 0.00394305)
(0.141956 -0.00670167 -0.000180875)
(0.132823 -0.00697279 -0.000359248)
(0.12646 -0.00416892 0.0034144)
(0.123466 -0.000113041 0.00651092)
(0.124491 0.00298341 0.00557045)
(0.129102 0.00441578 0.000392721)
(0.133135 0.00267335 -0.00582531)
(0.133522 -0.00387551 -0.00885544)
(0.134865 -0.0121132 -0.00724268)
(0.144175 -0.0142971 -0.00304437)
(0.154115 -0.00991111 0.00209322)
(0.151168 -0.00559225 0.00729791)
(0.137834 -0.00367734 0.0114628)
(0.126359 -0.00201638 0.0130366)
(0.123221 0.000365913 0.010587)
(0.126511 0.00314018 0.00456563)
(0.130382 0.00524662 -0.0023576)
(0.131289 0.00494004 -0.00702474)
(0.131122 0.00233941 -0.00869199)
(0.132579 1.18502e-05 -0.008839)
(0.13508 0.000148725 -0.00772972)
(0.136853 0.00131892 -0.00419158)
(0.137604 0.000139312 0.000548979)
(0.139598 -0.00269946 0.00197639)
(0.145789 -0.00261691 -0.00222765)
(0.152981 0.000354389 -0.0094553)
(0.155446 0.00074891 -0.016027)
(0.158 -0.00188238 -0.015782)
(0.158316 -0.00576251 -0.0167567)
(0.160044 -0.00798396 -0.0153703)
(0.161944 -0.00890611 -0.0137295)
(0.157784 -0.00905674 -0.0119029)
(0.149028 -0.00680069 -0.00744357)
(0.142455 -0.00201402 -0.000875183)
(0.140157 0.00217003 0.0038673)
(0.140581 0.00227629 0.00504974)
(0.142443 -0.00142412 0.00445111)
(0.145341 -0.00481162 0.00478481)
(0.14838 -0.00517135 0.00608378)
(0.148547 -0.00429193 0.00531773)
(0.143452 -0.00420279 0.00160821)
(0.134857 -0.00387414 -0.00174064)
(0.127664 -0.00216232 -0.00198353)
(0.125042 -9.21399e-05 -0.000487957)
(0.127049 0.00129118 -0.000140083)
(0.132263 0.00250258 -0.00265885)
(0.137456 0.00275224 -0.00676197)
(0.140121 -0.000883221 -0.00887543)
(0.1417 -0.00886562 -0.00679403)
(0.146361 -0.0148931 -0.0015957)
(0.153281 -0.0129961 0.00370505)
(0.152641 -0.00662278 0.00768245)
(0.142014 -0.00181096 0.0109662)
(0.130578 0.000755184 0.0128864)
(0.125453 0.00255832 0.0112749)
(0.125682 0.00435394 0.00635503)
(0.126465 0.00563771 0.00136264)
(0.12572 0.00491829 -0.000945862)
(0.125698 0.0019296 -0.00152772)
(0.128639 -0.000978729 -0.00279411)
(0.133777 -0.00101835 -0.00358367)
(0.137871 0.000662592 -0.000848966)
(0.138774 0.000483861 0.00378815)
(0.138079 -0.00166666 0.00467029)
(0.139814 -0.00233412 -0.000176082)
(0.146141 -0.000307708 -0.00697259)
(0.15396 0.000687739 -0.0123645)
(0.156924 -0.00088189 -0.0112869)
(0.160951 -0.00300279 -0.0128182)
(0.164213 -0.00456821 -0.0132268)
(0.167319 -0.00595339 -0.0134063)
(0.164439 -0.00698461 -0.0134804)
(0.154749 -0.00575266 -0.0107774)
(0.145335 -0.00165736 -0.00431677)
(0.140994 0.0026071 0.00232687)
(0.141113 0.00343481 0.00577972)
(0.143078 0.000329882 0.00614729)
(0.145023 -0.00332071 0.00559332)
(0.146175 -0.00456494 0.00571269)
(0.145289 -0.00391704 0.00551335)
(0.141406 -0.00300353 0.0032054)
(0.136101 -0.00188 -0.000565979)
(0.132645 -0.000310861 -0.00329643)
(0.132485 0.000594105 -0.0033875)
(0.134157 0.000293158 -0.00172407)
(0.136817 0.000365524 -0.00131868)
(0.139888 0.00132802 -0.00367011)
(0.141851 0.000568314 -0.00585929)
(0.143364 -0.00460514 -0.00502658)
(0.146503 -0.0115504 -0.00147085)
(0.151436 -0.0130809 0.00308934)
(0.152807 -0.00755302 0.00702853)
(0.146478 -0.000675947 0.00989522)
(0.137028 0.00377763 0.0114)
(0.130068 0.0057183 0.0107769)
(0.12602 0.00601576 0.00818023)
(0.12331 0.00541762 0.00527886)
(0.12216 0.00365411 0.00363282)
(0.123813 0.000281335 0.0030141)
(0.128043 -0.00319766 0.00185495)
(0.133262 -0.00402467 0.000439845)
(0.137141 -0.00166328 0.00132916)
(0.138092 0.000839517 0.00473129)
(0.137227 0.00112302 0.00633934)
(0.13736 0.000429868 0.00264012)
(0.141343 0.00058405 -0.0036704)
(0.149314 0.000604067 -0.00853042)
(0.154142 -0.000106994 -0.00787673)
(0.160022 -0.00145982 -0.00988891)
(0.165157 -0.00209098 -0.0108083)
(0.169338 -0.00318011 -0.0115513)
(0.16792 -0.00430027 -0.0129725)
(0.159549 -0.00337042 -0.0129426)
(0.149987 7.82157e-05 -0.00858485)
(0.144167 0.00336635 -0.00142364)
(0.142135 0.00364124 0.00421009)
(0.141992 0.00105771 0.00628171)
(0.142367 -0.00168119 0.00613794)
(0.142553 -0.0025272 0.00593424)
(0.141669 -0.00209936 0.00564083)
(0.139627 -0.00153928 0.00372138)
(0.138097 -0.000775555 0.000386323)
(0.138849 4.88846e-05 -0.00226568)
(0.141005 -0.000327612 -0.00259478)
(0.14146 -0.00201157 -0.000780845)
(0.139736 -0.00260544 0.00111646)
(0.138251 -0.000585105 0.00123521)
(0.138643 0.00108557 0.00079838)
(0.141456 -0.00191387 0.00164783)
(0.145745 -0.00865045 0.00383643)
(0.149665 -0.0120579 0.00605563)
(0.150535 -0.0076658 0.00711121)
(0.145879 0.000501222 0.00813233)
(0.137857 0.00645775 0.00938127)
(0.130552 0.00806786 0.00948066)
(0.125403 0.00670481 0.00814707)
(0.122253 0.00501424 0.00697959)
(0.121592 0.00380395 0.00696507)
(0.123875 0.00190947 0.00702941)
(0.128195 -0.00103527 0.00584338)
(0.132901 -0.00308629 0.00416763)
(0.136155 -0.00183402 0.00414744)
(0.137089 0.00157542 0.00614485)
(0.137097 0.00373294 0.00743797)
(0.138028 0.00399849 0.00518248)
(0.141093 0.00333957 0.000211068)
(0.147004 0.00190375 -0.00458327)
(0.151195 -0.000971207 -0.0055384)
(0.157863 -0.00253581 -0.0082474)
(0.163977 -0.00179874 -0.00928642)
(0.167735 -0.000515849 -0.00987553)
(0.166987 -0.000419794 -0.0110336)
(0.162294 -0.000394619 -0.0121544)
(0.15699 0.00147708 -0.010771)
(0.152994 0.00400919 -0.00607706)
(0.149483 0.00423496 -0.000652128)
(0.145519 0.00180252 0.00277819)
(0.141684 -0.000954338 0.00406892)
(0.139364 -0.00219467 0.00472933)
(0.13919 -0.0020777 0.00536991)
(0.141091 -0.00136865 0.0050519)
(0.145083 -0.000361364 0.00320347)
(0.15008 0.000307704 0.000802454)
(0.152873 -0.000452605 -0.000348855)
(0.150478 -0.00215877 0.0013823)
(0.144463 -0.00250639 0.00544812)
(0.139822 -0.000130767 0.00803213)
(0.139388 0.00270875 0.00632302)
(0.142229 0.00183086 0.00227033)
(0.146146 -0.00388831 0.000973434)
(0.14921 -0.00898067 0.0041129)
(0.149431 -0.00672862 0.00711897)
(0.14507 0.00163764 0.00730308)
(0.137577 0.00897296 0.00683825)
(0.130839 0.0114017 0.00709977)
(0.126915 0.00992137 0.00720624)
(0.125543 0.00724165 0.0064074)
(0.125851 0.00503078 0.00515297)
(0.127458 0.00322206 0.00435117)
(0.130077 0.0013688 0.00423975)
(0.133357 0.000134539 0.00424012)
(0.136833 0.000747067 0.00446898)
(0.139321 0.00303585 0.00573498)
(0.140274 0.0050733 0.00737548)
(0.140596 0.00561829 0.00720197)
(0.141875 0.00458358 0.00403021)
(0.145412 0.00211729 -0.000966465)
(0.149917 -0.00245207 -0.00266534)
(0.155739 -0.00559709 -0.00678842)
(0.161049 -0.00529987 -0.00846683)
(0.164649 -0.00215754 -0.00846935)
(0.164435 0.000850522 -0.00852137)
(0.160347 0.00226444 -0.00911091)
(0.155592 0.00322249 -0.00908719)
(0.153169 0.00457558 -0.00735131)
(0.152797 0.00511686 -0.00436969)
(0.152033 0.00377876 -0.00153647)
(0.149145 0.00123568 0.000417073)
(0.14486 -0.00159502 0.00194851)
(0.141508 -0.00458849 0.00360139)
(0.141026 -0.00738032 0.00501067)
(0.144566 -0.00873165 0.00532036)
(0.151237 -0.00770716 0.00400243)
(0.156526 -0.00514455 0.00190902)
(0.155571 -0.00273086 0.00152342)
(0.149135 -0.000560938 0.00393736)
(0.142758 0.00239218 0.00595697)
(0.139956 0.00534606 0.00380351)
(0.140017 0.00564828 -0.00155757)
(0.141785 0.00176826 -0.0050723)
(0.144831 -0.00402755 -0.00286227)
(0.146898 -0.00602776 0.00246635)
(0.145448 -0.00105247 0.00576084)
(0.141375 0.00697026 0.00624144)
(0.138092 0.0124149 0.00547114)
(0.137245 0.0133999 0.00367344)
(0.137674 0.0112733 0.00100955)
(0.137666 0.0082281 -0.00106045)
(0.137078 0.00537973 -0.00119866)
(0.136808 0.00315376 0.000520131)
(0.137198 0.00205796 0.00272962)
(0.137961 0.00236905 0.00431733)
(0.138518 0.00345628 0.00549929)
(0.138595 0.00432126 0.00672654)
(0.138796 0.00454975 0.00732757)
(0.140484 0.00387495 0.00609056)
(0.144416 0.00154008 0.00240686)
(0.151936 -0.00477207 0.00220911)
(0.156762 -0.00502119 -0.00380417)
(0.157634 -0.00288444 -0.00752072)
(0.154958 0.000982585 -0.00881962)
(0.150746 0.00428575 -0.00870094)
(0.146976 0.00553092 -0.00798234)
(0.14473 0.00510151 -0.0072742)
(0.144294 0.00410504 -0.00697371)
(0.145618 0.00302305 -0.00680179)
(0.14852 0.00181393 -0.00593453)
(0.152126 0.000628261 -0.00404223)
(0.154567 -0.000521375 -0.0016351)
(0.154356 -0.00228898 0.000585683)
(0.151892 -0.00529949 0.00275302)
(0.149488 -0.00871681 0.00526538)
(0.149493 -0.0106488 0.00747402)
(0.151631 -0.00982825 0.00797247)
(0.152589 -0.00617177 0.00651703)
(0.149905 -0.000887862 0.0046015)
(0.145247 0.00362949 0.00304773)
(0.141545 0.00531358 0.000921023)
(0.139929 0.00349487 -0.0022024)
(0.140573 -0.000545218 -0.00446925)
(0.143317 -0.00433183 -0.00321579)
(0.146404 -0.00530817 0.00143431)
(0.147277 -0.00205187 0.00608573)
(0.14623 0.00395521 0.00788918)
(0.145926 0.00920401 0.00614885)
(0.14703 0.0116701 0.00146508)
(0.147869 0.0113348 -0.00424219)
(0.147397 0.00887735 -0.00843374)
(0.146038 0.00525926 -0.00944405)
(0.144479 0.00237499 -0.0071026)
(0.143113 0.00189851 -0.00259619)
(0.141957 0.00340709 0.00222494)
(0.140636 0.00469674 0.0062398)
(0.139126 0.00404278 0.0093992)
(0.138493 0.00168031 0.011566)
(0.140402 -0.000963184 0.0116017)
(0.145419 -0.00318626 0.00824834)
(0.154319 -0.00265024 0.0106961)
(0.157094 -0.00137718 0.00638888)
(0.160326 0.0017462 0.00125947)
(0.162002 0.00590751 -0.00336605)
(0.160707 0.00889398 -0.0070719)
(0.156834 0.00920516 -0.009572)
(0.15226 0.00726652 -0.0106949)