/*--------------------------------*- C++ -*----------------------------------*\
| =========                 |                                                 |
| \\      /  F ield         | OpenFOAM: The Open Source CFD Toolbox           |
|  \\    /   O peration     | Version:  2306                                  |
|   \\  /    A nd           | Website:  www.openfoam.com                      |
|    \\/     M anipulation  |                                                 |
\*---------------------------------------------------------------------------*/
FoamFile
{
    version     2.0;
    format      ascii;
    arch        "LSB;label=32;scalar=64";
    class       volScalarField;
    location    "7.5";
    object      nut;
}
// * * * * * * * * * * * * * * * * * * * * * * * * * * * * * * * * * * * * * //

dimensions      [0 2 -1 0 0 0 0];

internalField   nonuniform List<scalar> 
60000
(
6.40501e-05
6.906e-05
7.49957e-05
8.10098e-05
8.57503e-05
8.75449e-05
8.5808e-05
8.20463e-05
7.82955e-05
7.54129e-05
7.33319e-05
7.13669e-05
6.85708e-05
6.43628e-05
5.91706e-05
5.44779e-05
5.15367e-05
5.04923e-05
5.07823e-05
5.17063e-05
5.30319e-05
5.50734e-05
5.77811e-05
6.06462e-05
6.35762e-05
6.66946e-05
7.03824e-05
7.50348e-05
7.98371e-05
8.23693e-05
8.12666e-05
7.73532e-05
7.19899e-05
6.63385e-05
6.14303e-05
5.79708e-05
5.63164e-05
5.64428e-05
5.78748e-05
6.03795e-05
6.3332e-05
6.87236e-05
7.47502e-05
8.07676e-05
8.60227e-05
8.9024e-05
8.83962e-05
8.47844e-05
8.05497e-05
7.74269e-05
7.5573e-05
7.40639e-05
7.17504e-05
6.80586e-05
6.34432e-05
5.88989e-05
5.52358e-05
5.28732e-05
5.18393e-05
5.18197e-05
5.26199e-05
5.4193e-05
5.63735e-05
5.90143e-05
6.2299e-05
6.63713e-05
7.13311e-05
7.70204e-05
8.22105e-05
8.47444e-05
8.3675e-05
7.99176e-05
7.5096e-05
7.04679e-05
6.62144e-05
6.20013e-05
5.83177e-05
5.63282e-05
5.67123e-05
5.92068e-05
5.89483e-05
6.39381e-05
6.9835e-05
7.60581e-05
8.25955e-05
8.81389e-05
9.01656e-05
8.76053e-05
8.27371e-05
7.87402e-05
7.66943e-05
7.57428e-05
7.45583e-05
7.23468e-05
6.90291e-05
6.47431e-05
5.98187e-05
5.51718e-05
5.19299e-05
5.04487e-05
5.03813e-05
5.12592e-05
5.284e-05
5.51331e-05
5.83996e-05
6.2603e-05
6.76526e-05
7.34434e-05
7.94178e-05
8.36558e-05
8.4628e-05
8.26438e-05
7.92417e-05
7.57573e-05
7.21798e-05
6.74644e-05
6.15426e-05
5.63922e-05
5.43137e-05
5.54963e-05
5.19038e-05
5.53691e-05
6.04987e-05
6.66208e-05
7.39663e-05
8.2516e-05
8.87925e-05
8.91829e-05
8.44757e-05
7.92415e-05
7.64878e-05
7.59575e-05
7.60972e-05
7.57796e-05
7.44627e-05
7.14694e-05
6.61295e-05
5.90814e-05
5.259e-05
4.85066e-05
4.68163e-05
4.66301e-05
4.73827e-05
4.89539e-05
5.15429e-05
5.49468e-05
5.87883e-05
6.32297e-05
6.9333e-05
7.61725e-05
8.11603e-05
8.29773e-05
8.21976e-05
8.03381e-05
7.80047e-05
7.41385e-05
6.73502e-05
5.89055e-05
5.26889e-05
5.06489e-05
4.51363e-05
4.53115e-05
4.79585e-05
5.23463e-05
5.85064e-05
6.84565e-05
7.97722e-05
8.59557e-05
8.39308e-05
7.80299e-05
7.40802e-05
7.35655e-05
7.48388e-05
7.62339e-05
7.71196e-05
7.67426e-05
7.33322e-05
6.58082e-05
5.60872e-05
4.79298e-05
4.31343e-05
4.10347e-05
4.0486e-05
4.08409e-05
4.20846e-05
4.42619e-05
4.64294e-05
4.81786e-05
5.16542e-05
5.90216e-05
6.87975e-05
7.66189e-05
8.06329e-05
8.15614e-05
8.09032e-05
7.91138e-05
7.424e-05
6.50732e-05
5.48713e-05
4.79743e-05
4.44395e-05
4.03479e-05
3.9214e-05
4.00589e-05
4.2249e-05
4.68392e-05
5.84054e-05
7.22262e-05
7.71965e-05
7.31523e-05
6.82263e-05
6.74154e-05
6.95615e-05
7.20945e-05
7.44061e-05
7.69912e-05
7.80975e-05
7.42464e-05
6.43545e-05
5.21324e-05
4.23897e-05
3.67135e-05
3.40246e-05
3.28967e-05
3.28806e-05
3.44136e-05
3.66141e-05
3.73987e-05
3.92409e-05
4.31081e-05
4.80812e-05
5.91772e-05
7.01889e-05
7.62059e-05
7.77995e-05
7.79911e-05
7.69998e-05
7.17185e-05
6.18466e-05
5.17253e-05
5.27413e-05
4.51863e-05
3.81391e-05
3.47306e-05
3.56614e-05
3.9686e-05
4.04461e-05
4.62372e-05
5.88667e-05
6.1024e-05
5.65475e-05
5.56161e-05
5.91593e-05
6.28853e-05
6.51343e-05
6.87204e-05
7.48752e-05
7.88954e-05
7.50567e-05
6.30685e-05
4.85197e-05
3.73486e-05
3.12257e-05
2.85368e-05
2.76027e-05
2.84987e-05
3.17494e-05
3.40902e-05
3.08299e-05
3.54783e-05
4.11082e-05
3.97438e-05
4.85797e-05
6.10658e-05
6.6656e-05
6.79153e-05
6.97522e-05
7.04291e-05
6.66464e-05
5.9847e-05
5.95236e-05
5.71057e-05
4.75382e-05
3.54092e-05
2.85672e-05
3.16624e-05
4.09942e-05
3.70049e-05
3.48403e-05
4.19757e-05
3.88336e-05
3.61425e-05
4.1723e-05
4.85155e-05
5.04622e-05
5.10034e-05
5.8363e-05
7.10485e-05
7.95496e-05
7.63e-05
6.22973e-05
4.56145e-05
3.41018e-05
2.9034e-05
2.74944e-05
2.78479e-05
3.10404e-05
3.78685e-05
3.96544e-05
2.694e-05
3.14215e-05
3.83577e-05
3.2866e-05
3.91992e-05
4.5131e-05
4.16281e-05
4.14399e-05
4.87168e-05
5.59687e-05
5.88402e-05
4.72731e-05
5.6121e-05
5.73574e-05
4.58966e-05
3.108e-05
2.09933e-05
2.57056e-05
3.78621e-05
3.04126e-05
2.70962e-05
2.88631e-05
2.05455e-05
2.13518e-05
2.98509e-05
3.50318e-05
3.02022e-05
2.82943e-05
4.21371e-05
6.47858e-05
7.93846e-05
7.69045e-05
6.05545e-05
4.27202e-05
3.28599e-05
3.01974e-05
3.12523e-05
3.45899e-05
4.12433e-05
4.9653e-05
4.56653e-05
2.42221e-05
2.81679e-05
3.14104e-05
2.08684e-05
2.1062e-05
2.09732e-05
2.18656e-05
2.28758e-05
2.76397e-05
3.73058e-05
2.93654e-05
3.66043e-05
4.91873e-05
5.26722e-05
4.05327e-05
2.65659e-05
1.77443e-05
2.36968e-05
3.36792e-05
2.43315e-05
2.74625e-05
2.42928e-05
1.35045e-05
1.57449e-05
1.88339e-05
2.19493e-05
1.18306e-05
1.24551e-05
2.86016e-05
5.8625e-05
7.78653e-05
7.44124e-05
5.60252e-05
3.99666e-05
3.36674e-05
3.39909e-05
3.80867e-05
4.54453e-05
5.43691e-05
5.71469e-05
4.14866e-05
1.7926e-05
2.38991e-05
1.83745e-05
1.70036e-05
2.74247e-05
2.8172e-05
2.84722e-05
2.7184e-05
2.61506e-05
2.69854e-05
3.06035e-05
2.99088e-05
4.45443e-05
4.72344e-05
3.46995e-05
2.50533e-05
2.0167e-05
2.4073e-05
3.07917e-05
2.36168e-05
2.95226e-05
1.94107e-05
1.0993e-05
1.25604e-05
1.27298e-05
1.86291e-05
8.05364e-06
1.67489e-05
2.49825e-05
5.35514e-05
7.26216e-05
6.71358e-05
5.05106e-05
3.83823e-05
3.25095e-05
3.35918e-05
4.14969e-05
5.37629e-05
6.08869e-05
5.2529e-05
2.78143e-05
1.49802e-05
1.9477e-05
1.83873e-05
2.61612e-05
2.65616e-05
1.91807e-05
1.42018e-05
1.78526e-05
1.57464e-05
2.656e-05
2.4878e-05
2.69419e-05
4.41408e-05
4.28534e-05
3.28748e-05
2.87536e-05
2.3448e-05
2.46679e-05
2.87266e-05
2.17949e-05
2.34054e-05
1.02652e-05
1.17431e-05
1.12059e-05
1.24296e-05
1.71428e-05
9.42834e-06
2.25909e-05
2.50809e-05
4.57885e-05
6.17304e-05
5.60469e-05
4.13885e-05
2.61335e-05
2.10852e-05
2.78349e-05
3.94188e-05
5.46296e-05
5.6504e-05
3.99729e-05
1.93466e-05
1.735e-05
1.66723e-05
1.94951e-05
2.85173e-05
3.26081e-05
2.69581e-05
1.70353e-05
3.20876e-05
2.88929e-05
2.74995e-05
1.70931e-05
3.1462e-05
4.37677e-05
3.98167e-05
3.5453e-05
3.23103e-05
2.39638e-05
2.36191e-05
2.31574e-05
1.65523e-05
1.61562e-05
5.67226e-06
1.20031e-05
1.21521e-05
1.21876e-05
1.53245e-05
1.15383e-05
2.2619e-05
2.19125e-05
2.907e-05
3.49446e-05
3.07941e-05
2.58036e-05
2.10189e-05
2.1734e-05
2.23814e-05
3.63076e-05
5.09524e-05
4.63302e-05
2.95653e-05
1.97009e-05
1.56635e-05
1.39619e-05
2.1331e-05
3.25304e-05
3.81202e-05
3.6417e-05
3.92793e-05
3.53353e-05
3.02728e-05
2.3395e-05
1.4855e-05
3.44263e-05
4.24476e-05
4.06781e-05
3.93447e-05
3.22567e-05
2.40501e-05
2.2419e-05
1.83169e-05
1.48821e-05
1.24343e-05
7.7312e-06
1.29698e-05
1.2063e-05
1.15145e-05
1.59686e-05
1.3529e-05
2.53861e-05
2.96555e-05
1.97006e-05
1.29335e-05
2.37461e-05
2.80002e-05
2.34385e-05
2.00241e-05
2.01601e-05
3.77267e-05
4.37149e-05
3.47373e-05
2.49986e-05
1.87839e-05
1.42722e-05
1.37199e-05
1.8615e-05
2.80027e-05
3.61137e-05
2.15108e-05
2.39799e-05
2.30532e-05
2.80153e-05
1.81662e-05
1.60964e-05
3.59014e-05
4.21561e-05
4.34631e-05
3.9779e-05
3.13748e-05
2.67905e-05
2.34112e-05
1.7653e-05
1.50158e-05
1.24494e-05
1.12082e-05
1.2609e-05
8.65188e-06
1.23837e-05
1.88342e-05
2.06266e-05
2.5772e-05
2.15416e-05
1.57025e-05
2.14555e-05
2.80286e-05
2.71872e-05
2.05817e-05
1.50777e-05
2.52677e-05
3.72487e-05
3.42201e-05
2.75188e-05
2.15414e-05
1.47201e-05
1.23981e-05
1.35376e-05
1.10823e-05
1.44649e-05
1.46489e-05
1.30966e-05
1.70909e-05
2.70233e-05
3.24897e-05
1.69513e-05
2.22046e-05
3.84761e-05
4.47545e-05
4.42303e-05
3.75782e-05
3.20647e-05
2.76039e-05
2.06113e-05
1.50728e-05
1.50202e-05
1.38819e-05
1.10889e-05
1.0677e-05
1.25104e-05
1.77613e-05
2.11092e-05
1.71253e-05
1.61108e-05
2.08654e-05
2.04251e-05
2.23303e-05
2.7213e-05
2.32437e-05
1.36722e-05
1.64164e-05
3.00431e-05
3.13301e-05
2.7693e-05
2.20258e-05
1.62609e-05
1.78006e-05
1.98534e-05
2.05854e-05
1.96395e-05
1.42254e-05
1.27049e-05
1.7646e-05
2.43828e-05
3.29998e-05
3.29148e-05
2.3217e-05
2.63445e-05
3.71624e-05
4.20039e-05
3.8506e-05
3.46856e-05
3.14453e-05
2.37213e-05
1.44634e-05
9.78216e-06
1.01207e-05
9.48592e-06
1.15711e-05
1.42968e-05
1.33446e-05
1.3996e-05
1.86012e-05
2.26464e-05
2.31858e-05
1.83652e-05
1.6478e-05
2.61202e-05
2.94524e-05
1.79155e-05
7.62518e-06
2.03113e-05
2.76426e-05
2.77884e-05
2.31439e-05
2.07744e-05
1.99049e-05
1.74437e-05
1.72902e-05
1.77281e-05
9.20644e-06
1.27382e-05
2.33467e-05
2.77573e-05
2.93367e-05
2.98805e-05
2.88763e-05
2.90894e-05
2.85074e-05
2.81169e-05
2.80074e-05
2.77196e-05
2.93551e-05
2.88266e-05
2.38539e-05
1.50971e-05
7.23911e-06
7.08944e-06
1.06946e-05
1.4306e-05
1.60839e-05
1.83528e-05
2.23411e-05
2.44058e-05
2.4556e-05
2.25778e-05
1.62383e-05
2.06605e-05
3.08531e-05
2.60436e-05
1.06949e-05
1.17715e-05
2.00965e-05
2.57456e-05
2.72688e-05
2.31078e-05
1.4755e-05
1.44482e-05
1.88358e-05
1.66614e-05
2.12822e-05
1.50253e-05
1.79932e-05
2.20449e-05
2.19381e-05
2.28522e-05
2.25066e-05
2.39795e-05
2.86944e-05
2.65941e-05
1.97254e-05
1.82139e-05
2.02882e-05
2.2912e-05
2.48343e-05
2.52096e-05
2.31548e-05
1.82688e-05
1.21306e-05
1.12681e-05
2.06929e-05
2.88348e-05
2.72244e-05
1.76594e-05
2.18458e-05
2.96691e-05
2.19011e-05
1.75392e-05
3.52996e-05
3.8699e-05
2.29638e-05
1.04167e-05
2.14166e-05
2.83278e-05
2.81791e-05
2.42831e-05
2.30352e-05
2.42157e-05
2.424e-05
2.41988e-05
1.90006e-05
1.24261e-05
1.34012e-05
1.86006e-05
2.08321e-05
2.0355e-05
1.83539e-05
1.67078e-05
1.88437e-05
2.11779e-05
1.98053e-05
1.65786e-05
1.5066e-05
1.3609e-05
1.42709e-05
1.54108e-05
1.84846e-05
2.29337e-05
2.34466e-05
1.93038e-05
1.70382e-05
2.23639e-05
2.6873e-05
2.19084e-05
1.71147e-05
2.43609e-05
2.62871e-05
1.80871e-05
1.61755e-05
2.39659e-05
1.96915e-05
9.30132e-06
2.30073e-05
3.25617e-05
3.52804e-05
4.03584e-05
4.55957e-05
4.43591e-05
3.68051e-05
2.73311e-05
2.9895e-05
2.58011e-05
2.35987e-05
2.32096e-05
2.46798e-05
2.61293e-05
2.36837e-05
1.95441e-05
1.60137e-05
1.09229e-05
1.02162e-05
1.72848e-05
2.00778e-05
1.70407e-05
1.40421e-05
1.56526e-05
1.84924e-05
1.92375e-05
1.93476e-05
1.96732e-05
1.7168e-05
1.15836e-05
6.68713e-06
6.46564e-06
1.03945e-05
1.89797e-05
2.58063e-05
2.729e-05
2.02347e-05
8.50438e-06
9.08622e-06
7.22263e-06
2.11804e-05
3.39357e-05
4.04578e-05
4.51648e-05
4.56035e-05
4.13478e-05
3.69876e-05
3.37058e-05
2.97666e-05
3.15324e-05
3.1275e-05
3.0662e-05
2.94446e-05
2.65962e-05
2.22858e-05
1.61511e-05
1.34341e-05
1.54839e-05
1.72217e-05
2.06721e-05
2.32828e-05
2.1559e-05
1.71452e-05
1.27285e-05
8.52421e-06
8.02707e-06
1.07463e-05
1.1684e-05
1.19054e-05
1.21992e-05
1.66845e-05
1.91489e-05
1.77559e-05
2.13881e-05
2.88906e-05
3.39229e-05
3.18409e-05
2.19875e-05
1.23796e-05
1.18908e-05
2.05423e-05
3.27503e-05
3.9446e-05
3.88132e-05
3.2608e-05
2.58155e-05
2.35484e-05
2.59439e-05
1.42277e-05
2.09353e-05
2.36509e-05
2.14473e-05
1.71712e-05
1.33101e-05
1.19372e-05
1.25709e-05
1.30864e-05
1.28788e-05
1.19543e-05
1.17519e-05
1.33299e-05
1.37446e-05
1.37084e-05
1.69377e-05
2.02733e-05
2.00889e-05
1.701e-05
1.36037e-05
1.30306e-05
1.43475e-05
1.34289e-05
1.59962e-05
1.88394e-05
1.8102e-05
2.30665e-05
3.0065e-05
3.05589e-05
2.48243e-05
1.75996e-05
1.43441e-05
1.83453e-05
2.64989e-05
3.06017e-05
2.69426e-05
2.02371e-05
1.66168e-05
1.44792e-05
1.16305e-05
1.08802e-05
1.23533e-05
1.19716e-05
1.16582e-05
1.23462e-05
1.31035e-05
1.33153e-05
1.18161e-05
8.72884e-06
8.12097e-06
7.9796e-06
8.34592e-06
1.33398e-05
1.66464e-05
1.8091e-05
2.19541e-05
2.33411e-05
1.93811e-05
1.40868e-05
1.25011e-05
1.43083e-05
1.34783e-05
7.20205e-06
6.77074e-06
1.26799e-05
1.64405e-05
1.93792e-05
1.99493e-05
1.65037e-05
1.09625e-05
8.67569e-06
9.10025e-06
1.03919e-05
1.4471e-05
1.69013e-05
1.66724e-05
1.59631e-05
1.41102e-05
1.09696e-05
9.28943e-06
1.36851e-05
1.44834e-05
1.06457e-05
5.35372e-06
1.01441e-05
1.37211e-05
1.39605e-05
1.37617e-05
1.1984e-05
8.62336e-06
7.57828e-06
9.93678e-06
1.39266e-05
1.60807e-05
1.4334e-05
1.03051e-05
8.99855e-06
1.05082e-05
9.92694e-06
8.21973e-06
1.29932e-05
2.10997e-05
2.45166e-05
2.20106e-05
1.84846e-05
1.79118e-05
1.96291e-05
2.38935e-05
2.73715e-05
2.5926e-05
1.9416e-05
1.06901e-05
5.52668e-06
9.08868e-06
1.19127e-05
1.49453e-05
1.82301e-05
2.08453e-05
1.99246e-05
1.5348e-05
5.31274e-05
5.65207e-05
6.16797e-05
6.72014e-05
7.16456e-05
7.45152e-05
7.6089e-05
7.68092e-05
7.69093e-05
7.66606e-05
7.64728e-05
7.62539e-05
7.53174e-05
7.3049e-05
6.97613e-05
6.65446e-05
6.41644e-05
6.26538e-05
6.16779e-05
6.10283e-05
6.0966e-05
6.20017e-05
6.41611e-05
6.68795e-05
6.95747e-05
7.24675e-05
7.60204e-05
8.0558e-05
8.55013e-05
8.88278e-05
8.8712e-05
8.54949e-05
8.12894e-05
7.69443e-05
7.17926e-05
6.54221e-05
5.91523e-05
5.48765e-05
5.27193e-05
5.20575e-05
5.25651e-05
5.64086e-05
6.13054e-05
6.62038e-05
7.05746e-05
7.40344e-05
7.64984e-05
7.80004e-05
7.87561e-05
7.90269e-05
7.9105e-05
7.89504e-05
7.81394e-05
7.62493e-05
7.35411e-05
7.07389e-05
6.83146e-05
6.61687e-05
6.41196e-05
6.24299e-05
6.17456e-05
6.24074e-05
6.39555e-05
6.59316e-05
6.82688e-05
7.1629e-05
7.65713e-05
8.28787e-05
8.88779e-05
9.2202e-05
9.20296e-05
8.9165e-05
8.51494e-05
8.10923e-05
7.70282e-05
7.16685e-05
6.43752e-05
5.70901e-05
5.24011e-05
5.09968e-05
4.96925e-05
5.26094e-05
5.69431e-05
6.18097e-05
6.68737e-05
7.15038e-05
7.5141e-05
7.74955e-05
7.88505e-05
7.95329e-05
7.98063e-05
7.98953e-05
7.9781e-05
7.90222e-05
7.73581e-05
7.50268e-05
7.24e-05
6.94933e-05
6.62823e-05
6.32977e-05
6.13963e-05
6.09395e-05
6.14562e-05
6.25193e-05
6.42171e-05
6.73318e-05
7.23774e-05
7.92558e-05
8.62616e-05
9.10041e-05
9.26969e-05
9.1792e-05
8.88853e-05
8.54622e-05
8.28683e-05
7.9565e-05
7.24557e-05
6.21403e-05
5.35367e-05
4.95577e-05
4.60782e-05
4.65046e-05
4.95533e-05
5.42844e-05
6.02791e-05
6.64232e-05
7.1636e-05
7.5117e-05
7.70695e-05
7.80406e-05
7.84198e-05
7.87423e-05
7.9468e-05
8.01701e-05
7.99789e-05
7.86156e-05
7.62591e-05
7.29385e-05
6.86788e-05
6.41498e-05
6.045e-05
5.81886e-05
5.71426e-05
5.68405e-05
5.732e-05
5.91327e-05
6.27352e-05
6.85439e-05
7.57751e-05
8.24914e-05
8.73445e-05
9.01505e-05
9.00275e-05
8.78598e-05
8.66438e-05
8.62494e-05
8.18809e-05
7.08535e-05
5.80426e-05
4.94935e-05
4.55483e-05
4.09865e-05
4.07043e-05
4.39363e-05
4.99999e-05
5.73835e-05
6.43836e-05
6.94879e-05
7.2254e-05
7.34273e-05
7.38162e-05
7.42633e-05
7.56179e-05
7.76042e-05
7.89808e-05
7.91256e-05
7.80725e-05
7.55025e-05
7.10561e-05
6.52759e-05
5.95351e-05
5.4964e-05
5.17448e-05
4.94986e-05
4.81586e-05
4.78604e-05
4.89271e-05
5.17977e-05
5.70586e-05
6.41567e-05
7.18503e-05
7.95077e-05
8.46771e-05
8.55373e-05
8.54882e-05
8.77833e-05
8.83812e-05
8.1081e-05
6.72965e-05
5.42795e-05
5.34563e-05
4.232e-05
3.50559e-05
3.39082e-05
3.70271e-05
4.35024e-05
5.15406e-05
5.8717e-05
6.29936e-05
6.4511e-05
6.48351e-05
6.53997e-05
6.71226e-05
6.97951e-05
7.20859e-05
7.35451e-05
7.47638e-05
7.48849e-05
7.23356e-05
6.68304e-05
5.96792e-05
5.2767e-05
4.70692e-05
4.24753e-05
3.91406e-05
3.74159e-05
3.72426e-05
3.76691e-05
3.9593e-05
4.3209e-05
4.76792e-05
5.64356e-05
6.82512e-05
7.53413e-05
7.71755e-05
8.07113e-05
8.64931e-05
8.67225e-05
7.78838e-05
6.53143e-05
6.8482e-05
5.63263e-05
3.96253e-05
2.9753e-05
2.81283e-05
3.00291e-05
3.4603e-05
4.17812e-05
4.78145e-05
5.01351e-05
5.02642e-05
5.10137e-05
5.34203e-05
5.65161e-05
5.85846e-05
5.96244e-05
6.24046e-05
6.68508e-05
6.94055e-05
6.76425e-05
6.15434e-05
5.31561e-05
4.52184e-05
3.86993e-05
3.40317e-05
3.18784e-05
3.29036e-05
3.49144e-05
3.36365e-05
3.20844e-05
3.17169e-05
3.17514e-05
4.1097e-05
5.51546e-05
6.10457e-05
6.3771e-05
7.18537e-05
8.02034e-05
8.09051e-05
7.5672e-05
7.68254e-05
7.51297e-05
5.82699e-05
3.53447e-05
2.59812e-05
2.69441e-05
2.78662e-05
2.72524e-05
3.02222e-05
3.34777e-05
3.23203e-05
3.10765e-05
3.43358e-05
3.9136e-05
4.07289e-05
3.85196e-05
3.8992e-05
4.69769e-05
5.71776e-05
6.3673e-05
6.35656e-05
5.65644e-05
4.70015e-05
3.90863e-05
3.38299e-05
3.15001e-05
3.35347e-05
3.98773e-05
4.22169e-05
3.47061e-05
2.66326e-05
2.28551e-05
2.29118e-05
3.16876e-05
4.08536e-05
3.97409e-05
4.23205e-05
5.48375e-05
6.6689e-05
7.27011e-05
6.27594e-05
7.96771e-05
7.90709e-05
5.50088e-05
2.93495e-05
2.51777e-05
3.10197e-05
3.1319e-05
2.31725e-05
2.09246e-05
2.24554e-05
1.75876e-05
1.49819e-05
1.93065e-05
2.47635e-05
2.29626e-05
1.67082e-05
1.95698e-05
3.17881e-05
4.87739e-05
6.03553e-05
6.04951e-05
5.14329e-05
4.18404e-05
3.56472e-05
3.13542e-05
2.96651e-05
3.52708e-05
4.45163e-05
4.29864e-05
3.24721e-05
2.2299e-05
1.82812e-05
2.03208e-05
2.40171e-05
2.21109e-05
1.51751e-05
1.83102e-05
2.78901e-05
4.36722e-05
2.39676e-05
5.57482e-05
8.15788e-05
7.69025e-05
4.8576e-05
2.40884e-05
2.59384e-05
3.51809e-05
3.42111e-05
2.09088e-05
1.70413e-05
1.72735e-05
9.0911e-06
1.22373e-05
1.45487e-05
1.77133e-05
1.45314e-05
1.65537e-05
2.07183e-05
2.18203e-05
4.20987e-05
5.69556e-05
5.48718e-05
4.46651e-05
3.66325e-05
2.97628e-05
2.30314e-05
2.60837e-05
3.74494e-05
4.47138e-05
3.72167e-05
2.84273e-05
1.89967e-05
1.65964e-05
1.49107e-05
1.77945e-05
1.86739e-05
1.79075e-05
2.17733e-05
1.86728e-05
2.92323e-05
2.0204e-05
5.56741e-05
7.96422e-05
6.89445e-05
4.07721e-05
1.92548e-05
2.67721e-05
3.72644e-05
3.42253e-05
1.87893e-05
1.50704e-05
1.29772e-05
1.21381e-05
1.97763e-05
1.56755e-05
1.47619e-05
1.47421e-05
2.44797e-05
2.87239e-05
1.97823e-05
3.51043e-05
4.74322e-05
4.33478e-05
3.48948e-05
2.64392e-05
1.68049e-05
1.88534e-05
2.82938e-05
3.80493e-05
3.71808e-05
2.88484e-05
2.19951e-05
1.05044e-05
1.4638e-05
1.72414e-05
2.72432e-05
2.86969e-05
1.85851e-05
2.44354e-05
2.6309e-05
2.97288e-05
1.99732e-05
5.80951e-05
7.16557e-05
5.70215e-05
3.21122e-05
1.77926e-05
2.77093e-05
3.53836e-05
3.04547e-05
1.86927e-05
1.59684e-05
1.2923e-05
1.58127e-05
2.00094e-05
1.77837e-05
1.70027e-05
1.51505e-05
2.52743e-05
3.07382e-05
1.85139e-05
2.37287e-05
3.11596e-05
2.83611e-05
2.33359e-05
1.66497e-05
1.36801e-05
2.30773e-05
2.65383e-05
3.21077e-05
2.47097e-05
2.02919e-05
1.22566e-05
5.39896e-06
1.72987e-05
2.12591e-05
3.13953e-05
3.53299e-05
2.33953e-05
2.66787e-05
3.10275e-05
1.98587e-05
2.67431e-05
5.88035e-05
6.05598e-05
4.39588e-05
2.43676e-05
1.93391e-05
2.7102e-05
3.08118e-05
2.57926e-05
1.96761e-05
1.61095e-05
1.2323e-05
1.59814e-05
2.04142e-05
2.09867e-05
1.8692e-05
1.45723e-05
2.19646e-05
2.70996e-05
1.71336e-05
6.86484e-06
1.06859e-05
1.80612e-05
2.09796e-05
1.42318e-05
1.51369e-05
1.95199e-05
2.53205e-05
2.26703e-05
1.6352e-05
1.34692e-05
1.06467e-05
1.04414e-05
1.80559e-05
1.68699e-05
2.52929e-05
3.20011e-05
2.24008e-05
2.41389e-05
2.88068e-05
8.78326e-06
3.87794e-05
5.78379e-05
5.0974e-05
3.46342e-05
2.20504e-05
2.16919e-05
2.55598e-05
2.52971e-05
2.145e-05
1.88699e-05
1.62099e-05
1.53746e-05
1.93821e-05
2.18276e-05
2.07412e-05
1.6055e-05
1.0329e-05
2.01648e-05
2.58023e-05
1.89342e-05
1.49309e-05
1.70594e-05
1.84006e-05
1.87486e-05
1.26557e-05
1.35554e-05
1.97173e-05
2.42543e-05
1.58477e-05
1.3633e-05
1.56834e-05
1.48227e-05
1.07365e-05
1.18843e-05
1.02483e-05
1.91273e-05
1.66904e-05
1.55553e-05
2.48546e-05
2.13377e-05
1.87376e-05
5.14449e-05
5.69666e-05
4.39386e-05
3.05098e-05
2.48581e-05
2.5458e-05
2.57968e-05
2.3592e-05
2.23641e-05
2.18967e-05
2.02971e-05
2.08017e-05
2.20201e-05
2.07479e-05
1.87048e-05
1.68119e-05
1.63568e-05
1.61572e-05
1.82429e-05
2.38145e-05
2.11007e-05
1.18634e-05
1.28158e-05
1.3744e-05
1.22686e-05
1.43105e-05
2.26591e-05
2.0364e-05
1.52144e-05
1.53607e-05
1.71164e-05
1.3503e-05
1.02278e-05
8.28808e-06
1.13508e-05
1.26267e-05
1.99097e-05
2.18923e-05
2.96677e-05
1.39737e-05
3.48078e-05
6.21122e-05
6.14921e-05
4.94243e-05
3.98083e-05
3.42328e-05
3.12867e-05
2.76886e-05
2.55013e-05
2.66616e-05
2.72059e-05
2.49964e-05
2.16306e-05
1.95287e-05
1.95739e-05
1.84588e-05
1.67713e-05
1.63349e-05
1.99514e-05
2.36804e-05
1.77158e-05
8.58181e-06
1.3733e-05
1.66321e-05
1.40386e-05
1.2823e-05
1.89517e-05
2.09567e-05
1.68485e-05
1.40859e-05
1.3222e-05
1.36868e-05
1.57149e-05
1.83538e-05
1.17549e-05
1.76696e-05
1.9919e-05
2.31105e-05
2.56843e-05
2.9474e-05
1.51744e-05
3.62351e-05
6.41531e-05
7.25259e-05
6.63514e-05
5.29363e-05
3.9949e-05
3.1358e-05
2.63866e-05
2.48742e-05
2.60463e-05
2.62374e-05
2.23945e-05
2.01881e-05
2.1786e-05
2.04789e-05
1.56582e-05
1.32281e-05
1.55495e-05
1.62234e-05
1.17256e-05
9.80912e-06
1.65625e-05
2.22461e-05
1.96724e-05
1.49452e-05
1.68775e-05
2.10372e-05
2.03348e-05
1.69234e-05
1.53986e-05
1.56439e-05
1.66171e-05
1.95942e-05
2.06904e-05
1.87522e-05
2.61883e-05
3.0151e-05
2.97414e-05
2.56358e-05
2.40281e-05
2.07239e-05
2.71743e-05
4.93287e-05
6.68375e-05
6.63789e-05
5.10513e-05
3.39312e-05
2.2956e-05
1.96125e-05
2.02371e-05
1.80604e-05
1.30868e-05
1.96603e-05
2.55965e-05
2.28805e-05
1.78537e-05
1.88565e-05
1.88436e-05
1.28747e-05
6.86556e-06
8.99414e-06
1.60344e-05
2.54909e-05
2.93003e-05
2.3846e-05
1.88635e-05
1.80815e-05
2.05964e-05
2.42099e-05
2.42651e-05
1.97234e-05
1.57444e-05
1.38933e-05
1.39217e-05
2.10322e-05
2.55358e-05
2.65332e-05
2.63299e-05
2.36594e-05
1.81238e-05
1.76017e-05
2.60524e-05
2.58365e-05
2.41078e-05
4.31035e-05
5.32233e-05
4.65541e-05
3.36414e-05
2.13999e-05
1.05988e-05
6.23469e-06
1.05647e-05
1.3268e-05
1.58691e-05
2.24409e-05
2.96167e-05
3.19194e-05
2.6812e-05
1.74553e-05
1.38214e-05
1.6858e-05
1.62576e-05
1.58759e-05
2.15858e-05
2.21422e-05
1.85002e-05
1.9205e-05
2.25249e-05
2.99413e-05
3.6494e-05
3.50111e-05
2.64155e-05
1.74041e-05
1.54937e-05
1.64705e-05
1.50597e-05
1.44505e-05
1.7747e-05
2.21546e-05
2.25058e-05
1.89981e-05
1.79833e-05
2.34465e-05
2.60848e-05
2.16226e-05
2.17949e-05
2.71271e-05
2.54919e-05
2.01125e-05
1.84901e-05
1.73288e-05
1.49563e-05
1.72748e-05
2.01487e-05
2.42169e-05
3.26523e-05
3.59491e-05
2.8651e-05
1.48449e-05
1.00802e-05
1.76403e-05
2.27327e-05
2.22678e-05
1.60455e-05
1.19162e-05
1.29358e-05
1.87086e-05
2.61435e-05
3.28878e-05
3.79216e-05
3.89168e-05
3.65318e-05
3.11273e-05
2.23925e-05
2.7087e-05
1.88254e-05
1.50508e-05
1.72124e-05
2.03112e-05
2.13968e-05
1.94633e-05
1.66995e-05
1.63173e-05
1.78711e-05
1.69377e-05
1.5611e-05
1.69239e-05
1.54065e-05
1.12523e-05
1.12025e-05
1.3986e-05
1.55207e-05
1.87784e-05
2.55889e-05
2.95579e-05
2.67045e-05
2.15231e-05
1.70422e-05
8.77331e-06
3.56823e-06
1.37751e-05
2.43594e-05
2.9205e-05
2.63272e-05
2.1282e-05
1.86338e-05
1.82189e-05
2.28942e-05
2.65757e-05
2.63778e-05
2.67802e-05
3.21813e-05
3.66953e-05
3.44552e-05
2.97907e-05
2.87966e-05
2.64649e-05
2.41737e-05
2.14868e-05
1.69929e-05
1.29535e-05
1.39054e-05
1.41072e-05
1.11472e-05
1.29213e-05
1.87465e-05
2.28885e-05
2.29651e-05
1.94334e-05
1.4401e-05
9.55301e-06
9.14201e-06
1.27083e-05
1.49904e-05
1.85266e-05
2.0345e-05
1.56366e-05
1.04108e-05
9.53185e-06
6.27442e-06
9.79521e-06
1.97412e-05
2.68986e-05
2.91544e-05
2.58696e-05
2.14631e-05
2.03306e-05
2.17011e-05
2.1653e-05
1.76549e-05
1.53223e-05
1.83706e-05
2.30439e-05
2.76759e-05
1.2469e-05
1.63841e-05
1.72993e-05
1.50314e-05
1.27434e-05
1.2474e-05
1.16527e-05
9.07597e-06
9.7522e-06
1.36954e-05
1.5341e-05
1.66904e-05
1.92874e-05
2.15622e-05
2.24316e-05
2.2173e-05
2.15877e-05
2.14847e-05
2.35808e-05
2.59059e-05
2.46449e-05
2.03095e-05
1.7035e-05
1.37042e-05
8.5935e-06
6.71677e-06
9.50831e-06
1.03113e-05
1.14914e-05
1.82966e-05
2.26074e-05
2.10272e-05
1.97256e-05
1.99712e-05
1.6975e-05
1.32424e-05
1.13947e-05
7.49215e-06
4.52631e-06
7.98474e-06
1.23397e-05
1.37401e-05
1.20897e-05
1.07982e-05
1.13908e-05
1.11053e-05
1.05497e-05
1.07399e-05
1.11447e-05
1.18059e-05
1.06619e-05
8.1976e-06
1.05091e-05
1.32042e-05
1.2341e-05
1.36536e-05
1.678e-05
1.59228e-05
1.18588e-05
1.01699e-05
1.39146e-05
1.73259e-05
1.61969e-05
1.25324e-05
1.14687e-05
1.11256e-05
1.41986e-05
2.18296e-05
2.68317e-05
2.65151e-05
2.31485e-05
1.82852e-05
1.36913e-05
1.24221e-05
1.35591e-05
1.54825e-05
1.64292e-05
1.51626e-05
1.17668e-05
9.9882e-06
6.34448e-06
7.16615e-06
7.15295e-06
8.51095e-06
1.47817e-05
1.79847e-05
1.80278e-05
1.68713e-05
1.62965e-05
1.84937e-05
2.13348e-05
2.29653e-05
2.43193e-05
2.46157e-05
2.182e-05
1.63867e-05
1.25889e-05
1.41492e-05
1.49485e-05
1.16056e-05
1.00182e-05
1.49107e-05
1.75163e-05
1.7838e-05
1.88667e-05
1.77286e-05
1.80783e-05
2.67377e-05
3.25799e-05
2.89262e-05
2.26356e-05
2.00442e-05
1.79022e-05
1.72332e-05
1.97564e-05
2.35579e-05
2.52364e-05
2.34344e-05
1.98354e-05
1.33419e-05
4.34e-05
4.4381e-05
4.64357e-05
4.97852e-05
5.41344e-05
5.86567e-05
6.25913e-05
6.55838e-05
6.76016e-05
6.88701e-05
6.97619e-05
7.04456e-05
7.05765e-05
6.98149e-05
6.86255e-05
6.7952e-05
6.79669e-05
6.80952e-05
6.80526e-05
6.78943e-05
6.77806e-05
6.81086e-05
6.88534e-05
6.93495e-05
6.96413e-05
7.05243e-05
7.22829e-05
7.54003e-05
7.98109e-05
8.36491e-05
8.52351e-05
8.48811e-05
8.34204e-05
8.06175e-05
7.50726e-05
6.62676e-05
5.65321e-05
4.9202e-05
4.49845e-05
4.33368e-05
4.26687e-05
4.32479e-05
4.52246e-05
4.85453e-05
5.28561e-05
5.75956e-05
6.21747e-05
6.61354e-05
6.92443e-05
7.15095e-05
7.30867e-05
7.39237e-05
7.39106e-05
7.32036e-05
7.24946e-05
7.23308e-05
7.23673e-05
7.19466e-05
7.10648e-05
7.01096e-05
6.95134e-05
6.95238e-05
6.97447e-05
6.95901e-05
6.94131e-05
7.02668e-05
7.27448e-05
7.70098e-05
8.22966e-05
8.65546e-05
8.85564e-05
8.86479e-05
8.7316e-05
8.48825e-05
8.07873e-05
7.37836e-05
6.37104e-05
5.34868e-05
4.66028e-05
4.35086e-05
4.08152e-05
4.04191e-05
4.18453e-05
4.4989e-05
4.9431e-05
5.47224e-05
6.01933e-05
6.52481e-05
6.95028e-05
7.28591e-05
7.52334e-05
7.65409e-05
7.69457e-05
7.68265e-05
7.67592e-05
7.70025e-05
7.70526e-05
7.62081e-05
7.45232e-05
7.2481e-05
7.06573e-05
6.94682e-05
6.86707e-05
6.7769e-05
6.69739e-05
6.73182e-05
6.96663e-05
7.4176e-05
8.00507e-05
8.52913e-05
8.87462e-05
9.02234e-05
8.97463e-05
8.83512e-05
8.67794e-05
8.32705e-05
7.45107e-05
6.1347e-05
4.98086e-05
4.33659e-05
3.89304e-05
3.67472e-05
3.7219e-05
4.00662e-05
4.4646e-05
5.04028e-05
5.66325e-05
6.26457e-05
6.79547e-05
7.23953e-05
7.57127e-05
7.77884e-05
7.89487e-05
7.97102e-05
8.05141e-05
8.14665e-05
8.18942e-05
8.10584e-05
7.89245e-05
7.57871e-05
7.21277e-05
6.87263e-05
6.59652e-05
6.36981e-05
6.18596e-05
6.11922e-05
6.25828e-05
6.64982e-05
7.24225e-05
7.85492e-05
8.39355e-05
8.78399e-05
8.90333e-05
8.86137e-05
8.93368e-05
9.03924e-05
8.60155e-05
7.28176e-05
5.64288e-05
4.46024e-05
3.91921e-05
3.37339e-05
3.22133e-05
3.41349e-05
3.8488e-05
4.42946e-05
5.08341e-05
5.73446e-05
6.32616e-05
6.84315e-05
7.26734e-05
7.57866e-05
7.79486e-05
7.96561e-05
8.13912e-05
8.32935e-05
8.46562e-05
8.46789e-05
8.31276e-05
7.98023e-05
7.4594e-05
6.83713e-05
6.24172e-05
5.75187e-05
5.37517e-05
5.1472e-05
5.124e-05
5.38275e-05
5.90399e-05
6.50264e-05
7.14102e-05
7.85344e-05
8.28916e-05
8.33595e-05
8.50034e-05
9.03964e-05
9.33832e-05
8.5599e-05
6.79589e-05
5.01431e-05
4.43754e-05
3.38412e-05
2.85565e-05
2.82622e-05
3.17991e-05
3.70279e-05
4.28256e-05
4.88068e-05
5.43276e-05
5.92941e-05
6.39082e-05
6.81101e-05
7.15538e-05
7.41885e-05
7.65149e-05
7.88937e-05
8.11281e-05
8.27543e-05
8.34706e-05
8.21502e-05
7.72976e-05
6.92059e-05
5.97318e-05
5.08768e-05
4.3933e-05
3.95453e-05
3.81124e-05
4.00267e-05
4.46846e-05
4.94288e-05
5.27001e-05
6.02428e-05
6.94583e-05
7.1645e-05
7.17467e-05
7.90169e-05
9.0529e-05
9.37538e-05
8.21417e-05
6.18484e-05
5.62385e-05
3.96371e-05
2.92262e-05
2.44524e-05
2.62561e-05
3.12364e-05
3.57532e-05
3.93378e-05
4.23066e-05
4.46036e-05
4.7311e-05
5.16559e-05
5.66867e-05
6.07643e-05
6.33611e-05
6.48362e-05
6.62141e-05
6.88108e-05
7.30135e-05
7.66968e-05
7.60343e-05
6.93294e-05
5.85381e-05
4.66683e-05
3.68875e-05
3.09963e-05
2.89044e-05
3.08118e-05
3.555e-05
3.96631e-05
4.06741e-05
4.04557e-05
4.95314e-05
5.52408e-05
5.11212e-05
5.41352e-05
7.15153e-05
8.88628e-05
9.14855e-05
7.74003e-05
7.31232e-05
5.22536e-05
3.66946e-05
2.64662e-05
2.2242e-05
2.64441e-05
3.22013e-05
3.43485e-05
3.37458e-05
3.20045e-05
2.98713e-05
3.0064e-05
3.31876e-05
3.77727e-05
4.10011e-05
3.96159e-05
3.47728e-05
3.33336e-05
4.01395e-05
5.34086e-05
6.31036e-05
6.31655e-05
5.56749e-05
4.50857e-05
3.57923e-05
3.03435e-05
2.87215e-05
3.13422e-05
3.60853e-05
3.86198e-05
3.67854e-05
3.3332e-05
3.32395e-05
3.95067e-05
3.38431e-05
2.33744e-05
3.38196e-05
6.24516e-05
8.48858e-05
8.81775e-05
8.56078e-05
6.97435e-05
4.98907e-05
3.67703e-05
2.62744e-05
2.03346e-05
2.68982e-05
3.32503e-05
3.27071e-05
2.81251e-05
2.35541e-05
2.05936e-05
2.09144e-05
2.08757e-05
1.98559e-05
1.66934e-05
1.58166e-05
2.33651e-05
2.60703e-05
2.03129e-05
3.16489e-05
4.47508e-05
4.6481e-05
4.16944e-05
3.60477e-05
3.35532e-05
3.47362e-05
3.68362e-05
3.79723e-05
3.67627e-05
3.99759e-05
3.31385e-05
2.67426e-05
2.64909e-05
2.95637e-05
1.44291e-05
1.4143e-05
2.01947e-05
5.27185e-05
8.05139e-05
7.74028e-05
8.22975e-05
6.51879e-05
4.90601e-05
3.97636e-05
2.67677e-05
1.78873e-05
2.86944e-05
3.54969e-05
3.22741e-05
2.5308e-05
1.9961e-05
1.75686e-05
1.944e-05
1.95341e-05
1.8808e-05
2.00155e-05
2.2923e-05
3.11604e-05
3.51413e-05
2.20991e-05
2.02317e-05
3.20373e-05
3.50566e-05
3.30483e-05
3.20923e-05
3.48555e-05
3.75334e-05
3.54255e-05
2.94511e-05
2.50978e-05
3.48237e-05
2.09136e-05
2.2183e-05
1.9351e-05
2.60569e-05
6.55151e-06
2.28549e-05
1.65058e-05
4.41959e-05
4.10576e-05
7.38889e-05
7.50496e-05
5.89924e-05
4.95958e-05
4.2125e-05
2.45365e-05
1.77861e-05
3.19411e-05
3.72246e-05
3.3048e-05
2.57656e-05
1.83073e-05
1.51148e-05
1.97886e-05
2.19686e-05
1.62499e-05
8.16097e-06
6.98814e-06
1.99368e-05
2.68455e-05
1.45194e-05
1.89116e-05
2.94416e-05
3.10586e-05
3.03818e-05
3.01205e-05
2.88947e-05
2.8544e-05
2.3394e-05
1.75405e-05
1.25135e-05
2.22438e-05
1.27201e-05
2.04748e-05
1.43458e-05
2.42606e-05
1.03683e-05
3.02775e-05
1.95522e-05
2.09177e-05
4.28754e-05
6.86673e-05
6.56405e-05
5.26579e-05
4.84769e-05
3.96829e-05