/*--------------------------------*- C++ -*----------------------------------*\
| =========                 |                                                 |
| \\      /  F ield         | OpenFOAM: The Open Source CFD Toolbox           |
|  \\    /   O peration     | Version:  2306                                  |
|   \\  /    A nd           | Website:  www.openfoam.com                      |
|    \\/     M anipulation  |                                                 |
\*---------------------------------------------------------------------------*/
FoamFile
{
    version     2.0;
    format      ascii;
    arch        "LSB;label=32;scalar=64";
    class       volScalarField;
    location    "7.5";
    object      p;
}
// * * * * * * * * * * * * * * * * * * * * * * * * * * * * * * * * * * * * * //

dimensions      [0 2 -2 0 0 0 0];

internalField   nonuniform List<scalar> 
60000
(
-5.89112e-05
-5.34375e-05
-2.7206e-05
-1.08441e-05
-3.39058e-05
-7.89703e-05
-0.000117997
-0.000133574
-0.000140941
-0.000146174
-0.000144201
-0.00013263
-0.0001184
-0.000116479
-0.000123608
-0.000114987
-8.21652e-05
-4.14329e-05
-1.09696e-05
-2.20149e-06
-1.14765e-05
-2.85319e-05
-6.24806e-05
-0.000116887
-0.000184254
-0.000241036
-0.000256973
-0.00020257
-9.50929e-05
-4.72791e-06
2.39664e-05
-4.2978e-06
-5.00914e-05
-7.13807e-05
-4.21731e-05
1.18491e-05
5.21492e-05
5.58369e-05
2.07249e-05
-2.836e-05
-5.7804e-05
-5.25662e-05
-2.60997e-05
-9.34386e-06
-3.26856e-05
-7.8634e-05
-0.000118764
-0.000134528
-0.000141692
-0.000146606
-0.000144496
-0.00013304
-0.000119159
-0.000117275
-0.000124522
-0.000115957
-8.31225e-05
-4.23621e-05
-1.17499e-05
-2.55491e-06
-1.13393e-05
-2.79755e-05
-6.12475e-05
-0.000115812
-0.000183735
-0.000241536
-0.000258737
-0.000205079
-9.75497e-05
-6.42356e-06
2.30658e-05
-4.81967e-06
-5.07224e-05
-7.25827e-05
-4.35601e-05
1.10099e-05
5.21335e-05
5.68077e-05
2.18819e-05
-2.7154e-05
-5.73482e-05
-5.25231e-05
-2.53762e-05
-7.7607e-06
-3.1784e-05
-7.96407e-05
-0.000121957
-0.000137817
-0.000144257
-0.000148137
-0.000145396
-0.000133766
-0.000119793
-0.000117952
-0.000125623
-0.000117545
-8.48218e-05
-4.39293e-05
-1.28071e-05
-2.70214e-06
-1.06559e-05
-2.70899e-05
-5.97741e-05
-0.000114912
-0.000183969
-0.000243176
-0.000261687
-0.000208133
-9.98263e-05
-7.64097e-06
2.24679e-05
-5.56904e-06
-5.21128e-05
-7.50985e-05
-4.63642e-05
9.20611e-06
5.14494e-05
5.71829e-05
2.29279e-05
-2.62891e-05
-5.70988e-05
-5.3239e-05
-2.46093e-05
-5.72157e-06
-3.08529e-05
-8.2188e-05
-0.000128434
-0.000144453
-0.000149691
-0.000151539
-0.000147278
-0.000134893
-0.000120388
-0.00011838
-0.000126695
-0.000119524
-8.71856e-05
-4.62239e-05
-1.41963e-05
-2.54287e-06
-9.15813e-06
-2.52021e-05
-5.78049e-05
-0.000114269
-0.000185166
-0.000246008
-0.000265937
-0.00021157
-0.00010147
-7.78618e-06
2.23238e-05
-7.05552e-06
-5.48373e-05
-7.92572e-05
-5.03842e-05
6.63772e-06
5.0049e-05
5.70048e-05
2.37045e-05
-2.58731e-05
-5.7356e-05
-5.36163e-05
-2.41969e-05
-5.59782e-06
-2.91236e-05
-8.53574e-05
-0.000137786
-0.000154494
-0.000158582
-0.000157481
-0.000150561
-0.000136581
-0.000120898
-0.000118214
-0.000127075
-0.000121115
-8.97071e-05
-4.93322e-05
-1.6403e-05
-2.45182e-06
-6.81292e-06
-2.20408e-05
-5.5099e-05
-0.000113624
-0.000185661
-0.000249972
-0.00027213
-0.000217314
-0.000105385
-8.95962e-06
2.21991e-05
-9.6031e-06
-5.92531e-05
-8.51515e-05
-5.51123e-05
4.0695e-06
4.83347e-05
5.61468e-05
2.40908e-05
-2.56552e-05
-5.80429e-05
-5.58553e-05
-2.42124e-05
-2.19796e-06
-2.59053e-05
-9.0057e-05
-0.000150149
-0.000167179
-0.000170805
-0.000166256
-0.00015555
-0.000139139
-0.000121588
-0.000117453
-0.000126265
-0.000121232
-9.11672e-05
-5.2629e-05
-1.96093e-05
-2.91066e-06
-3.72406e-06
-1.71321e-05
-5.14237e-05
-0.000112558
-0.000187354
-0.000255191
-0.00028127
-0.000228456
-0.000115054
-1.61071e-05
1.69038e-05
-1.48205e-05
-6.5607e-05
-9.28931e-05
-6.03405e-05
2.41597e-06
4.73568e-05
5.51172e-05
2.43487e-05
-2.5213e-05
-5.88383e-05
-6.13018e-05
-2.79159e-05
2.15301e-06
-1.7911e-05
-9.25077e-05
-0.000170021
-0.000185181
-0.000187098
-0.000177948
-0.000161964
-0.000142379
-0.000122976
-0.000116816
-0.000124488
-0.000119532
-9.03985e-05
-5.47547e-05
-2.31902e-05
-4.08809e-06
-8.6789e-08
-9.97874e-06
-4.51852e-05
-0.000110279
-0.000189401
-0.000261524
-0.000293079
-0.000243576
-0.000126678
-2.60605e-05
8.12328e-06
-2.78497e-05
-7.67839e-05
-0.000103608
-6.65634e-05
1.5758e-06
4.7863e-05
5.4711e-05
2.49108e-05
-2.37559e-05
-5.78026e-05
-6.83532e-05
-3.82157e-05
2.35522e-06
-4.87305e-06
-8.44925e-05
-0.000176921
-0.000210619
-0.000212492
-0.000193906
-0.000170068
-0.000145442
-0.000124137
-0.000117394
-0.000124056
-0.000116985
-8.75916e-05
-5.43873e-05
-2.55397e-05
-5.42009e-06
3.80693e-06
-4.56363e-07
-3.61271e-05
-0.00010647
-0.000189813
-0.000264773
-0.000297983
-0.000249831
-0.000129082
-2.46052e-05
1.86481e-06
-4.09679e-05
-9.45423e-05
-0.000120983
-7.73161e-05
-2.42303e-06
4.75081e-05
5.69014e-05
2.89249e-05
-1.90073e-05
-4.88627e-05
-6.95788e-05
-4.95721e-05
-2.7635e-06
1.025e-05
-6.77816e-05
-0.000176048
-0.000236709
-0.000246747
-0.000220186
-0.000184769
-0.000151499
-0.000125556
-0.000117389
-0.000126095
-0.000119318
-8.71969e-05
-5.05172e-05
-2.42019e-05
-4.72043e-06
7.9983e-06
1.04516e-05
-2.49122e-05
-0.00010181
-0.000187921
-0.000265063
-0.000292024
-0.000235877
-0.000108255
-5.73641e-07
1.61352e-05
-4.19776e-05
-0.000113182
-0.000148009
-9.50639e-05
-9.32205e-06
4.30915e-05
4.92245e-05
2.88895e-05
-1.18381e-05
-3.72169e-05
-5.98242e-05
-5.30581e-05
-9.08744e-06
2.7829e-05
-4.03375e-05
-0.000164191
-0.000253501
-0.00028385
-0.000256578
-0.00020543
-0.000160096
-0.000130529
-0.000120214
-0.000127474
-0.000122816
-9.36024e-05
-5.66139e-05
-2.29469e-05
1.01109e-06
1.43012e-05
2.08918e-05
-1.41263e-05
-9.74971e-05
-0.000185076
-0.000266223
-0.000282047
-0.000209159
-6.7011e-05
4.87857e-05
5.47216e-05
-2.73101e-05
-0.000128197
-0.000181732
-0.000120641
-2.21431e-05
3.59601e-05
4.11928e-05
2.37694e-05
-9.55793e-06
-2.08711e-05
-3.57121e-05
-4.36277e-05
-1.71746e-05
4.41391e-05
-1.55383e-06
-0.000133066
-0.000252134
-0.000313002
-0.000295337
-0.000236859
-0.000172227
-0.000134235
-0.000123328
-0.000130779
-0.000126154
-0.000100078
-6.88481e-05
-3.80108e-05
-6.34232e-06
1.89149e-05
2.90609e-05
-8.92758e-06
-9.51431e-05
-0.00019873
-0.000271328
-0.000277865
-0.000190083
-3.17901e-05
0.000101747
0.000112594
6.82476e-06
-0.00012943
-0.000203397
-0.000151102
-4.4795e-05
1.86357e-05
2.6623e-05
1.76199e-05
-5.35598e-06
3.74168e-06
4.69911e-06
-1.2256e-05
-2.62225e-05
5.1941e-05
3.61279e-05
-8.25118e-05
-0.000222365
-0.000318049
-0.00033691
-0.000276489
-0.000193212
-0.000139248
-0.000123382
-0.000130933
-0.000128357
-0.000105217
-7.88517e-05
-5.40855e-05
-2.94442e-05
-2.0699e-06
2.22819e-05
-1.53708e-05
-9.48279e-05
-0.000205412
-0.000268579
-0.000270577
-0.00018421
-3.26696e-05
0.000122851
0.000162905
6.06552e-05
-0.000102075
-0.000204471
-0.000177491
-7.15694e-05
-7.06201e-06
1.09863e-05
5.80237e-06
-6.20662e-07
1.83309e-05
4.17818e-05
2.7468e-05
-6.92893e-06
4.89684e-05
5.97683e-05
-2.83052e-05
-0.000168265
-0.000290075
-0.000350773
-0.000319353
-0.000222935
-0.000148594
-0.00012211
-0.000128563
-0.000129883
-0.000107689
-8.56242e-05
-6.41907e-05
-4.49204e-05
-3.12913e-05
-2.89553e-05
-4.53054e-05
-0.00010052
-0.000188903
-0.000247631
-0.000241094
-0.000174187
-5.20274e-05
8.61435e-05
0.000179033
0.000113854
-4.42392e-05
-0.00016984
-0.000176106
-9.34629e-05
-3.30721e-05
-7.1721e-06
-1.45972e-06
-6.92536e-06
1.77546e-05
5.91132e-05
5.47653e-05
2.36598e-05
3.52846e-05
6.63286e-05
1.81355e-05
-0.000103619
-0.000235975
-0.000331308
-0.000339157
-0.00025225
-0.000157858
-0.000121697
-0.000124941
-0.000133497
-0.000113236
-8.3476e-05
-6.81338e-05
-4.89859e-05
-4.51153e-05
-6.11733e-05
-8.10172e-05
-0.000106645
-0.000167391
-0.00021937
-0.000219452
-0.000161139
-6.81591e-05
4.23001e-05
0.000164106
0.000138104
2.06626e-05
-0.000104172
-0.000140339
-0.00010561
-5.59025e-05
-2.63927e-05
-1.19535e-05
-1.02284e-05
1.13576e-05
5.65814e-05
6.61613e-05
2.69624e-05
1.96977e-05
6.10327e-05
5.2315e-05
-4.20548e-05
-0.000169433
-0.000283694
-0.000328278
-0.000266497
-0.000167767
-0.000118551
-0.000123945
-0.00013716
-0.000124704
-9.43403e-05
-7.02628e-05
-4.72545e-05
-4.30158e-05
-6.64426e-05
-8.88632e-05
-0.000104091
-0.00014583
-0.000186231
-0.000196718
-0.000145759
-7.92032e-05
-4.09841e-07
0.000105555
0.000131594
6.06991e-05
-3.98576e-05
-9.27077e-05
-0.000100397
-7.26399e-05
-4.40645e-05
-2.5962e-05
-1.79049e-05
8.73524e-06
5.10408e-05
5.50205e-05
2.51107e-05
1.74003e-05
4.3771e-05
6.53402e-05
2.96477e-06
-0.000107872
-0.000221882
-0.000286781
-0.000257725
-0.000173002
-0.000121482
-0.000119388
-0.000138279
-0.00013209
-0.000105239
-7.65048e-05
-5.1133e-05
-4.21622e-05
-6.15925e-05
-8.72832e-05
-9.66265e-05
-0.000123069
-0.000157392
-0.000171937
-0.000121709
-7.36755e-05
-3.67224e-05
4.97912e-05
0.000100389
7.04768e-05
-5.61239e-07
-5.69969e-05
-8.64054e-05
-8.22561e-05
-6.67084e-05
-4.492e-05
-2.66423e-05
3.25617e-06
3.24234e-05
4.83283e-05
1.90472e-05
5.56386e-06
1.35241e-05
5.15918e-05
1.61882e-05
-6.25655e-05
-0.000156746
-0.00022654
-0.00022688
-0.000167654
-0.000120579
-0.000124335
-0.000139343
-0.000136784
-0.000112278
-8.06693e-05
-5.48702e-05
-5.07158e-05
-6.81692e-05
-9.27122e-05
-9.75743e-05
-0.000100708
-0.000123485
-0.000149217
-0.000103446
-5.98584e-05
-4.18565e-05
9.83605e-06
5.95983e-05
6.6194e-05
2.10935e-05
-3.13846e-05
-7.44541e-05
-8.76487e-05
-7.95381e-05
-7.17248e-05
-3.87864e-05
4.92938e-06
5.03898e-05
5.16683e-05
1.83431e-05
-5.50812e-06
-1.24564e-06
1.93159e-05
2.41236e-06
-4.31761e-05
-9.29748e-05
-0.000147171
-0.000174848
-0.000158128
-0.000127341
-0.000124539
-0.000125911
-0.000135204
-0.000114414
-8.9096e-05
-5.99867e-05
-5.11474e-05
-6.30464e-05
-9.64617e-05
-0.000102941
-9.15885e-05
-0.000103954
-0.000129869
-9.97604e-05
-4.84453e-05
-3.06854e-05
-1.12941e-05
2.68787e-05
4.38501e-05
2.22504e-05
-2.29265e-05
-7.18043e-05
-9.53059e-05
-8.74436e-05
-6.05978e-05
-3.11274e-05
1.51379e-05
5.18231e-05
5.31519e-05
1.15479e-05
-2.84839e-05
-2.84874e-05
-9.60366e-06
-7.35485e-06
-4.96651e-05
-7.4904e-05
-8.40798e-05
-0.000101832
-0.000117854
-0.000135468
-0.000134845
-0.000139186
-0.00013728
-0.000123191
-0.000110882
-8.587e-05
-6.07631e-05
-6.20356e-05
-7.8435e-05
-8.99684e-05
-7.65575e-05
-7.111e-05
-9.69497e-05
-8.90974e-05
-4.59957e-05
-2.70988e-05
-2.35344e-05
1.0408e-05
4.36827e-05
2.34581e-05
-3.77122e-05
-9.0777e-05
-0.000100219
-8.10032e-05
-5.35046e-05
-2.25576e-05
6.21369e-06
3.03475e-05
2.92531e-05
-2.61115e-06
-3.85068e-05
-4.9205e-05
-4.77893e-05
-2.95031e-05
-4.76886e-05
-6.61502e-05
-7.42787e-05
-8.65439e-05
-9.75993e-05
-9.81924e-05
-0.000114793
-0.0001258
-0.000128703
-0.000122422
-0.000127465
-0.000132108
-0.000123406
-0.000104937
-9.56588e-05
-8.45566e-05
-6.41592e-05
-5.31567e-05
-6.31895e-05
-7.31661e-05
-6.45954e-05
-6.97836e-05
-4.20843e-05
-7.28726e-06
6.27523e-05
2.93802e-05
-3.925e-05
-9.67591e-05
-0.000108673
-8.85223e-05
-5.84423e-05
-2.54584e-05
-2.82457e-06
3.11709e-05
3.08302e-05
5.96688e-06
-3.00196e-05
-4.19136e-05
-6.20825e-05
-9.3289e-05
-0.000107868
-0.000110151
-9.41423e-05
-7.55634e-05
-7.84206e-05
-9.4808e-05
-0.000117683
-0.000129282
-0.000126312
-0.000121826
-0.000132341
-0.000141337
-0.000157437
-0.000134924
-0.000126108
-0.000102403
-6.76567e-05
-4.23115e-05
-4.57893e-05
-6.74747e-05
-8.46898e-05
-6.59567e-05
-4.44792e-05
-3.18125e-06
2.336e-05
3.14412e-05
-4.01193e-05
-0.000119922
-0.000168329
-0.000155254
-0.000106781
-5.01089e-05
-1.34858e-05
2.49942e-05
1.97756e-05
2.09154e-05
-3.32026e-05
-2.27296e-05
-1.90101e-05
-4.23304e-05
-7.8553e-05
-0.000106696
-0.000115238
-8.95617e-05
-7.47167e-05
-8.73909e-05
-0.000114529
-0.000129465
-0.000127884
-0.000124593
-0.000130723
-0.000137282
-0.000145091
-0.000144641
-0.000143953
-0.000117075
-7.70005e-05
-4.14137e-05
-3.12381e-05
-5.06625e-05
-7.78922e-05
-8.27451e-05
-5.52653e-05
-8.37133e-06
5.2575e-05
6.0536e-05
-2.01815e-05
-0.000125755
-0.000199313
-0.000212921
-0.000165543
-8.74311e-05
-5.35049e-05
-5.24249e-06
6.54106e-06
-9.78893e-06
-3.22791e-05
-4.51889e-05
-3.03163e-05
-3.0571e-05
-3.99251e-05
-5.95181e-05
-7.42508e-05
-8.94462e-05
-9.67191e-05
-0.000109255
-0.000123358
-0.000125103
-0.000120977
-0.000122144
-0.000126966
-0.000123013
-0.00011495
-0.000108218
-0.000112393
-0.000107572
-7.81737e-05
-4.43161e-05
-2.78179e-05
-3.9167e-05
-5.95646e-05
-6.6216e-05
-5.62563e-05
-3.10617e-05
1.94609e-05
6.31688e-05
3.18535e-07
-8.44233e-05
-0.000151839
-0.000177198
-0.000161275
-0.000114807
-8.48178e-05
-3.94507e-05
-2.0142e-05
-2.39283e-05
-1.32215e-05
-2.67716e-05
-1.84303e-05
-2.69014e-05
-5.58586e-05
-8.87472e-05
-0.000115905
-0.000133584
-0.000131262
-0.000125247
-0.000115893
-9.98722e-05
-8.76624e-05
-9.10545e-05
-0.000106061
-0.000124762
-0.000127745
-0.000120198
-0.000104768
-8.29042e-05
-6.70083e-05
-3.6207e-05
-1.8397e-05
-2.09584e-05
-4.14076e-05
-6.71699e-05
-8.48035e-05
-7.73369e-05
-4.35244e-05
-2.98637e-05
-2.03113e-05
-6.48668e-05
-0.00011794
-0.000152538
-0.00015698
-0.000131733
-0.000107072
-6.83128e-05
-4.40969e-05
-3.95591e-05
-5.28977e-05
-3.1099e-05
-2.46902e-05
-3.14673e-05
-5.48227e-05
-8.94768e-05
-0.000123506
-0.000148366
-0.00015136
-0.000148294
-0.000137744
-0.000116029
-9.68234e-05
-9.78465e-05
-0.000114597
-0.000124703
-0.000109782
-9.33582e-05
-9.0585e-05
-7.69396e-05
-4.04344e-05
-3.87811e-06
1.36306e-05
1.36568e-06
-3.86569e-05
-8.67853e-05
-0.000123034
-0.000124723
-0.00010157
-8.13875e-05
-5.01866e-05
-6.03633e-05
-9.29945e-05
-0.00012606
-0.000150034
-0.000139131
-2.01299e-05
-3.7315e-08
4.66275e-05
6.84147e-05
3.2392e-05
-4.4692e-05
-0.000127778
-0.000188491
-0.00021901
-0.000222709
-0.000204887
-0.000179267
-0.000162174
-0.000161584
-0.000165427
-0.000150321
-0.000110609
-6.2955e-05
-2.94821e-05
-2.3635e-05
-3.95401e-05
-5.42095e-05
-6.27949e-05
-8.98439e-05
-0.000148181
-0.000219607
-0.000260853
-0.000217876
-8.35362e-05
5.01221e-05
9.34384e-05
7.25796e-05
5.94605e-05
5.52817e-05
5.63701e-05
7.81627e-05
0.000111662
0.000119463
7.64028e-05
1.26055e-05
-1.99947e-05
2.70138e-07
4.74466e-05
7.0381e-05
3.52299e-05
-4.16823e-05
-0.000125313
-0.000186966
-0.000218393
-0.000222767
-0.000205246
-0.000179669
-0.000162614
-0.000162212
-0.00016636
-0.000151517
-0.000111861
-6.41332e-05
-3.03574e-05
-2.41024e-05
-3.98012e-05
-5.43347e-05
-6.26712e-05
-8.94753e-05
-0.000147717
-0.000219799
-0.000262655
-0.000221664
-8.83898e-05
4.61285e-05
9.0315e-05
6.96314e-05
5.66325e-05
5.29082e-05
5.38589e-05
7.54098e-05
0.000109497
0.000118627
7.66323e-05
1.29797e-05
-2.00279e-05
9.92028e-07
4.92995e-05
7.38794e-05
3.8899e-05
-3.90762e-05
-0.000124744
-0.000188169
-0.000220361
-0.000224843
-0.000206932
-0.000180822
-0.000163484
-0.00016324
-0.000167953
-0.000153506
-0.000113925
-6.5909e-05
-3.14431e-05
-2.446e-05
-3.99488e-05
-5.41271e-05
-6.24572e-05
-8.8911e-05
-0.000147162
-0.000220386
-0.000265126
-0.000226137
-9.30307e-05
4.36143e-05
8.85397e-05
6.68268e-05
5.36236e-05
5.08538e-05
5.16449e-05
7.24043e-05
0.000106818
0.000117763
7.73709e-05
1.35591e-05
-2.05317e-05
2.03081e-06
5.22572e-05
7.91594e-05
4.30844e-05
-3.80749e-05
-0.000127857
-0.000193949
-0.000226313
-0.000229778
-0.000210332
-0.000182782
-0.000164633
-0.000164561
-0.000170037
-0.000156161
-0.000116672
-6.8163e-05
-3.25746e-05
-2.4443e-05
-3.96991e-05
-5.37426e-05
-6.19591e-05
-8.81562e-05
-0.000146536
-0.000221396
-0.00026798
-0.0002305
-9.61933e-05
4.39418e-05
8.90334e-05
6.45085e-05
5.02904e-05
4.89552e-05
4.98526e-05
6.96328e-05
0.000103988
0.000116672
7.8078e-05
1.38902e-05
-2.25728e-05
2.56478e-06
5.74727e-05
8.66259e-05
4.81723e-05
-3.8655e-05
-0.000135195
-0.000205153
-0.000236878
-0.000237857
-0.000215557
-0.000185596
-0.000166001
-0.000165671
-0.000172016
-0.000158804
-0.000119593
-7.07269e-05
-3.38887e-05
-2.41704e-05
-3.8991e-05
-5.29693e-05
-6.12019e-05
-8.73037e-05
-0.000146376
-0.000222884
-0.000271705
-0.000236102
-0.000100143
4.48975e-05
9.09897e-05
6.23112e-05
4.6192e-05
4.6645e-05
4.82982e-05
6.76565e-05
0.000101613
0.000115211
7.78463e-05
1.2817e-05
-2.77101e-05
5.60987e-07
6.37273e-05
9.15986e-05
5.57349e-05
-3.89871e-05
-0.000145779
-0.000221864
-0.000252347
-0.000249231
-0.000222728
-0.000189483
-0.00016778
-0.000166568
-0.000173433
-0.000160428
-0.000121541
-7.2801e-05
-3.52446e-05
-2.39273e-05
-3.80488e-05
-5.17582e-05
-5.98821e-05
-8.61027e-05
-0.000146225
-0.000225257
-0.000278712
-0.000248329
-0.00011223
3.83842e-05
8.83848e-05
5.6874e-05
3.99301e-05
4.30074e-05
4.6141e-05
6.64437e-05
0.000100254
0.000113644
7.65687e-05
9.77854e-06
-3.52977e-05
-5.84784e-06
6.91782e-05
0.000109283
7.11123e-05
-3.37207e-05
-0.000155679
-0.000242829
-0.000272623
-0.000264144
-0.000231963
-0.000194594
-0.000170235
-0.000167476
-0.00017442
-0.000160986
-0.000121686
-7.28871e-05
-3.55188e-05
-2.3465e-05
-3.72657e-05
-5.0448e-05
-5.79217e-05
-8.42734e-05
-0.00014606
-0.000229373
-0.000290942
-0.000271312
-0.000138627
1.94813e-05
7.45136e-05
4.11233e-05
2.53117e-05
3.46857e-05
4.03933e-05
6.37331e-05
9.90933e-05
0.000111911
7.49256e-05
5.77291e-06
-4.00656e-05
-1.42353e-05
7.22521e-05
0.00013063
9.90181e-05
-1.4547e-05
-0.000154262
-0.000262636
-0.00029636
-0.000283523
-0.000244372
-0.000201376
-0.000172902
-0.000170331
-0.000175593
-0.00016235
-0.000121447
-7.07365e-05
-3.28636e-05
-2.1157e-05
-3.62255e-05
-4.95471e-05
-5.57529e-05
-8.21583e-05
-0.000146223
-0.000233836
-0.000306086
-0.000298133
-0.00017347
-9.67467e-06
5.57053e-05
1.72845e-05
-1.24637e-06
1.72618e-05
2.75693e-05
5.32852e-05
9.22009e-05
0.000107838
7.39665e-05
5.2316e-06
-3.10555e-05
-1.59211e-05
7.4161e-05
0.000153314
0.000138109
2.14753e-05
-0.000135924
-0.000263272
-0.000318985
-0.000307482
-0.0002615
-0.000211835
-0.000177607
-0.000170231
-0.00017492
-0.00016335
-0.000124973
-7.26216e-05
-2.99671e-05
-1.5641e-05
-3.28608e-05
-4.87355e-05
-5.42345e-05
-8.06523e-05
-0.00014748
-0.000238723
-0.000313042
-0.000306756
-0.000191302
-3.54821e-05
3.66659e-05
-3.45803e-06
-3.46369e-05
-1.0346e-05
7.98386e-06
3.82549e-05
7.66406e-05
9.27508e-05
6.84967e-05
1.34079e-05
-1.30444e-05
-4.27166e-06
7.68955e-05
0.000170986
0.00018295
7.53609e-05
-9.76651e-05
-0.000249853
-0.000330538
-0.000335109
-0.000284979
-0.000225297
-0.000184052
-0.000172188
-0.000174792
-0.000162633
-0.000128116
-7.96918e-05
-3.65843e-05
-1.52672e-05
-2.83395e-05
-4.72337e-05
-5.40665e-05
-8.05745e-05
-0.000150409
-0.000245645
-0.000316159
-0.000297753
-0.000181721
-3.8075e-05
2.46892e-05
-1.74969e-05
-6.3875e-05
-4.58303e-05
-2.42288e-05
1.83032e-05
6.41231e-05
8.04895e-05
5.84508e-05
1.82402e-05
8.94967e-06
1.38392e-05
7.74118e-05
0.000173141
0.000216988
0.000138227
-3.81952e-05
-0.000216381
-0.000328357
-0.000359637
-0.0003149
-0.000242448
-0.000189751
-0.000173013
-0.000175139
-0.000162588
-0.000130565
-8.65272e-05
-4.54628e-05
-2.3439e-05
-3.27089e-05
-4.98769e-05
-5.8126e-05
-8.44135e-05
-0.000155472
-0.000253424
-0.000317463
-0.000279788
-0.000160191
-2.43977e-05
3.00624e-05
-2.02428e-05
-8.16657e-05
-8.53465e-05
-6.51037e-05
-1.1308e-05
4.77108e-05
7.47165e-05
5.91952e-05
2.79766e-05
3.1478e-05
3.65202e-05
7.26931e-05
0.000155995
0.000223975
0.000188623
3.33343e-05
-0.000159451
-0.000301696
-0.000366019
-0.000347737
-0.000265529
-0.000197111
-0.000171886
-0.000174213
-0.000162797
-0.0001338
-9.42038e-05
-5.62167e-05
-3.54043e-05
-4.55591e-05
-6.45386e-05
-7.20944e-05
-9.36229e-05
-0.00016113
-0.000256764
-0.000321744
-0.000267823
-0.000145523
-2.14219e-05
4.10783e-05
-6.37951e-06
-7.83246e-05
-0.000105929
-0.000100305
-4.43563e-05
1.97954e-05
5.85068e-05
5.58297e-05
3.51265e-05
4.77853e-05
5.57046e-05
7.09732e-05
0.000137068
0.000209517
0.000209805
9.54305e-05
-9.02748e-05
-0.000248912
-0.00034777
-0.000363836
-0.000294005
-0.000210345
-0.0001725
-0.00017302
-0.00016441
-0.000137272
-0.000101149
-6.856e-05
-5.12075e-05
-6.37399e-05
-8.83105e-05
-9.91353e-05
-0.000111522
-0.000162345
-0.000245114
-0.00032559
-0.000256341
-0.000146048
-3.28765e-05
3.35281e-05
1.30052e-05
-5.57411e-05
-9.84286e-05
-0.00011086
-6.97832e-05
-1.58641e-05
2.73478e-05
3.57094e-05
3.54062e-05
5.66028e-05
6.82894e-05
6.45454e-05
9.50738e-05
0.000176543
0.00020644
0.000134928
-2.7357e-05
-0.000184844
-0.000303225
-0.000359829
-0.000317098
-0.000229204
-0.000175424
-0.00017247
-0.000166381
-0.000144037
-0.000107328
-7.55652e-05
-5.82715e-05
-7.38305e-05
-0.000106053
-0.000120033
-0.000119888
-0.000148633
-0.000217301
-0.000285636
-0.000231815
-0.000139305
-5.31424e-05
9.39548e-06
2.27483e-05
-2.65912e-05
-7.1652e-05
-9.76771e-05
-7.57017e-05
-4.37655e-05
-1.64691e-05
7.96629e-06
2.71581e-05
4.37475e-05
6.82639e-05
5.30745e-05
6.96164e-05
0.000131851
0.000183483
0.000148546
1.60585e-05
-0.000127874
-0.000247083
-0.000332539
-0.000328498
-0.000245968
-0.000182445
-0.000165466
-0.000166867
-0.000154001
-0.000115547
-7.71847e-05
-5.38213e-05
-6.46461e-05
-9.53998e-05
-0.000113246
-0.000110873
-0.000127405
-0.00020256
-0.000248571
-0.00020442
-0.000124458
-6.51895e-05
-1.22684e-05
2.433e-05
-9.94891e-07
-4.15357e-05
-6.29713e-05
-7.20408e-05
-5.96585e-05
-3.98376e-05
-1.38532e-05
9.90156e-06
2.79971e-05
6.81268e-05
6.28156e-05
5.49687e-05
8.78851e-05
0.000138477
0.000136453
4.19654e-05
-8.19144e-05
-0.000190848
-0.000282907
-0.000313072
-0.000255963
-0.000187532
-0.000162027
-0.000166811
-0.000159235
-0.000123824
-7.48813e-05
-4.27176e-05
-5.33745e-05
-8.77745e-05
-0.000106362
-0.000104381
-0.000117287
-0.000185643
-0.000220754
-0.000174111
-0.000103204
-7.21217e-05
-2.92836e-05
1.93001e-05
2.32477e-05
-1.44558e-05
-4.89043e-05
-8.18958e-05
-6.64159e-05
-5.51641e-05
-3.05223e-05
-6.73206e-06
2.33018e-05
6.80246e-05
7.04312e-05
4.26327e-05
4.97557e-05
8.16909e-05
9.34126e-05
3.52335e-05
-5.83111e-05
-0.0001364
-0.000203659
-0.000254804
-0.00024381
-0.000197614
-0.000173644
-0.000173854
-0.000162222
-0.000128231
-7.41267e-05
-3.65511e-05
-4.65421e-05
-7.88955e-05
-0.000100941
-0.000105167
-0.000117962
-0.000162566
-0.000192406
-0.000149687
-8.26814e-05
-6.04012e-05
-2.3916e-05
7.30161e-06
3.29098e-05
9.33446e-06
-3.18086e-05
-6.59796e-05
-7.14668e-05
-6.45798e-05
-4.18089e-05
-1.84383e-05
2.03428e-05
6.23193e-05
7.19177e-05
3.80055e-05
1.76744e-05
3.23233e-05
3.26198e-05
1.68941e-06
-4.78934e-05
-7.52294e-05
-0.000106234
-0.000160507
-0.000199431
-0.000198939
-0.000186685
-0.000196143
-0.000173718
-0.000132444
-6.971e-05
-3.21383e-05
-4.03537e-05
-7.34169e-05
-9.79701e-05
-0.000108478
-0.000113018
-0.000135922
-0.000163798
-0.000131821
-7.8064e-05
-4.93291e-05
-2.62576e-05
7.42716e-06
3.36004e-05
1.59541e-05
-1.98939e-05
-5.28743e-05
-6.79785e-05
-6.80611e-05
-5.00322e-05
-1.62919e-05
1.12983e-05
4.8533e-05
5.67872e-05
2.35494e-05
-1.10056e-05
-1.31764e-05
-3.33588e-06
-1.24946e-05
-5.39822e-05
-6.18248e-05
-3.24889e-05
-4.71956e-05
-0.000108469
-0.000161476
-0.000181111
-0.000183311
-0.000167785
-0.000138245
-0.000104245
-6.9859e-05
-5.59023e-05
-6.47809e-05
-8.57974e-05
-0.000108001
-0.000106492
-0.000106374
-0.000124537
-0.000120715
-6.75154e-05
-5.95663e-05
-2.65309e-05
1.23079e-05
4.1177e-05
1.59669e-05
-3.1243e-05
-6.11832e-05
-6.67692e-05
-6.30243e-05
-5.09016e-05
-2.5281e-05
8.67942e-06
2.29388e-05
2.36782e-05
1.0567e-06
-2.42085e-05
-3.91749e-05
-4.24285e-05
-3.20812e-05
-3.86728e-05
-3.97894e-05
-3.25577e-05
-4.33683e-05
-6.88854e-05
-0.000103383
-0.000137287
-0.000156035
-0.00015565
-0.000123013
-0.000125347
-0.00011423
-0.000105864
-9.95658e-05
-9.81948e-05
-9.11045e-05
-8.94316e-05
-8.60246e-05
-9.37991e-05
-9.83944e-05
-9.35364e-05
-8.76136e-05
-4.69112e-05
3.24523e-06
4.11421e-05
1.20426e-05
-4.42659e-05
-8.09178e-05
-8.23167e-05
-6.41601e-05
-3.75118e-05
-1.33496e-05
1.51805e-05
2.94552e-05
2.27459e-05
-5.6597e-06
-2.44363e-05
-3.33823e-05
-4.84548e-05
-6.82121e-05
-7.82397e-05
-7.39521e-05
-5.21973e-05
-3.78585e-05
-4.95812e-05
-8.00865e-05
-0.000115112
-0.000136974
-0.000144628
-0.000143014
-0.000150171
-0.000152017
-0.000149316
-0.000137719
-0.000131137
-0.000106587
-8.58189e-05
-8.12443e-05
-8.9181e-05
-0.000100794
-9.91682e-05
-7.75925e-05
-4.11071e-05
9.00635e-06
3.30343e-05
1.01729e-05
-5.60069e-05
-0.000114851
-0.000125063
-0.000103674
-5.84038e-05
-1.4226e-05
9.93747e-06
2.99558e-05
1.47089e-05
-3.43543e-05
-3.75598e-05
-1.48446e-05
-1.14275e-05
-2.84138e-05
-5.54318e-05
-7.28094e-05
-6.87029e-05
-5.74846e-05
-4.95243e-05
-6.98723e-05
-0.000105421
-0.000131573
-0.000140408
-0.000137858
-0.000142663
-0.000150006
-0.00015982
-0.000169034
-0.000187222
-0.000156836
-0.000119756
-8.8176e-05
-7.49019e-05
-7.8052e-05
-8.18069e-05
-6.72781e-05
-4.42257e-05
-2.43065e-06
3.06862e-05
2.54621e-05
-3.9021e-05
-0.000110077
-0.000148889
-0.000142125
-0.000102772
-4.26955e-05
-3.3916e-05
1.0919e-06
4.70214e-06
-1.67534e-05
-3.45652e-05
-4.38856e-05
-2.56981e-05
-2.73152e-05
-3.85956e-05
-5.20519e-05
-5.85349e-05
-5.32358e-05
-5.60516e-05
-7.77884e-05
-0.000107904
-0.000125682
-0.000128782
-0.00012693
-0.000119354
-0.000112787
-0.000109159
-0.000114092
-0.000130162
-0.000133833
-0.000115061
-8.04217e-05
-6.86368e-05
-7.94045e-05
-8.9977e-05
-8.10631e-05
-5.75844e-05
-3.09267e-05
-2.31881e-06
1.40155e-05
-2.3317e-05
-7.88692e-05
-0.00012554
-0.000139846
-0.000124176
-8.28447e-05
-6.54394e-05
-2.87739e-05
-1.61468e-05
-2.40332e-05
-2.90912e-05
-3.08372e-05
-1.91696e-05
-2.23899e-05
-4.20016e-05
-6.62175e-05
-8.76135e-05
-0.000103503
-0.000103193
-0.000109388
-0.000115321
-0.000109689
-9.86219e-05
-9.8139e-05
-0.000108954
-0.000120023
-0.00012153
-0.000112325
-0.000103108
-9.36618e-05
-8.02038e-05
-5.72787e-05
-4.64566e-05
-4.88533e-05
-6.0793e-05
-7.3639e-05
-7.77716e-05
-6.75371e-05
-4.5291e-05
-3.26375e-05
-3.57243e-05
-6.96144e-05
-0.000112146
-0.000138664
-0.000135288
-0.000108466
-8.95411e-05
-6.09921e-05
-4.25421e-05
-3.70419e-05
-3.56373e-05
-2.4756e-05
-1.88938e-05
-2.64988e-05
-4.98743e-05
-8.11045e-05
-0.000107948
-0.000131717
-0.000138134
-0.000147294
-0.000144345
-0.000125216
-0.000103547
-9.76557e-05
-0.000106485
-0.000111948
-0.000104981
-9.44058e-05
-9.2156e-05
-8.0801e-05
-5.071e-05
-1.77611e-05
-4.53747e-06
-1.43158e-05
-4.46569e-05
-8.4305e-05
-0.000110716
-0.000107791
-8.86524e-05
-6.3326e-05
-5.25395e-05
-6.01466e-05
-8.66812e-05
-0.000113512
-0.000124533
-0.000118435
7.49321e-05
5.25293e-05
3.41612e-05
2.35306e-05
9.31113e-06
-2.07659e-05
-6.33053e-05
-0.00011138
-0.00015483
-0.000182113
-0.000181811
-0.000162829
-0.000149276
-0.000160905
-0.000179464
-0.000171097
-0.000128237
-7.93918e-05
-4.84699e-05
-4.23494e-05
-5.39655e-05
-6.10926e-05
-6.17124e-05
-8.05554e-05
-0.000127324
-0.000176283
-0.000212417
-0.000205352
-0.000132079
-2.67036e-05
3.96391e-05
7.59323e-05
0.000107251
0.000119198
0.000108752
0.000101433
0.000111973
0.000117956
0.00010067
8.37882e-05
7.54475e-05
5.38301e-05
3.58824e-05
2.61349e-05
1.25658e-05
-1.74265e-05
-6.03014e-05
-0.000109127
-0.000153469
-0.000181602
-0.00018194
-0.000163172
-0.000149436
-0.000160912
-0.000179723
-0.000171817
-0.00012909
-8.01294e-05
-4.91346e-05
-4.29979e-05
-5.46775e-05
-6.1783e-05
-6.2122e-05
-8.05397e-05
-0.000127233
-0.000176178
-0.000213025
-0.000206421
-0.000134213
-2.91313e-05
3.73012e-05
7.31473e-05
0.000104391
0.000116225
0.000105106
9.70498e-05
0.000107645
0.000114798
9.87922e-05
8.27954e-05
7.80732e-05
5.65515e-05
3.89847e-05
2.90694e-05
1.54551e-05
-1.51944e-05
-5.90277e-05
-0.000108977
-0.000153839
-0.000182736
-0.000183336
-0.000164262
-0.000149893
-0.000161243
-0.000180767
-0.000173621
-0.000130724
-8.11788e-05
-4.98406e-05
-4.35784e-05
-5.53616e-05
-6.23254e-05
-6.20584e-05
-7.99516e-05
-0.000127118
-0.000176321
-0.000214325
-0.000208393
-0.000137024
-3.13948e-05
3.54475e-05
7.06719e-05
0.000102211
0.000114457
0.00010266
9.28789e-05
0.000102326
0.000110641
9.68044e-05
8.26068e-05
8.23636e-05
6.15779e-05
4.36693e-05
3.24268e-05
1.75115e-05
-1.50711e-05
-6.0792e-05
-0.00011236
-0.00015703
-0.00018616
-0.000186338
-0.000166283
-0.00015084
-0.0001622
-0.000182955
-0.000176991
-0.000133675
-8.30075e-05
-5.0903e-05
-4.42782e-05
-5.61745e-05
-6.28743e-05
-6.16137e-05
-7.8666e-05
-0.000127116
-0.000176916
-0.000215762
-0.000211277
-0.000140198
-3.27436e-05
3.51269e-05
6.93055e-05
0.000101406
0.00011449
0.000102233
9.02085e-05
9.71067e-05
0.000105737
9.43026e-05
8.33384e-05
8.81356e-05
6.95064e-05
5.05346e-05
3.65186e-05
1.89411e-05
-1.72997e-05
-6.6008e-05
-0.00011756
-0.000163256
-0.000191787
-0.00019077
-0.000169141
-0.000152262
-0.000163732
-0.000186015
-0.000181846
-0.000138059
-8.62829e-05
-5.31801e-05
-4.57955e-05
-5.76868e-05
-6.39924e-05
-6.11177e-05
-7.8604e-05
-0.000127493
-0.000178653
-0.00021802
-0.000215715
-0.000144823
-3.40946e-05
3.58185e-05
6.927e-05
0.00010189
0.000115827
0.000103621
9.00426e-05
9.3407e-05
0.000100554
9.04019e-05
8.23233e-05
9.45386e-05
8.08579e-05
6.07161e-05
4.26431e-05
2.06653e-05
-2.12633e-05
-7.4442e-05
-0.000125768
-0.000172381
-0.00019938
-0.000196324
-0.000172611
-0.000154008
-0.000165446
-0.000190568
-0.000186504
-0.000142809
-9.06674e-05
-5.70592e-05
-4.88111e-05
-6.05221e-05
-6.62553e-05
-6.11411e-05
-7.8467e-05
-0.000128481
-0.000181579
-0.000221833
-0.000224082
-0.00015509
-4.01292e-05
3.42454e-05
6.94286e-05
0.000103088
0.000117116
0.000105347
9.22319e-05
9.26051e-05
9.62392e-05
8.51134e-05
8.01257e-05
9.95913e-05
9.53364e-05
7.58004e-05
5.36061e-05
2.56791e-05
-2.47144e-05
-8.501e-05
-0.000136427
-0.000183922
-0.000208767
-0.000202927
-0.000176519
-0.000155752
-0.000166708
-0.000192329
-0.0001897
-0.000146608
-9.46382e-05
-6.10158e-05
-5.26153e-05
-6.47289e-05
-6.98955e-05
-6.17997e-05
-7.8279e-05
-0.000130213
-0.000185907
-0.000229374
-0.000239448
-0.000177357
-5.94906e-05
2.09786e-05
6.22493e-05
0.000101669
0.000115636
0.00010325
9.36315e-05
9.43039e-05
9.40097e-05
7.94036e-05
7.59448e-05
9.82336e-05
0.000109906
9.49697e-05
7.11048e-05
3.80202e-05
-2.30269e-05
-9.4802e-05
-0.000147054
-0.000196446
-0.000219398
-0.000211066
-0.000181879
-0.000157605
-0.000166578
-0.000191736
-0.000189886
-0.000150101
-0.000101507
-6.6955e-05
-5.59382e-05