/*--------------------------------*- C++ -*----------------------------------*\
| =========                 |                                                 |
| \\      /  F ield         | OpenFOAM: The Open Source CFD Toolbox           |
|  \\    /   O peration     | Version:  2306                                  |
|   \\  /    A nd           | Website:  www.openfoam.com                      |
|    \\/     M anipulation  |                                                 |
\*---------------------------------------------------------------------------*/
FoamFile
{
    version     2.0;
    format      ascii;
    arch        "LSB;label=32;scalar=64";
    class       surfaceScalarField;
    location    "7.5";
    object      phi_0;
}
// * * * * * * * * * * * * * * * * * * * * * * * * * * * * * * * * * * * * * //

dimensions      [0 3 -1 0 0 0 0];

oriented        oriented;

internalField   nonuniform List<scalar> 
175300
(
4.67059e-06
5.36792e-07
-4.95785e-07
5.0425e-06
4.36151e-07
-1.96732e-07
5.45851e-06
3.77879e-07
1.4076e-07
5.80551e-06
5.23687e-07
5.11408e-07
5.93509e-06
7.66146e-07
9.78498e-07
5.81292e-06
9.10868e-07
1.48799e-06
5.55491e-06
8.25771e-07
1.917e-06
5.31727e-06
5.7277e-07
2.10762e-06
5.15114e-06
3.46384e-07
1.9986e-06
5.0297e-06
2.24716e-07
1.68902e-06
4.91126e-06
1.61255e-07
1.36236e-06
4.74824e-06
8.67285e-08
1.18093e-06
4.50337e-06
-1.10557e-08
1.17881e-06
4.15486e-06
-7.32362e-08
1.26169e-06
3.77366e-06
-1.35016e-07
1.32622e-06
3.50407e-06
-2.50451e-07
1.31906e-06
3.40814e-06
-3.80387e-07
1.21888e-06
3.45426e-06
-4.94534e-07
1.02696e-06
3.56475e-06
-5.57909e-07
7.7727e-07
3.67755e-06
-5.32685e-07
5.24551e-07
3.80482e-06
-3.96916e-07
2.58314e-07
3.99607e-06
-2.03646e-07
-2.94922e-08
4.21983e-06
5.17163e-08
-2.75032e-07
4.42786e-06
2.94343e-07
-4.17016e-07
4.60134e-06
3.56072e-07
-4.15534e-07
4.75844e-06
1.31791e-07
-3.44234e-07
4.93479e-06
-3.38226e-07
-3.51853e-07
5.16232e-06
-8.28754e-07
-6.02847e-07
5.3857e-06
-9.86451e-07
-1.07173e-06
5.44209e-06
-6.82566e-07
-1.49002e-06
5.27713e-06
-1.98818e-07
-1.75794e-06
4.93802e-06
2.31881e-07
-1.99231e-06
4.50111e-06
4.67051e-07
-2.15363e-06
4.09106e-06
3.70539e-07
-2.08313e-06
3.83162e-06
5.72847e-08
-1.89166e-06
3.75195e-06
-1.44399e-07
-1.76978e-06
3.8364e-06
-1.45553e-07
-1.66876e-06
4.01101e-06
1.94375e-08
-1.45199e-06
4.1949e-06
2.7831e-07
-1.11946e-06
4.66765e-07
-7.80122e-07
1.5562e-05
1.50987e-06
-1.31103e-06
1.68571e-05
1.07768e-06
-3.77203e-07
1.8212e-05
9.54448e-07
6.37491e-07
1.93315e-05
1.45168e-06
1.88577e-06
1.98506e-05
2.19742e-06
3.36538e-06
1.96089e-05
2.6013e-06
4.85337e-06
1.88429e-05
2.35969e-06
5.96067e-06
1.80201e-05
1.66986e-06
6.3177e-06
1.74109e-05
1.01008e-06
5.88377e-06
1.70037e-05
6.16836e-07
4.96537e-06
1.66423e-05
4.03412e-07
4.04852e-06
1.61227e-05
1.92515e-07
3.52225e-06
1.52982e-05
-4.84186e-08
3.45007e-06
1.41733e-05
-2.44754e-07
3.63141e-06
1.30049e-05
-5.42636e-07
3.83313e-06
1.215e-05
-1.05376e-06
3.87978e-06
1.17519e-05
-1.60594e-06
3.65297e-06
1.17304e-05
-1.99857e-06
3.12226e-06
1.19034e-05
-2.08316e-06
2.39019e-06
1.21545e-05
-1.81634e-06
1.59703e-06
1.25246e-05
-1.27058e-06
7.83417e-07
1.30797e-05
-5.38585e-07
-3.50944e-08
1.37421e-05
2.98471e-07
-6.84491e-07
1.44361e-05
8.93344e-07
-1.01268e-06
1.51604e-05
7.32609e-07
-9.81616e-07
1.59558e-05
-3.56313e-07
-8.06868e-07
1.68573e-05
-2.15082e-06
-9.16787e-07
1.77952e-05
-3.72923e-06
-1.67212e-06
1.84718e-05
-3.96217e-06
-2.93366e-06
1.84956e-05
-2.62845e-06
-4.0964e-06
1.78226e-05
-7.68753e-07
-4.93256e-06
1.67053e-05
7.08559e-07
-5.55612e-06
1.54351e-05
1.31066e-06
-5.79488e-06
1.42652e-05
8.35037e-07
-5.53319e-06
1.33633e-05
-1.13397e-07
-5.18588e-06
1.2844e-05
-6.21335e-07
-5.04223e-06
1.27986e-05
-5.27088e-07
-4.79997e-06
1.31426e-05
5.57267e-08
-4.13061e-06
1.37128e-05
8.99888e-07
-3.14879e-06
1.44904e-06
-2.17204e-06
2.85331e-05
2.28911e-06
-2.64824e-06
3.09909e-05
1.27166e-06
-1.13695e-06
3.35629e-05
8.62229e-07
7.03886e-07
3.58161e-05
1.82998e-06
2.92857e-06
3.7165e-05
3.27961e-06
5.57249e-06
3.71591e-05
4.11685e-06
8.18407e-06
3.59446e-05
3.8938e-06
1.00973e-05
3.43156e-05
2.90615e-06
1.07606e-05
3.29932e-05
1.82732e-06
1.0127e-05
3.21489e-05
1.06439e-06
8.68087e-06
3.15182e-05
6.02695e-07
7.17825e-06
3.06786e-05
2.18177e-07
6.19722e-06
2.93205e-05
-1.55521e-07
5.84695e-06
2.7427e-05
-4.76431e-07
5.92691e-06
2.53648e-05
-1.07332e-06
6.20722e-06
2.36545e-05
-2.1429e-06
6.42065e-06
2.2582e-05
-3.33835e-06
6.24909e-06
2.21418e-05
-4.20939e-06
5.54201e-06
2.21384e-05
-4.39203e-06
4.43642e-06
2.24112e-05
-3.81604e-06
3.16141e-06
2.29824e-05
-2.67306e-06
1.82054e-06
2.38967e-05
-1.10584e-06
4.543e-07
2.50446e-05
5.75899e-07
-6.50383e-07
2.6356e-05
1.51244e-06
-1.18123e-06
2.78533e-05
7.01503e-07
-1.05255e-06
2.95754e-05
-2.05606e-06
-6.20301e-07
3.1527e-05
-6.1314e-06
-6.16399e-07
3.35058e-05
-9.49122e-06
-1.69359e-06
3.49119e-05
-9.73843e-06
-3.75953e-06
3.5066e-05
-6.57113e-06
-5.87753e-06
3.3942e-05
-2.32373e-06
-7.5368e-06
3.20594e-05
9.36122e-07
-8.68285e-06
2.99642e-05
2.16261e-06
-9.01434e-06
2.79681e-05
1.18497e-06
-8.55478e-06
2.61671e-05
-5.95431e-07
-8.09494e-06
2.47244e-05
-1.46004e-06
-8.08694e-06
2.40015e-05
-1.20591e-06
-7.98194e-06
2.41522e-05
-1.03853e-07
-7.12355e-06
2.50169e-05
1.46316e-06
-5.6261e-06
2.44106e-06
-4.05405e-06
4.30602e-05
2.23628e-06
-5.30411e-06
4.68732e-05
3.19674e-08
-3.39085e-06
5.10028e-05
-1.33678e-06
-5.86056e-07
5.4915e-05
1.59626e-07
2.56155e-06
5.78215e-05
2.62755e-06
6.53088e-06
5.87912e-05
4.30427e-06
1.06095e-05
5.75085e-05
4.59199e-06
1.37832e-05
5.49299e-05
3.81436e-06
1.52105e-05
5.25009e-05
2.62761e-06
1.47307e-05
5.09364e-05
1.51013e-06
1.29594e-05
4.99819e-05
6.88569e-07
1.09452e-05
4.8946e-05
6.85629e-08
9.45127e-06
4.72671e-05
-4.13596e-07
8.59065e-06
4.47969e-05
-7.53704e-07
8.21331e-06
4.18581e-05
-1.50788e-06
8.29941e-06
3.89907e-05
-3.01994e-06
8.68768e-06
3.66417e-05
-4.86086e-06
8.83504e-06
3.5107e-05
-6.4438e-06
8.28145e-06
3.44122e-05
-7.1184e-06
7.08394e-06
3.44105e-05
-6.54451e-06
5.54016e-06
3.50373e-05
-4.84966e-06
3.80014e-06
3.62519e-05
-2.23838e-06
1.92447e-06
3.78946e-05
5.80016e-07
3.05339e-07
3.98998e-05
1.89379e-06
-4.48409e-07
4.22936e-05
-4.50148e-08
-1.23191e-08
4.50655e-05
-5.25461e-06
9.48774e-07
4.82224e-05
-1.28431e-05
1.64988e-06
5.15892e-05
-1.9085e-05
6.34618e-07
5.43039e-05
-1.9742e-05
-2.22202e-06
5.51996e-05
-1.39872e-05
-5.76976e-06
5.40805e-05
-6.07919e-06
-8.86108e-06
5.17026e-05
1.07916e-07
-1.1066e-05
4.89217e-05
2.65766e-06
-1.1808e-05
4.61469e-05
1.37339e-06
-1.11403e-05
4.33206e-05
-1.3185e-06
-1.03944e-05
4.04596e-05
-2.58055e-06
-1.05163e-05
3.82028e-05
-2.16225e-06
-1.08997e-05
3.73217e-05
-6.52482e-07
-1.04311e-05
3.799e-05
1.50136e-06
-8.91118e-06
2.84837e-06
-7.04705e-06
5.81491e-05
8.66915e-07
-9.95053e-06
6.31611e-05
-3.36976e-06
-8.1613e-06
6.90225e-05
-6.91582e-06
-5.20705e-06
7.51425e-05
-6.35698e-06
-4.57409e-07
8.06028e-05
-2.06613e-06
4.63099e-06
8.38506e-05
1.33935e-06
1.06841e-05
8.35728e-05
3.1231e-06
1.59539e-05
8.0352e-05
3.56864e-06
1.90186e-05
7.64543e-05
3.03489e-06
1.93696e-05
7.37154e-05
1.86362e-06
1.76273e-05
7.22682e-05
6.33528e-07
1.52822e-05
7.11705e-05
-3.38106e-07
1.34449e-05
6.94972e-05
-9.62465e-07
1.20977e-05
6.68502e-05
-1.19122e-06
1.09252e-05
6.33574e-05
-1.78589e-06
1.02533e-05
5.93295e-05
-3.3097e-06
1.04698e-05
5.51476e-05
-5.40437e-06
1.10587e-05
5.15196e-05
-7.6564e-06
1.10585e-05
4.91233e-05
-9.38092e-06
1.0181e-05
4.81446e-05
-9.64891e-06
8.73716e-06
4.84404e-05
-7.92602e-06
6.90526e-06
4.97584e-05
-4.22415e-06
4.65459e-06
5.17798e-05
1.48707e-07
2.48889e-06
5.43789e-05
2.07405e-06
1.53308e-06
5.7522e-05
-1.14416e-06
2.32116e-06
6.10055e-05
-9.82571e-06
4.69861e-06
6.48827e-05
-2.21658e-05
7.05759e-06
6.95779e-05
-3.31987e-05
7.07542e-06
7.45023e-05
-3.58205e-05
3.71636e-06
7.76018e-05
-2.7305e-05
-1.89628e-06
7.77861e-05
-1.41558e-05
-7.59667e-06
7.5766e-05
-3.21221e-06
-1.20531e-05
7.27533e-05
2.10477e-06
-1.40709e-05
6.94339e-05
1.28327e-06
-1.34063e-05
6.57334e-05
-2.13642e-06
-1.20706e-05
6.13512e-05
-3.76393e-06
-1.20114e-05
5.68379e-05
-3.12658e-06
-1.29432e-05
5.36431e-05
-1.37304e-06
-1.34195e-05
5.28534e-05
9.70906e-07
-1.27281e-05
2.3464e-06
-1.13798e-05
7.34195e-05
-1.38891e-06
-1.59912e-05
7.83053e-05
-8.94104e-06
-1.54759e-05
8.49313e-05
-1.65109e-05
-1.33457e-05
9.29178e-05
-1.85169e-05
-9.03534e-06
0.000101727
-1.45732e-05
-2.16021e-06
0.000109364
-8.23275e-06
5.72649e-06
0.000112486
-3.10657e-06
1.43793e-05
0.000110113
4.89731e-07
2.06819e-05
0.000104926
2.11997e-06
2.32254e-05
0.00010053
1.75581e-06
2.22063e-05
9.8264e-05
3.4582e-07
1.97193e-05
9.71599e-05
-1.07741e-06
1.78613e-05
9.58096e-05
-1.9916e-06
1.66002e-05
9.34806e-05
-2.08189e-06
1.48093e-05
9.00948e-05
-2.17514e-06
1.277e-05
8.55586e-05
-3.11267e-06
1.19486e-05
7.96764e-05
-4.71292e-06
1.26118e-05
7.31393e-05
-6.964e-06
1.34023e-05
6.75375e-05
-9.77499e-06
1.32755e-05
6.41274e-05
-1.19091e-05
1.23296e-05
6.31341e-05
-1.13498e-05
1.0814e-05
6.40324e-05
-6.99986e-06
8.5269e-06
6.60896e-05
-7.31209e-07
6.01279e-06
6.89569e-05
2.29319e-06
4.91686e-06
7.24863e-05
-2.25439e-06
6.38685e-06
7.60742e-05
-1.49376e-05
1.03535e-05
7.92613e-05
-3.27016e-05
1.4848e-05
8.3391e-05
-4.96807e-05
1.69865e-05
9.02099e-05
-5.68503e-05
1.467e-05
9.7785e-05
-4.8796e-05
7.93809e-06
0.000102389
-2.99952e-05
-1.35731e-06
0.000103005
-1.16338e-05
-1.01019e-05
0.000101007
-9.4155e-07
-1.51963e-05
9.77231e-05
3.80746e-07
-1.54511e-05
9.35368e-05
-3.01156e-06
-1.34328e-05
8.80925e-05
-4.76066e-06
-1.26495e-05
8.14674e-05
-3.70477e-06
-1.37053e-05
7.51946e-05
-1.62568e-06
-1.51046e-05
7.13403e-05
6.57057e-07
-1.57924e-05
1.62305e-06
-1.59597e-05
9.24048e-05
-2.63221e-06
-2.06974e-05
9.45703e-05
-1.42522e-05
-2.26304e-05
9.90116e-05
-2.74077e-05
-2.2946e-05
0.000105521
-3.37414e-05
-2.06235e-05
0.000114893
-3.20267e-05
-1.54777e-05
0.000127421
-2.65445e-05
-6.72337e-06
0.000138171
-1.88685e-05
5.20448e-06
0.000141004
-9.31208e-06
1.7031e-05
0.000136531
-2.36696e-06
2.4454e-05
0.000130563
3.37782e-08
2.5899e-05
0.000127163
-6.95036e-07
2.35688e-05
0.000126095
-2.36568e-06
2.16281e-05
0.000125314
-3.68323e-06
2.12994e-05
0.000123645
-3.77551e-06
2.01491e-05
0.000121064
-3.19629e-06
1.6924e-05
0.000117292
-3.08495e-06
1.39996e-05
0.000111118
-3.4691e-06
1.36418e-05
0.00010216
-4.63721e-06
1.49618e-05
9.22658e-05
-7.46598e-06
1.59075e-05
8.43247e-05
-1.15531e-05
1.57861e-05
8.01033e-05
-1.35222e-05
1.4871e-05
7.94072e-05
-9.74106e-06
1.28872e-05
8.09323e-05
-1.68458e-06
1.0196e-05
8.38296e-05
2.92646e-06
8.92626e-06
8.78318e-05
-2.64236e-06
1.07726e-05
9.20365e-05
-1.90813e-05
1.54904e-05
9.46974e-05
-4.12653e-05
2.08787e-05
9.59113e-05
-6.26604e-05
2.48087e-05
9.98961e-05
-7.59626e-05
2.57687e-05
0.000109603
-7.32145e-05
2.16787e-05
0.000121292
-5.38792e-05
1.14738e-05
0.000129124
-2.85041e-05
-2.56325e-06
0.000131361
-9.1823e-06
-1.34266e-05
0.000129525
-2.6152e-06
-1.67494e-05
0.000125354
-4.12842e-06
-1.4814e-05
0.000119544
-5.35099e-06
-1.29077e-05
0.000111951
-3.71302e-06
-1.33337e-05
0.000103462
-1.05919e-06
-1.50291e-05
9.64931e-05
1.33438e-06
-1.6778e-05
1.991e-06
-1.8595e-05
0.00012075
-1.00876e-06
-2.1546e-05
0.000118701
-1.51905e-05
-2.58667e-05
0.000117721
-3.38409e-05
-2.99877e-05
0.000119126
-4.58282e-05
-3.16253e-05
0.00012393
-4.73892e-05
-2.94886e-05
0.000135118
-4.53717e-05
-2.29409e-05
0.000152053
-4.11514e-05
-1.10758e-05
0.000165033
-2.96859e-05
5.11872e-06
0.000166434
-1.43388e-05
1.99402e-05
0.000160778
-5.63123e-06
2.71245e-05
0.000156487
-3.97652e-06
2.62697e-05
0.000155955
-5.16644e-06
2.34802e-05
0.00015638
-6.45573e-06
2.38944e-05
0.000155481
-6.41451e-06
2.51981e-05
0.000153799
-5.1807e-06
2.27906e-05
0.000151959
-4.05864e-06
1.77332e-05
0.000148007
-3.17365e-06
1.49037e-05
0.000139323
-2.60984e-06
1.57701e-05
0.000126197
-3.7768e-06
1.7806e-05
0.000112394
-8.04626e-06
1.88186e-05
0.00010228
-1.25203e-05
1.86369e-05
9.77716e-05
-1.0849e-05
1.7186e-05
9.77903e-05
-2.16245e-06
1.4477e-05
0.000100641
4.19625e-06
1.27032e-05
0.000105475
-1.45568e-06
1.40826e-05
0.000111339
-2.04397e-05
1.82376e-05
0.000115941
-4.53532e-05
2.24756e-05
0.000116433
-6.78671e-05
2.60756e-05
0.000114734
-8.37182e-05
3.02405e-05
0.000118657
-8.83042e-05
3.25585e-05
0.000131681
-7.62114e-05
2.67319e-05
0.000147742
-5.07338e-05
1.14123e-05
0.00015866
-2.44371e-05
-6.1729e-06
0.000161365
-9.39997e-06
-1.55669e-05
0.000158075
-5.69655e-06
-1.59124e-05
0.000152299
-5.15148e-06
-1.32309e-05
0.000145126
-3.20959e-06
-1.21701e-05
0.000136579
-6.70168e-08
-1.31796e-05
0.000128578
2.99227e-06
-1.52505e-05
4.01121e-06
-1.80166e-05
0.000157704
2.78211e-06
-1.76368e-05
0.000154188
-1.03035e-05
-2.32256e-05
0.000147092
-3.10415e-05
-3.10009e-05
0.000141011
-4.89605e-05
-3.86636e-05
0.000139205
-5.52527e-05
-4.19831e-05
0.000144088
-5.6352e-05
-3.85371e-05
0.000158988
-5.88786e-05
-2.80191e-05
0.000179037
-5.3409e-05
-1.14571e-05
0.000190115
-3.52543e-05
9.18307e-06
0.000187534
-1.65087e-05
2.41876e-05
0.000181862
-9.86066e-06
2.73716e-05
0.000182184
-1.09865e-05
2.32361e-05
0.000185941
-1.2187e-05
2.21433e-05
0.000186752
-1.02183e-05
2.57477e-05
0.000184706
-6.77499e-06
2.6702e-05
0.00018415
-5.16881e-06
2.18312e-05
0.000184888
-5.12118e-06
1.65011e-05
0.000181331
-4.14122e-06
1.58536e-05
0.000169542
-2.70662e-06
1.86966e-05
0.000151638
-4.04687e-06
2.11855e-05
0.000133997
-8.00443e-06
2.18638e-05
0.000122533
-8.31126e-06
2.10973e-05
0.000118736
-1.02625e-06
1.88927e-05
0.000120655
5.87121e-06
1.67843e-05
0.000126197
5.3991e-07
1.69428e-05
0.000133697
-1.94486e-05
1.90343e-05
0.000140995
-4.52519e-05
2.08339e-05
0.000144384
-6.68508e-05
2.26825e-05
0.000141238
-8.04139e-05
2.7899e-05
0.000137159
-8.76239e-05
3.638e-05
0.00014293
-8.59853e-05
3.87035e-05
0.000160528
-7.07246e-05
2.69654e-05
0.00017979
-4.53222e-05
6.79365e-06
0.000188261
-1.9867e-05
-1.00857e-05
0.000183172
-4.48253e-06
-1.54544e-05
0.000173558
8.19683e-08
-1.3668e-05
0.000167398
-1.57824e-06
-1.04507e-05
0.000163881
-1.41311e-06
-9.25053e-06
0.000160556
2.6315e-06
-1.05603e-05
5.95471e-06
-1.35663e-05
0.000191924
3.28603e-06
-7.17433e-06
0.000194427
-4.1874e-06
-1.35602e-05
0.000186464
-2.01319e-05
-2.42892e-05
0.000173243
-4.0106e-05
-3.82898e-05
0.000164008
-5.29684e-05
-5.00778e-05
0.000162501
-5.78511e-05
-5.32248e-05
0.000170382
-6.47175e-05
-4.51566e-05
0.00018871
-6.97161e-05
-2.86036e-05
0.000208598
-5.93635e-05
-6.28869e-06
0.000215304
-3.5413e-05
1.6117e-05
0.000208829
-1.79888e-05
2.62985e-05
0.00020428
-1.66486e-05
2.30391e-05
0.000209701
-2.15159e-05
1.80457e-05
0.000216098
-1.87507e-05
2.02658e-05
0.000214154
-7.73187e-06
2.41157e-05
0.000209125
-7.01954e-07
2.18523e-05
0.000210646
-4.29834e-06
1.59369e-05
0.000216456
-1.05766e-05
1.3736e-05
0.000215141
-1.07308e-05
1.73559e-05
0.000200722
-6.48183e-06
2.19868e-05
0.000178239
-3.57037e-06
2.39285e-05
0.000157795
-1.12341e-06
2.38903e-05
0.000146625
4.24922e-06
2.30668e-05
0.00014543
8.09791e-06
2.18817e-05
0.000151277
2.36811e-07
2.07796e-05
0.000160681
-2.13636e-05
1.91154e-05
0.000170355
-4.60978e-05
1.60961e-05
0.000176614
-6.36995e-05
1.43279e-05
0.000175462
-7.16389e-05
1.9598e-05
0.000167664
-7.53712e-05
3.30003e-05
0.000163835
-7.98234e-05
4.39557e-05
0.000174728
-7.96185e-05
3.84832e-05
0.000195053
-6.42314e-05
1.80543e-05
0.000206672
-3.24026e-05
-2.92679e-06
0.000199717
-1.57927e-06
-1.37075e-05
0.000183968
1.19557e-05
-1.44012e-05
0.000174118
6.58371e-06
-9.35897e-06
0.000173526
-1.14366e-06
-4.03845e-06
0.000177765
-7.61866e-07
-2.01369e-06
3.54319e-06
-3.38871e-06
0.000211111
6.23823e-07
1.00005e-05
0.000225596
-3.91042e-06
4.83824e-06
0.000227107
-9.91906e-06
-9.21958e-06
0.000213266
-2.21945e-05
-2.93036e-05
0.000196713
-3.88778e-05
-4.96975e-05
0.000188954
-5.10137e-05
-6.2989e-05
0.000191559
-6.12399e-05
-6.22117e-05
0.000203072
-7.25014e-05
-4.76583e-05
0.00022246
-7.55103e-05
-2.49118e-05
0.000240356
-6.09602e-05
1.66409e-06
0.000243951
-3.5937e-05
2.05154e-05
0.000235138
-2.21818e-05
2.31984e-05
0.000230541
-2.52583e-05
1.60592e-05
0.000237438
-2.83206e-05
1.30046e-05
0.000243836
-1.57064e-05
1.6596e-05
0.000240034
2.26514e-06
1.85105e-05
0.000234228
4.13848e-06
1.50916e-05
0.000238235
-1.12281e-05
1.14069e-05
0.000248386
-2.53696e-05
1.38785e-05
0.000248758
-2.31269e-05
2.03212e-05
0.000231764
-8.35688e-06
2.39374e-05
0.000205993
6.66146e-06
2.42952e-05
0.000185537
1.54736e-05
2.53546e-05
0.000177791
1.39831e-05
2.7395e-05
0.000181561
-1.3812e-06
2.67389e-05
0.000192025
-2.80886e-05
2.06037e-05
0.000204511
-5.27523e-05
1.00904e-05
0.000214053
-6.38912e-05
9.37244e-07
0.000215205
-6.31035e-05
3.9967e-06
0.000206279
-5.89558e-05
2.20506e-05
0.000194608
-6.20147e-05
4.23568e-05
0.00019452
-7.34764e-05
4.56536e-05
0.000208857
-7.33903e-05
2.75569e-05
0.000221036
-4.46235e-05
4.70483e-06
0.000216725
-1.19684e-06
-1.09315e-05
0.000201047
2.32788e-05
-1.53232e-05
0.00018837
1.84009e-05
-1.10971e-05
0.000184976
4.13921e-06
-2.076e-06
0.000188461
-1.88436e-07
5.3403e-06
1.86294e-06
9.55137e-06
0.000223064
-7.17352e-07
1.9423e-05
0.000243906
-8.79059e-06
2.16211e-05
0.00025981
-7.45978e-06
1.1056e-05
0.000255769
-4.3069e-06
-1.39008e-05
0.000237629
-1.61693e-05
-4.1203e-05
0.000222752
-3.51183e-05
-6.36212e-05
0.000220489
-5.19525e-05
-7.3433e-05
0.000227864
-6.59725e-05
-6.66509e-05
0.000241314
-7.77074e-05
-4.63069e-05
0.000259854
-7.95278e-05
-1.82018e-05
0.000274472
-6.27632e-05
8.37538e-06
0.000273594
-3.71584e-05
2.00285e-05
0.000262007
-2.50452e-05
1.5317e-05
0.000257367
-2.73254e-05
8.07651e-06
0.000265067
-2.36837e-05
9.2686e-06
0.00027236
-6.51444e-06
1.49183e-05
0.000269932
5.78225e-06
1.6334e-05
0.000265056
-3.633e-06
1.25186e-05
0.000269904
-2.92028e-05
1.11535e-05
0.000281215
-4.4407e-05
1.67067e-05
0.000281119
-2.91291e-05
2.17198e-05
0.000262236
3.52788e-06
2.21776e-05
0.000237762
2.55688e-05
2.47951e-05
0.00022216
2.44715e-05
3.15785e-05
0.000218548
3.9807e-06
3.29228e-05
0.000224007
-2.83772e-05
2.19403e-05
0.000236644
-5.80161e-05
3.4056e-06
0.00025152
-7.09464e-05
-1.07339e-05
0.000258139
-6.1993e-05
-1.33254e-05
0.000250432
-4.65924e-05
4.91356e-06
0.000233655
-4.08062e-05
3.41202e-05
0.00022247
-5.44475e-05
4.90597e-05
0.000226312
-6.77022e-05
3.71161e-05
0.000235658
-4.91253e-05
1.29697e-05
0.000236564
-3.37642e-06
-5.95284e-06
0.000228365
2.80126e-05
-1.55565e-05
0.000218801
2.76337e-05
-1.67631e-05
0.000212635
1.29631e-05
-9.56772e-06
0.000210248
6.65909e-06
1.16905e-06
6.17268e-06
1.10791e-05
0.000244468
3.02954e-06
9.49658e-06
0.000262286
-1.44292e-05
2.05708e-05
0.000286488
-1.34649e-05
2.0101e-05
0.000296004
3.14142e-06
7.46748e-07
0.000284673
5.05832e-06
-2.97801e-05
0.000265982
-1.39853e-05
-5.71213e-05
0.000256711
-3.71539e-05
-7.55236e-05
0.000260804
-5.48023e-05
-7.93809e-05
0.000271321
-7.03931e-05
-6.64704e-05
0.000284642
-8.47713e-05
-4.02898e-05
0.000299173
-8.33511e-05
-9.76853e-06
0.000305527
-5.85657e-05
1.15352e-05
0.000298235
-2.99402e-05
1.27876e-05
0.000287509
-2.03002e-05
5.14683e-06
0.000287489
-2.20512e-05
4.08319e-06
0.00029769
-1.61744e-05
1.18116e-05
0.000305695
-3.83058e-06
1.85384e-05
0.000304357
-2.14594e-06
1.70565e-05
0.000299766
-2.13045e-05
1.14347e-05
0.000303088
-4.77875e-05
1.13599e-05
0.000311623
-4.89643e-05
1.58392e-05
0.000310089
-1.67941e-05
1.884e-05
0.000294382
1.81959e-05
2.4588e-05
0.000275764
2.92549e-05
3.49276e-05
0.000262867
1.77406e-05
3.65366e-05
0.000257236
-1.01968e-05
1.97624e-05
0.000262466
-4.65242e-05
-3.99332e-06
0.000280284
-7.36557e-05
-2.05863e-05
0.000296914
-7.09954e-05
-2.40875e-05
0.000296078
-4.58784e-05
-1.03328e-05
0.00027827
-2.73272e-05
2.25798e-05
0.000258914
-3.16447e-05
4.86068e-05
0.000251632
-4.84181e-05
4.65264e-05
0.000254914
-4.11255e-05
2.3977e-05
0.000258501
-3.33759e-06
1.15799e-06
0.000258911
2.77976e-05
-1.43259e-05
0.000257214
3.02156e-05
-2.20231e-05
0.000253072
1.93552e-05
-1.99285e-05
0.000246625
1.55708e-05
-1.1002e-05
1.5239e-05
-1.2738e-06
0.00028525
9.99723e-06
-1.05734e-05
0.000293316
-1.34693e-05
3.02164e-06
0.000315539
-2.08542e-05
1.22349e-05
0.000335551
-1.70242e-06
4.43278e-06
0.000335813
1.47087e-05
-2.09068e-05
0.00031838
5.19891e-06
-4.89951e-05
0.000301951
-1.72e-05
-7.24621e-05
0.000300136
-3.77295e-05
-8.48746e-05
0.000309783
-5.70446e-05
-8.1343e-05
0.000320904
-7.91527e-05
-6.12122e-05
0.000330286
-9.17039e-05
-2.98322e-05
0.00033587
-7.50893e-05
-2.53272e-06
0.000332595
-3.89224e-05
7.77871e-06
0.000323173
-1.44461e-05
2.89961e-06
0.000318529
-1.30457e-05
1.60513e-07
0.000324868
-1.68154e-05
7.77756e-06
0.000336825
-1.27614e-05
1.97688e-05
0.000344619
-8.03469e-06
2.40881e-05
0.000342677
-1.57831e-05
1.72038e-05
0.000335075
-3.59884e-05
8.79773e-06
0.000331262
-4.81954e-05
9.26364e-06
0.000330438
-3.38e-05
1.7477e-05
0.000324117
-3.2916e-06
2.94068e-05
0.000312357
1.95457e-05
3.84701e-05
0.000302537
2.52267e-05
3.36047e-05
0.000296117
1.04322e-05
1.15611e-05
0.000295102
-2.33843e-05
-1.37851e-05
0.000308497
-6.27564e-05
-2.92269e-05
0.000330821
-7.79338e-05
-2.89223e-05
0.00033947
-5.68048e-05
-1.52911e-05
0.000324982
-2.69367e-05
1.38858e-05
0.000301353
-1.6931e-05
4.51778e-05
0.00028582
-2.51305e-05
5.40523e-05
0.000282913
-2.18189e-05
3.64616e-05
0.000286442
5.0349e-06
1.13659e-05
0.000292183
2.83641e-05
-1.00295e-05
0.000298234
2.77638e-05
-2.38565e-05
0.000300547
1.84793e-05
-2.78177e-05
0.000296632
1.88443e-05
-2.39888e-05
2.24879e-05
-1.85711e-05
0.000338778
1.32951e-05
-2.47338e-05
0.000335508
-5.36776e-06
-1.13589e-05
0.000346294
-1.78573e-05
-6.95498e-08
0.000368996
-6.60168e-06
-1.44271e-06
0.000382939
1.37229e-05
-1.76646e-05
0.000374825
1.65454e-05
-4.13964e-05
0.000356455
3.50631e-06
-6.61353e-05
0.000348293
-1.42133e-05
-8.49329e-05
0.0003557
-3.63125e-05
-9.03411e-05
0.000367744
-6.5593e-05
-7.84889e-05
0.000374468
-8.88776e-05
-5.12923e-05
0.000375327
-8.26303e-05
-1.99997e-05
0.000371083
-4.64281e-05
-2.02967e-06
0.000362763
-1.14571e-05
-1.03491e-07
0.000356579
-1.66003e-06
-2.13489e-06
0.000359033
-8.49045e-06
4.39102e-06
0.000369999
-1.38771e-05
1.93589e-05
0.000382453
-1.40924e-05
3.00529e-05
0.000385426
-1.6023e-05
2.61683e-05
0.000373392
-2.40959e-05
1.3444e-05
0.000354061
-3.26736e-05
7.8829e-06
0.000339532
-3.02503e-05
1.48893e-05
0.000333736
-1.51313e-05
2.47299e-05
0.000334688
3.55258e-06
2.6414e-05
0.00033966
1.77735e-05
1.60096e-05
0.000342367
1.8306e-05
-3.88818e-06
0.000341495
-3.14739e-06
-2.47988e-05
0.000348403
-4.32999e-05
-3.61994e-05
0.000368054
-7.50877e-05
-3.21177e-05
0.00038206
-6.79493e-05
-1.57879e-05
0.000371823
-3.43833e-05
1.0985e-05
0.000345895
-1.18865e-05
4.10425e-05
0.000325605
-8.30896e-06
5.56998e-05
0.000319766
-2.51835e-06
4.44028e-05
0.000323187
1.78236e-05
2.04318e-05
0.000328239
3.4577e-05
-1.69944e-06
0.00033314
3.06087e-05
-1.7892e-05
0.000338572
1.64712e-05
-2.78329e-05
0.000343143
1.25231e-05
-3.1964e-05
1.79325e-05
-3.15118e-05
0.000381798
4.74783e-06
-2.08644e-05
0.000375128
-8.89284e-08
-7.89785e-06
0.000374399
-5.59579e-06
-4.77288e-07
0.000391425
-4.70791e-07
-3.0529e-06
0.000415203
1.27939e-05
-1.54453e-05
0.000423452
2.20586e-05
-3.48041e-05
0.000413345
2.02478e-05
-5.78411e-05
0.000404663
1.05738e-05
-7.98069e-05
0.000410562
-1.02023e-05
-9.27915e-05
0.000423327
-4.44901e-05
-9.06383e-05
0.000429359
-7.69917e-05
-7.17231e-05
0.000425956
-8.0863e-05
-4.19192e-05
0.000417814
-4.9913e-05
-1.65417e-05
0.000408466
-1.10443e-05
-5.1296e-06
0.000401744
7.18196e-06
-2.08422e-06
0.000401569
3.46727e-06
3.47569e-06
0.000408252
-6.04472e-06
1.52395e-05
0.000417697
-1.27603e-05
2.83497e-05
0.000421584
-1.71375e-05
3.22347e-05
0.000412469
-1.94464e-05
2.22848e-05
0.000392192
-1.78848e-05
8.40749e-06
0.000372474
-1.39008e-05
3.28567e-06
0.000364932
-1.08877e-05
6.20349e-06
0.000371497
-8.65204e-06
7.80135e-06
0.000384068
-6.95301e-07
2.33622e-06
0.000390348
9.95381e-06
-9.13019e-06
0.000388786
7.65887e-06
-2.26769e-05
0.000391508
-2.23117e-05
-2.99884e-05
0.000406708
-6.34521e-05
-2.6336e-05
0.00042236
-7.40591e-05
-1.1896e-05
0.000418257
-4.56452e-05
1.11267e-05
0.000395445
-1.44733e-05
3.87524e-05
0.00037316
1.17616e-06
5.53539e-05
0.000362591
1.38474e-05
4.714e-05
0.00035966
3.30394e-05
2.62697e-05
0.000357079
4.49324e-05
1.07695e-05
0.000354995
3.55494e-05
5.80568e-07
0.00035855
1.38934e-05
-1.18067e-05
0.00036888
1.97151e-07
-2.42854e-05
1.56892e-06
-2.8545e-05
0.000418801
-7.32156e-06
-1.31768e-05
0.000414685
-1.83409e-07
-1.05404e-06
0.000409004
8.22578e-06
9.48751e-06
0.000416365
1.76359e-05
7.39061e-06
0.000438731
2.54124e-05
-7.82308e-06
0.000460736
2.8437e-05
-2.76309e-05
0.000469174
2.92893e-05
-4.64953e-05
0.000470823
2.80372e-05
-6.60827e-05
0.000478996
1.56998e-05
-8.44473e-05
0.000491585
-1.71731e-05
-9.40565e-05
0.000495559
-5.49803e-05
-8.70325e-05
0.000487207
-6.73123e-05
-6.35643e-05
0.000473329
-4.34777e-05
-3.57428e-05
0.000459829
-7.30587e-06
-1.61437e-05
0.000451134
1.18589e-05
-4.83186e-06
0.000449476
1.05034e-05
3.98379e-06
0.000452511
2.90249e-06
1.36384e-05
0.000454812
-4.40249e-06
2.51707e-05
0.000452689
-1.14817e-05
3.2168e-05
0.000444614
-1.47281e-05
2.57306e-05
0.000432336
-8.97645e-06
8.48252e-06
0.000421949
-1.39055e-06
-5.42786e-06
0.000419892
-4.77496e-06
-6.81445e-06
0.000426816
-1.75223e-05
-4.90094e-07
0.000434924
-2.02161e-05
3.60124e-06
0.000435082
-4.19892e-06
-2.38192e-07
0.000429612
1.05021e-05
-7.89713e-06
0.000429974
-3.70967e-06
-1.36931e-05
0.000442491
-4.35796e-05
-1.32915e-05
0.000459728
-7.10067e-05
-3.14225e-06
0.000465175
-5.7336e-05
1.53094e-05
0.000452125
-2.17002e-05
3.72346e-05
0.000430506
8.49915e-06
5.19097e-05
0.000411186
2.87077e-05
4.865e-05
0.000396093
4.58397e-05
3.30197e-05
0.000384817
5.4121e-05
1.93425e-05
0.000380107
4.25561e-05
1.27364e-05
0.000384243
1.61105e-05
6.68242e-06
0.000396557
-6.78319e-06
-4.52824e-06
-1.28256e-05
-1.43898e-05
0.000456362
-3.09162e-06
1.66335e-06
0.000453907
6.69e-06
7.5417e-06
0.000448913
2.17584e-05
1.64653e-05
0.00045222
3.74257e-05
1.85496e-05
0.000467801
4.48032e-05
1.06771e-05
0.000489907
4.0074e-05
-6.54479e-06
0.00051049
3.04113e-05
-2.54738e-05
0.000529473
2.55944e-05
-4.48082e-05
0.000550019
2.12408e-05
-6.44355e-05
0.000566235
2.59269e-06
-8.23291e-05
0.000568629
-2.78368e-05
-8.96813e-05
0.00055595
-4.39736e-05
-7.79165e-05
0.000536865
-2.9802e-05
-5.17907e-05
0.000519004
-1.84638e-06
-2.66537e-05
0.00050573
1.46354e-05
-1.06207e-05
0.000498476
1.54337e-05
2.82864e-07
0.000495418
1.09685e-05
1.10793e-05
0.00049213
5.48282e-06
2.30319e-05
0.00048618
-1.40271e-06
3.01309e-05
0.000478995
-4.87087e-06
2.33754e-05
0.000475891
-6.76368e-08
3.93231e-06
0.000481451
4.76616e-06
-1.31029e-05
0.000492027
-4.51661e-06
-1.28841e-05
0.000497179
-2.5354e-05
1.57786e-06
0.000490883
-3.4995e-05
1.45266e-05
0.00047805
-1.79187e-05
1.6943e-05
0.000470438
7.96963e-06
1.52517e-05
0.000474798
1.12291e-05
1.32204e-05
0.000489261
-1.78923e-05
7.527e-06
0.000506073
-5.31663e-05
4.76953e-06
0.000515038
-5.7479e-05
1.51833e-05
0.000507739
-2.56369e-05
3.52356e-05
0.000487288
1.40971e-05
4.88758e-05
0.000461051
4.13693e-05
4.37253e-05
0.000436006
5.54417e-05
2.92769e-05
0.000419868
5.88174e-05
2.31755e-05
0.00041677
4.88695e-05
2.70962e-05
0.00042424
2.80277e-05
2.75799e-05
0.000437095
6.41284e-06
1.77313e-05
-4.97563e-06
5.81214e-06
0.000510551
1.4653e-05
5.24309e-06
0.000514269
1.96525e-05
7.45837e-06
0.000510487
2.98229e-05
2.12694e-05
0.000508838
4.44169e-05
3.36975e-05
0.000515943
5.56887e-05
3.25228e-05
0.000530144
5.24622e-05
1.62237e-05
0.000548439
3.33518e-05
-4.54821e-06
0.000572284
1.18182e-05
-1.97326e-05
0.000601316
5.06806e-08
-3.36355e-05
0.000625355
-4.6393e-06
-5.47382e-05
0.00063171
-1.20109e-05
-7.6868e-05
0.00062176
-1.91164e-05
-8.39402e-05
0.000607531
-1.31368e-05
-7.08002e-05
0.000595948
2.2954e-06
-4.69051e-05
0.000584159
1.34319e-05
-2.3982e-05
0.000569543
1.73004e-05
-7.14866e-06
0.000554251
1.85132e-05
4.41165e-06
0.000540613
1.57407e-05
1.40472e-05
0.000531082
6.7431e-06
2.36893e-05
0.00052856
-2.93101e-06
2.825e-05
0.000537334
-8.71701e-06
2.15306e-05
0.000557929
-1.46576e-05
7.22003e-06
0.000579386
-2.61995e-05
-1.38939e-06
0.000584281
-4.10814e-05
8.24567e-06
0.000567375
-4.55601e-05
3.17298e-05
0.000542797
-2.65731e-05
5.15178e-05
0.0005292
8.44504e-06
5.53317e-05
0.000532086
3.13666e-05
4.07374e-05
0.000544623
1.96638e-05
1.55101e-05
0.000558633
-1.79437e-05
-6.33307e-07
0.000566548
-4.29395e-05
3.27837e-06
0.000558747
-2.70326e-05
2.1765e-05
0.00053446
1.46172e-05
3.87713e-05
0.00050244
5.02286e-05
4.0287e-05
0.00047482
6.80747e-05
3.0122e-05
0.00046059
7.23762e-05
2.4885e-05
0.000460439
6.52465e-05
2.98593e-05
0.000469194
4.82619e-05
3.48083e-05
0.000482352
2.90359e-05
2.99187e-05
1.67851e-05
1.61329e-05
0.000569313
2.52848e-05
1.33328e-05
0.000571292
2.69111e-05
1.97103e-05
0.000566824
3.15173e-05
2.86285e-05
0.000563517
3.81862e-05
3.82987e-05
0.0005687
4.21635e-05
4.39674e-05
0.000582189
3.62884e-05
3.90564e-05
0.000599497
1.81045e-05
2.07772e-05
0.000618453
-3.00128e-06
-4.0588e-06
0.000641891
-1.71262e-05
-2.64998e-05
0.000669478
-2.10626e-05
-4.41364e-05
0.000690154
-1.75358e-05
-5.92701e-05
0.000692997
-9.12558e-06
-7.085e-05
0.000681685
4.09759e-06
-7.32331e-05
0.000668367
1.71817e-05
-6.44002e-05
0.000658874
2.23385e-05
-4.77455e-05
0.000650575
2.08672e-05
-2.94162e-05
0.000639633
1.85776e-05
-1.50289e-05
0.000624506
1.5466e-05
-5.54533e-06
0.000608408
9.48578e-06
3.80423e-06
0.0005996
3.00375e-07
1.7019e-05
0.000605203
-1.40374e-05
2.82597e-05
0.000623592
-3.46588e-05
3.00533e-05
0.00064238
-5.43696e-05
2.34283e-05
0.000647222
-6.14728e-05
2.10446e-05
0.000634009
-5.05631e-05
3.51157e-05
0.000612801
-2.31397e-05
5.73455e-05
0.000595852
1.42876e-05
6.33389e-05
0.000587411
4.11181e-05
4.20769e-05
0.000587436
3.62826e-05
6.22929e-06
0.000596208
2.65374e-07
-1.81895e-05
0.000607228
-3.64314e-05
-1.57876e-05
0.00060766
-3.74188e-05
5.8613e-06
0.000589374
6.19872e-07
2.86077e-05
0.000561899
4.61762e-05
3.95202e-05
0.000540678
7.76179e-05
3.50109e-05
0.000533479
9.15823e-05
2.2739e-05
0.000536639
8.81485e-05
1.14811e-05
0.000543311
6.95736e-05