/*--------------------------------*- C++ -*----------------------------------*\
| =========                 |                                                 |
| \\      /  F ield         | OpenFOAM: The Open Source CFD Toolbox           |
|  \\    /   O peration     | Version:  2306                                  |
|   \\  /    A nd           | Website:  www.openfoam.com                      |
|    \\/     M anipulation  |                                                 |
\*---------------------------------------------------------------------------*/
FoamFile
{
    version     2.0;
    format      ascii;
    arch        "LSB;label=32;scalar=64";
    class       volScalarField;
    location    "7.5";
    object      pMean;
}
// * * * * * * * * * * * * * * * * * * * * * * * * * * * * * * * * * * * * * //

dimensions      [0 2 -2 0 0 0 0];

internalField   nonuniform List<scalar> 
60000
(
-7.08767e-06
-5.62888e-06
-4.4975e-07
4.91004e-06
1.12296e-05
1.79258e-05
2.04275e-05
1.61778e-05
1.00203e-05
1.15598e-05
2.43117e-05
4.30621e-05
6.02603e-05
7.20575e-05
7.89276e-05
8.03614e-05
7.29242e-05
5.49175e-05
2.89676e-05
1.01881e-06
-2.18603e-05
-3.60477e-05
-4.19592e-05
-3.92334e-05
-2.70295e-05
-5.68543e-06
2.43607e-05
5.97737e-05
9.00392e-05
0.000106338
0.000111718
0.000115022
0.000121616
0.000129425
0.000131407
0.00012214
9.96826e-05
6.54243e-05
2.88625e-05
2.8846e-06
-7.15801e-06
-6.12827e-06
-1.17576e-06
4.01597e-06
1.01863e-05
1.67947e-05
1.92677e-05
1.49983e-05
8.77757e-06
1.02422e-05
2.30273e-05
4.18983e-05
5.92542e-05
7.12556e-05
7.83727e-05
8.00933e-05
7.29103e-05
5.50926e-05
2.9265e-05
1.3738e-06
-2.15333e-05
-3.5829e-05
-4.20029e-05
-3.97425e-05
-2.80756e-05
-7.22643e-06
2.25272e-05
5.79638e-05
8.85355e-05
0.000105237
0.000111003
0.000114695
0.000121681
0.000129926
0.000132352
0.000123511
0.000101318
6.7012e-05
3.00218e-05
3.41672e-06
-8.71042e-06
-7.97306e-06
-3.10331e-06
2.01892e-06
8.1485e-06
1.48997e-05
1.76594e-05
1.35832e-05
7.24715e-06
8.51846e-06
2.13427e-05
4.04463e-05
5.80551e-05
7.02974e-05
7.77123e-05
7.98042e-05
7.29578e-05
5.53333e-05
2.95516e-05
1.59135e-06
-2.14698e-05
-3.59999e-05
-4.25281e-05
-4.07261e-05
-2.95219e-05
-9.13095e-06
2.02116e-05
5.55656e-05
8.63754e-05
0.000103374
0.000109472
0.000113571
0.000121083
0.000129879
0.000132776
0.000124241
0.000102167
6.76147e-05
2.99327e-05
2.49783e-06
-1.17753e-05
-1.1231e-05
-6.31616e-06
-1.23026e-06
4.88527e-06
1.1917e-05
1.52526e-05
1.16867e-05
5.37057e-06
6.38872e-06
1.92375e-05
3.87241e-05
5.67574e-05
6.93194e-05
7.70706e-05
7.95955e-05
7.31659e-05
5.5744e-05
2.99254e-05
1.7895e-06
-2.15385e-05
-3.64293e-05
-4.33947e-05
-4.20398e-05
-3.11698e-05
-1.11467e-05
1.77051e-05
5.27938e-05
8.36424e-05
0.000100678
0.000106906
0.000111447
0.000119699
0.000129276
0.000132697
0.000124271
0.000102077
6.70949e-05
2.85095e-05
6.22536e-08
-1.56606e-05
-1.53774e-05
-1.05212e-05
-5.6299e-06
3.80176e-07
7.64631e-06
1.17955e-05
9.25825e-06
3.43204e-06
4.27702e-06
1.70234e-05
3.69093e-05
5.55241e-05
6.8499e-05
7.65751e-05
7.95201e-05
7.35146e-05
5.63417e-05
3.04935e-05
2.13295e-06
-2.15523e-05
-3.70111e-05
-4.4712e-05
-4.4005e-05
-3.34931e-05
-1.39174e-05
1.4355e-05
4.91032e-05
8.01236e-05
9.73232e-05
0.000103613
0.000108511
0.000117746
0.000128506
0.000132729
0.000124419
0.000101868
6.62727e-05
2.66484e-05
-3.01258e-06
-2.01142e-05
-2.04149e-05
-1.57805e-05
-1.13642e-05
-5.97891e-06
1.70623e-06
6.93212e-06
6.09846e-06
1.57269e-06
2.7125e-06
1.52853e-05
3.54133e-05
5.47073e-05
6.82174e-05
7.65987e-05
7.98586e-05
7.4191e-05
5.71985e-05
3.12259e-05
2.48316e-06
-2.18485e-05
-3.83387e-05
-4.76426e-05
-4.86399e-05
-3.92203e-05
-2.02423e-05
7.47076e-06
4.21134e-05
7.40186e-05
9.24925e-05
9.98723e-05
0.00010549
0.000115791
0.000128252
0.000133798
0.000126004
0.000103236
6.65871e-05
2.52348e-05
-6.18162e-06
-2.45111e-05
-2.59193e-05
-2.15471e-05
-1.81297e-05
-1.45543e-05
-7.80021e-06
-1.05972e-06
1.07592e-06
-7.82768e-07
1.85816e-06
1.46356e-05
3.48581e-05
5.47773e-05
6.89576e-05
7.7644e-05
8.10575e-05
7.55073e-05
5.84827e-05
3.21597e-05
2.67792e-06
-2.27591e-05
-4.07492e-05
-5.22051e-05
-5.59012e-05
-4.88898e-05
-3.13779e-05
-4.3912e-06
3.03825e-05
6.37019e-05
8.46029e-05
9.46678e-05
0.000102392
0.000114462
0.000128823
0.000136226
0.000129772
0.000107702
7.05173e-05
2.68872e-05
-7.94456e-06
-2.8319e-05
-3.19591e-05
-2.77068e-05
-2.48705e-05
-2.39207e-05
-1.97674e-05
-1.28881e-05
-8.0062e-06
-6.1544e-06
-6.41299e-07
1.40049e-05
3.51845e-05
5.60046e-05
7.10245e-05
8.01777e-05
8.36306e-05
7.78691e-05
6.04664e-05
3.34606e-05
2.95508e-06
-2.36871e-05
-4.261e-05
-5.49766e-05
-6.01801e-05
-5.51335e-05
-3.96359e-05
-1.41814e-05
1.9737e-05
5.32462e-05
7.50008e-05
8.63099e-05
9.67123e-05
0.000111708
0.000128776
0.000138333
0.000133793
0.00011415
7.82029e-05
3.23442e-05
-7.20482e-06
-2.98871e-05
-3.75553e-05
-3.42859e-05
-3.17649e-05
-3.34159e-05
-3.29932e-05
-2.73556e-05
-2.03687e-05
-1.46734e-05
-6.14363e-06
9.92418e-06
3.28929e-05
5.58899e-05
7.26822e-05
8.29371e-05
8.7087e-05
8.16329e-05
6.37434e-05
3.56855e-05
4.36259e-06
-2.23583e-05
-4.02531e-05
-5.09439e-05
-5.51214e-05
-5.02992e-05
-3.6378e-05
-1.32387e-05
1.79562e-05
4.88704e-05
6.81121e-05
7.68951e-05
8.6233e-05
0.000102989
0.000123402
0.0001358
0.000133168
0.000116675
8.48398e-05
4.0413e-05
-2.78315e-06
-2.62319e-05
-3.9323e-05
-3.89791e-05
-3.74147e-05
-4.17343e-05
-4.59996e-05
-4.31964e-05
-3.5405e-05
-2.60924e-05
-1.41559e-05
3.13338e-06
2.60289e-05
5.02534e-05
6.94249e-05
8.14971e-05
8.69018e-05
8.2905e-05
6.64084e-05
3.88358e-05
7.13098e-06
-1.85849e-05
-3.33032e-05
-3.93962e-05
-3.94994e-05
-3.25388e-05
-1.90102e-05
1.71927e-06
2.87169e-05
5.38507e-05
6.631e-05
6.82101e-05
7.33494e-05
8.97188e-05
0.0001129
0.000129056
0.00012866
0.00011543
8.95931e-05
4.9948e-05
6.09896e-06
-1.35459e-05
-3.33792e-05
-3.82151e-05
-3.87486e-05
-4.52136e-05
-5.46036e-05
-5.66334e-05
-5.02191e-05
-3.8752e-05
-2.36597e-05
-4.83918e-06
1.70317e-05
3.95775e-05
5.85705e-05
7.20606e-05
7.91939e-05
7.73863e-05
6.34969e-05
3.86313e-05
9.34467e-06
-1.40284e-05
-2.48869e-05
-2.46538e-05
-1.82173e-05
-6.9274e-06
8.22038e-06
2.72057e-05
4.93374e-05
6.71125e-05
7.0443e-05
6.22973e-05
5.97225e-05
7.35661e-05
9.88391e-05
0.000119559
0.000123308
0.000114964
9.70269e-05
6.46259e-05
2.29152e-05
1.14793e-05
-1.68502e-05
-2.96045e-05
-3.45112e-05
-4.2177e-05
-5.53445e-05
-6.33845e-05
-6.10073e-05
-5.00893e-05
-3.2692e-05
-1.14402e-05
1.0326e-05
3.00336e-05
4.5421e-05
5.63595e-05
6.29834e-05
6.27176e-05
5.24529e-05
3.16463e-05
6.60076e-06
-1.16414e-05
-1.71266e-05
-1.00565e-05
4.29513e-06
2.12287e-05
3.88345e-05
5.60088e-05
7.28286e-05
8.404e-05
8.06126e-05
6.40285e-05
5.30729e-05
6.20894e-05
8.71657e-05
0.00011123
0.000120307
0.00011814
0.000109002
8.61742e-05
4.96018e-05
3.93806e-05
5.96998e-06
-1.44799e-05
-2.52055e-05
-3.37851e-05
-4.86673e-05
-6.15408e-05
-6.4707e-05
-5.76142e-05
-4.10653e-05
-1.78872e-05
5.51963e-06
2.42192e-05
3.58425e-05
4.17508e-05
4.47987e-05
4.40343e-05
3.61778e-05
2.02024e-05
6.65242e-07
-1.22639e-05
-1.13073e-05
2.83644e-06
2.49178e-05
4.74967e-05
6.64906e-05
8.1482e-05
9.33394e-05
9.96555e-05
9.40299e-05
7.53398e-05
5.93082e-05
6.14105e-05
8.2107e-05
0.0001064
0.000120122
0.000123006
0.000119902
0.000105759
7.63768e-05
6.14075e-05
2.84694e-05
3.71244e-06
-1.03495e-05
-1.95081e-05
-3.41628e-05
-5.01734e-05
-5.92077e-05
-5.79002e-05
-4.54816e-05
-2.33795e-05
1.75709e-06
2.07703e-05
3.04368e-05
3.2798e-05
3.30755e-05
3.1711e-05
2.47326e-05
1.19766e-05
-3.10978e-06
-1.36052e-05
-1.0857e-05
6.96114e-06
3.33807e-05
6.02481e-05
8.18205e-05
9.63742e-05
0.000105472
0.000108509
0.00010347
8.9453e-05
7.39065e-05
7.15805e-05
8.54539e-05
0.000105123
0.000119263
0.000125105
0.000124923
0.000116167
9.3555e-05
7.8044e-05
5.05591e-05
2.67849e-05
1.1672e-05
2.11058e-06
-1.18539e-05
-3.06407e-05
-4.52153e-05
-5.01475e-05
-4.37218e-05
-2.58205e-05
-1.60535e-06
1.85454e-05
2.89553e-05
3.15537e-05
3.14144e-05
3.0178e-05
2.4886e-05
1.3582e-05
3.34818e-08
-9.95278e-06
-8.74724e-06
6.61284e-06
3.19662e-05
6.1232e-05
8.58821e-05
0.000101239
0.000108136
0.000108169
0.000104102
9.49774e-05
8.37029e-05
8.08881e-05
8.93247e-05
0.000103605
0.000115688
0.000121923
0.000121738
0.000115951
0.000101767
9.16174e-05
7.02658e-05
4.93664e-05
3.48557e-05
2.5106e-05
1.19469e-05
-8.01332e-06
-2.74221e-05
-3.77212e-05
-3.68019e-05
-2.446e-05
-4.10984e-06
1.5099e-05
2.68078e-05
3.18427e-05
3.31332e-05
3.23161e-05
2.77981e-05
1.75636e-05
5.46677e-06
-2.52187e-06
-1.26882e-06
1.1245e-05
3.28158e-05
6.02005e-05
8.5355e-05
0.000101607
0.000106264
0.000101925
9.66207e-05
9.09826e-05
8.33486e-05
8.06317e-05
8.67547e-05
9.81537e-05
0.0001087
0.000114384
0.000115251
0.000113014
0.000106451
0.000100006
8.28228e-05
6.41104e-05
5.00845e-05
4.11422e-05
2.93872e-05
1.14169e-05
-8.81905e-06
-2.29864e-05
-2.71227e-05
-2.08364e-05
-5.76097e-06
1.13856e-05
2.33972e-05
3.01109e-05
3.3024e-05
3.33065e-05
2.96379e-05
2.10007e-05
1.09771e-05
6.53103e-06
1.06363e-05
2.21188e-05
3.95861e-05
6.09173e-05
8.23846e-05
9.80275e-05
0.00010268
9.67347e-05
8.95546e-05
8.55008e-05
8.18583e-05
7.98256e-05
8.262e-05
9.03791e-05
9.92781e-05
0.000105481
0.000107871
0.000108952
0.000108395
9.87714e-05
8.66536e-05
7.00205e-05
5.73846e-05
5.01492e-05
4.14586e-05
2.59671e-05
7.28463e-06
-7.77034e-06
-1.68277e-05
-1.70541e-05
-8.14163e-06
7.28654e-06
2.20386e-05
3.09327e-05
3.51141e-05
3.56107e-05
3.25144e-05
2.59727e-05
1.81728e-05
1.37846e-05
1.68192e-05
2.68019e-05
4.18825e-05
5.93287e-05
7.67314e-05
9.11707e-05
9.61727e-05
9.06421e-05
8.15437e-05
7.72611e-05
7.65986e-05
7.88116e-05
8.29582e-05
8.95715e-05
9.74727e-05
0.000103127
0.000104869
0.000104646
0.000103722
9.03857e-05
7.88282e-05
6.40382e-05
5.30452e-05
4.88181e-05
4.53955e-05
3.5371e-05
1.90174e-05
2.35155e-06
-8.88175e-06
-1.48363e-05
-1.40375e-05
-4.89448e-06
9.41294e-06
2.25632e-05
3.07765e-05
3.48738e-05
3.53773e-05
3.38874e-05
3.11526e-05
2.86283e-05
2.94969e-05
3.63114e-05
4.83132e-05
6.3371e-05
7.81396e-05
8.88207e-05
9.23468e-05
8.70432e-05
7.75473e-05
7.21166e-05
7.1537e-05
7.3801e-05
7.75257e-05
8.45976e-05
9.40689e-05
0.000100517
0.000100995
9.82426e-05
9.56087e-05
7.12341e-05
6.0646e-05
4.81782e-05
3.85296e-05
3.4225e-05
3.19053e-05
2.70913e-05
1.8137e-05
6.10225e-06
-5.06219e-06
-1.35627e-05
-1.7364e-05
-1.41304e-05
-5.45077e-06
4.33925e-06
1.21561e-05
1.75364e-05
2.15417e-05
2.44086e-05
2.64242e-05
2.82879e-05
3.20516e-05
3.94562e-05
5.0619e-05
6.27904e-05
7.31959e-05
7.85319e-05
7.73045e-05
7.13269e-05
6.48945e-05
6.20052e-05
6.26737e-05
6.36961e-05
6.53521e-05
7.07069e-05
7.95361e-05
8.65936e-05
8.79242e-05
8.41681e-05
7.8357e-05
6.47488e-05
5.2598e-05
3.92891e-05
2.88214e-05
2.2088e-05
1.71726e-05
1.21799e-05
5.98362e-06
-5.83455e-07
-6.92018e-06
-1.35685e-05
-1.97737e-05
-2.2817e-05
-2.06086e-05
-1.38439e-05
-5.72088e-06
1.13482e-06
6.38824e-06
1.15061e-05
1.6202e-05
1.95167e-05
2.48923e-05
3.44971e-05
4.8173e-05
6.16438e-05
7.02471e-05
7.15605e-05
6.5233e-05
5.49881e-05
4.6785e-05
4.23654e-05
4.16151e-05
3.99836e-05
4.0675e-05
4.50786e-05
5.49136e-05
6.64825e-05
7.52638e-05
7.72334e-05
7.3171e-05
7.61052e-05
6.33913e-05
5.02384e-05
4.12181e-05
3.51016e-05
2.9089e-05
1.98112e-05
9.41597e-06
3.22518e-07
-6.65915e-06
-1.17053e-05
-1.62473e-05
-2.07052e-05
-2.28448e-05
-2.05623e-05
-1.41688e-05
-7.2378e-06
-1.3873e-06
4.38402e-06
1.04317e-05
1.67757e-05
2.44876e-05
3.58649e-05
5.06341e-05
6.53599e-05
7.49529e-05
7.65351e-05
6.85147e-05
5.48761e-05
4.27076e-05
3.59231e-05
3.39558e-05
3.05135e-05
2.66543e-05
2.68313e-05
3.43159e-05
4.87457e-05
6.61544e-05
7.87685e-05
8.23253e-05
7.28322e-05
6.41354e-05
5.16443e-05
4.14091e-05
3.50519e-05
2.9907e-05
2.3865e-05
1.60881e-05
6.8867e-06
-2.23903e-06
-9.05609e-06
-1.3253e-05
-1.46785e-05
-1.42765e-05
-1.09842e-05
-4.99939e-06
1.97434e-06
8.74811e-06
1.52097e-05
2.20348e-05
2.85925e-05
3.48807e-05
4.28037e-05
5.39976e-05
6.57949e-05
7.37035e-05
7.50884e-05
6.95036e-05
5.86748e-05
4.73597e-05
4.08475e-05
4.01183e-05
3.98019e-05
3.74325e-05
3.50259e-05
3.74292e-05
4.56971e-05
5.66919e-05
6.76491e-05
7.40152e-05
6.13684e-05
5.2592e-05
4.0243e-05
3.00589e-05
2.33292e-05
1.79539e-05
1.24674e-05
5.82894e-06
-1.1365e-07
-4.10252e-06
-6.11919e-06
-5.8557e-06
-4.11283e-06
-1.52672e-06
2.19257e-06
6.48074e-06
1.11608e-05
1.61325e-05
2.17362e-05
2.85116e-05
3.6829e-05
4.40802e-05
4.99649e-05
5.58945e-05
6.16487e-05
6.53065e-05
6.46084e-05
5.87307e-05
4.85218e-05
3.74623e-05
3.05627e-05
2.97571e-05
3.16501e-05
3.20998e-05
3.17537e-05
3.29197e-05
3.81161e-05
4.67935e-05
5.6085e-05
6.22228e-05
4.94542e-05
4.08762e-05
2.83258e-05
1.69747e-05
9.72982e-06
6.69757e-06
2.45271e-06
-3.03956e-06
-7.65955e-06
-1.12125e-05
-1.26274e-05
-9.87869e-06
-5.16956e-06
2.29233e-07
6.29022e-06
1.27282e-05
1.94548e-05
2.75772e-05
3.73133e-05
4.73245e-05
5.474e-05
5.81828e-05
5.8699e-05
5.88602e-05
5.84807e-05
5.57529e-05
4.98399e-05
4.09779e-05
3.07807e-05
2.17622e-05
1.72333e-05
1.85061e-05
2.29556e-05
2.71828e-05
2.98193e-05
3.20056e-05
3.58601e-05
4.19856e-05
4.80077e-05
5.12565e-05
2.13281e-05
8.3989e-09
-1.65809e-05
-2.98984e-05
-3.77926e-05
-3.92115e-05
-3.74647e-05
-3.60535e-05
-3.35166e-05
-2.50907e-05
-9.92591e-06
7.06884e-06
2.10809e-05
3.1596e-05
4.07774e-05
4.7972e-05
4.88413e-05
3.99838e-05
2.19545e-05
6.45358e-07
-1.52043e-05
-2.04933e-05
-1.59359e-05
-3.71657e-06
1.73831e-05
4.87786e-05
8.92812e-05
0.000133316
0.000168416
0.000184875
0.000188185
0.000191265
0.000197224
0.00020063
0.000199131
0.000192399
0.000175151
0.000141336
9.59143e-05
5.29163e-05
2.27092e-05
1.04979e-06
-1.59623e-05
-2.96708e-05
-3.7943e-05
-3.96659e-05
-3.81597e-05
-3.69695e-05
-3.4608e-05
-2.6247e-05
-1.10218e-05
6.05532e-06
2.01297e-05
3.0705e-05
3.99858e-05
4.73486e-05
4.8424e-05
3.97694e-05
2.18611e-05
4.93124e-07
-1.56321e-05
-2.13589e-05
-1.73521e-05
-5.74201e-06
1.47559e-05
4.5699e-05
8.60259e-05
0.000130195
0.000165659
0.000182477
0.000186051
0.000189415
0.000195777
0.000199653
0.000198661
0.000192558
0.00017608
0.000142893
9.77173e-05
5.45981e-05
2.34607e-05
1.38361e-06
-1.6161e-05
-3.04254e-05
-3.9185e-05
-4.11929e-05
-3.9809e-05
-3.86964e-05
-3.643e-05
-2.80744e-05
-1.27116e-05
4.53385e-06
1.8694e-05
2.93198e-05
3.87457e-05
4.63808e-05
4.78087e-05
3.94972e-05
2.17791e-05
3.27998e-07
-1.61159e-05
-2.22533e-05
-1.87271e-05
-7.63136e-06
1.23189e-05
4.28889e-05
8.31698e-05
0.000127583
0.000163389
0.000180308
0.000183807
0.000187305
0.000194208
0.00019866
0.000198171
0.000192783
0.000177249
0.000144703
9.94734e-05
5.58581e-05
2.31435e-05
5.96285e-07
-1.76186e-05
-3.27567e-05
-4.22779e-05
-4.46047e-05
-4.3047e-05
-4.15934e-05
-3.90991e-05
-3.05754e-05
-1.49593e-05
2.53294e-06
1.67896e-05
2.7441e-05
3.70422e-05
4.50624e-05
4.69812e-05
3.91653e-05
2.17441e-05
2.77176e-07
-1.6386e-05
-2.27496e-05
-1.94674e-05
-8.61563e-06
1.09683e-05
4.12686e-05
8.15833e-05
0.000126246
0.000162234
0.000178812
0.000181674
0.000184929
0.000192393
0.000197548
0.000197556
0.000192912
0.000178408
0.000146429
0.000100781
5.6249e-05
2.16678e-05
-1.28534e-06
-2.03785e-05
-3.6827e-05
-4.76089e-05
-5.04123e-05
-4.82489e-05
-4.56491e-05
-4.22188e-05
-3.3273e-05
-1.74137e-05
3.2036e-07
1.46933e-05
2.5329e-05
3.50242e-05
4.34136e-05
4.58699e-05
3.86207e-05
2.16164e-05
2.54516e-07
-1.65168e-05
-2.29862e-05
-1.97881e-05
-9.03853e-06
1.02703e-05
4.03761e-05
8.06387e-05
0.000125482
0.000161656
0.000177839
0.000179745
0.000182341
0.000190107
0.000195972
0.000196491
0.000192557
0.000179139
0.000147711
0.000101435
5.56288e-05
1.94746e-05
-3.76943e-06
-2.394e-05
-4.26141e-05
-5.53428e-05
-5.91442e-05
-5.60781e-05
-5.12612e-05
-4.56362e-05
-3.55116e-05
-1.93365e-05
-1.48876e-06
1.30162e-05
2.36505e-05
3.33304e-05
4.18889e-05
4.47173e-05
3.7969e-05
2.13706e-05
8.1437e-08
-1.69266e-05
-2.38108e-05
-2.11966e-05
-1.12314e-05
7.08197e-06
3.63405e-05
7.62659e-05
0.00012149
0.000158604
0.000175519
0.0001774
0.000179628
0.000187412
0.000193637
0.000194614
0.000191406
0.000179159
0.000148525
0.000101631
5.43266e-05
1.86181e-05
-4.54261e-06
-2.5537e-05
-4.73577e-05
-6.41234e-05
-7.04233e-05
-6.72185e-05
-5.96638e-05
-5.04943e-05
-3.78283e-05
-2.05999e-05
-2.49227e-06
1.22381e-05
2.30784e-05
3.27808e-05
4.13143e-05
4.41993e-05
3.76215e-05
2.1088e-05
-6.75472e-07
-1.88312e-05
-2.72429e-05
-2.6527e-05
-1.8924e-05
-3.288e-06
2.36882e-05
6.25693e-05
0.000108605
0.000148123
0.000167861
0.000171705
0.000175088
0.000183582
0.000189976
0.000191043
0.000188772
0.000178304
0.000149335
0.000102842
5.44118e-05
2.26875e-05
-3.48384e-07
-2.16868e-05
-4.66784e-05
-6.91857e-05
-8.07457e-05
-7.9874e-05
-7.08702e-05
-5.80379e-05
-4.24376e-05
-2.34974e-05
-4.33908e-06
1.12434e-05
2.28214e-05
3.30277e-05
4.18205e-05
4.4818e-05
3.8131e-05
2.10584e-05
-2.25916e-06
-2.31492e-05
-3.47471e-05
-3.72795e-05
-3.33127e-05
-2.14874e-05
2.27787e-06
3.96748e-05
8.6361e-05
0.000128921
0.000152803
0.000160028
0.000165834
0.000176239
0.000183459
0.000184428
0.000183159
0.000175949
0.00015087
0.000107041
5.91711e-05
3.45034e-05
1.05657e-05
-1.10455e-05
-3.88299e-05
-6.7778e-05
-8.6808e-05
-9.09307e-05
-8.28917e-05
-6.77392e-05
-4.92658e-05
-2.87604e-05
-8.52437e-06
8.36742e-06
2.10802e-05
3.1951e-05
4.11984e-05
4.48843e-05
3.88498e-05
2.14772e-05
-3.93763e-06
-2.85245e-05
-4.39844e-05
-4.95987e-05
-4.82779e-05
-3.92163e-05
-1.79068e-05
1.75611e-05
6.31486e-05
0.000106302
0.000133085
0.000143465
0.000151068
0.000163563
0.000172884
0.00017463
0.000174201
0.00017136
0.000153812
0.000116709
7.16842e-05
5.33526e-05
2.68868e-05
4.19423e-06
-2.54401e-05
-6.00277e-05
-8.73982e-05
-9.86632e-05
-9.41926e-05
-7.91098e-05
-5.8255e-05
-3.57663e-05
-1.44734e-05
2.9849e-06
1.64541e-05
2.79091e-05
3.75367e-05
4.18694e-05
3.68919e-05
2.04589e-05
-5.01446e-06
-3.16977e-05
-4.99618e-05
-5.7358e-05
-5.69059e-05
-4.8822e-05
-2.89348e-05
4.64418e-06
4.70918e-05
8.71672e-05
0.000113032
0.000124713
0.000133514
0.000147522
0.000160123
0.000165234
0.000167036
0.000168202
0.00015863
0.000130248
9.04479e-05
7.57558e-05
4.48798e-05
1.9657e-05
-1.01044e-05
-4.7269e-05
-8.13004e-05
-0.000100791
-0.000102
-8.9144e-05
-6.76755e-05
-4.31616e-05
-2.07303e-05
-3.42453e-06
9.20016e-06
1.99784e-05
2.95862e-05
3.47063e-05
3.0869e-05
1.56571e-05
-8.31381e-06
-3.3658e-05
-5.14874e-05
-5.81646e-05
-5.60206e-05
-4.69054e-05
-2.74617e-05
3.9593e-06
4.15787e-05
7.53937e-05
9.69294e-05
0.000107098
0.000115888
0.000131196
0.000148429
0.00015981
0.000166657
0.000172632
0.000170503
0.00014993
0.000114285
9.91104e-05
6.25713e-05
3.32031e-05
4.05301e-06
-3.21717e-05
-6.88894e-05
-9.54662e-05
-0.000104265
-9.61534e-05
-7.68675e-05
-5.1599e-05
-2.70887e-05
-9.59872e-06
1.05042e-06
9.50591e-06
1.79096e-05
2.34526e-05
2.0844e-05
6.90757e-06
-1.54159e-05
-3.78339e-05
-5.1899e-05
-5.48925e-05
-4.92371e-05
-3.74828e-05
-1.81274e-05
1.07553e-05
4.33628e-05
6.99358e-05
8.64832e-05
9.45389e-05
0.000101395
0.000115847
0.000135485
0.000153151
0.000166579
0.000178059
0.000183237
0.000170922
0.000139545
0.00011872
7.82668e-05
4.50674e-05
1.70661e-05
-1.61572e-05
-5.23274e-05
-8.36507e-05
-9.99598e-05
-9.95119e-05
-8.53118e-05
-6.0926e-05
-3.39983e-05
-1.44774e-05
-4.50922e-06
1.2859e-06
7.15328e-06
1.17974e-05
9.52188e-06
-3.59721e-06
-2.45873e-05
-4.4288e-05
-5.45298e-05
-5.36202e-05
-4.34914e-05
-2.8567e-05
-8.79322e-06
1.84198e-05
4.62128e-05
6.68769e-05
7.97991e-05
8.752e-05
9.29583e-05
0.000104878
0.000123757
0.000144027
0.00016164
0.000177249
0.00018868
0.000184613
0.000158958
0.000130633
9.06659e-05
5.66755e-05
3.0271e-05
1.2688e-06
-3.29167e-05
-6.6489e-05
-8.86968e-05
-9.55414e-05
-8.83295e-05
-6.75505e-05
-3.94684e-05
-1.65942e-05
-5.50519e-06
-1.05729e-06
2.73013e-06
6.32914e-06
4.76175e-06
-6.38219e-06
-2.48277e-05
-4.17366e-05
-4.96725e-05
-4.68285e-05
-3.50434e-05
-1.81964e-05
2.18006e-06
2.79754e-05
5.1465e-05
6.71191e-05
7.69476e-05
8.41095e-05
8.89404e-05
9.79061e-05
0.000113809
0.000132663
0.000150339
0.000166747
0.000181362
0.00018459
0.00016655
0.000134571
0.000100575
6.89313e-05
4.39593e-05
1.85572e-05
-1.31848e-05
-4.75508e-05
-7.35694e-05
-8.57777e-05
-8.42558e-05
-6.84583e-05
-4.11389e-05
-1.599e-05
-1.90668e-06
4.28507e-06
7.80587e-06
1.01857e-05
8.76041e-06
-7.97547e-07
-1.63904e-05
-3.07411e-05
-3.73753e-05
-3.45695e-05
-2.41247e-05
-6.81397e-06
1.53701e-05
4.04054e-05
6.07494e-05
7.17789e-05
7.74661e-05
8.28788e-05
8.71606e-05
9.33801e-05
0.000105378
0.00012036
0.000135994
0.00015016
0.00016339
0.000169944
0.000160335
0.000137982
0.000112019
8.32839e-05
5.86323e-05
3.48889e-05
5.93177e-06
-2.7553e-05
-5.6269e-05
-7.24816e-05
-7.48992e-05
-6.3591e-05
-4.00007e-05
-1.43473e-05
2.41747e-06
1.06825e-05
1.45928e-05
1.57225e-05
1.25669e-05
2.32272e-06
-1.27999e-05
-2.50455e-05
-2.88018e-05
-2.41364e-05
-1.33737e-05
3.70545e-06
2.81569e-05
5.38412e-05
7.09436e-05
7.65872e-05
7.81485e-05
8.19406e-05
8.59685e-05
9.02168e-05
9.89281e-05
0.000112149
0.000126447
0.000139587
0.000149932
0.000156264
0.000153391
0.000139912
0.000120273
9.48555e-05
7.12977e-05
4.92163e-05
2.36261e-05
-5.70161e-06
-3.4243e-05
-5.3144e-05
-5.98164e-05
-5.57465e-05
-3.95981e-05
-1.68231e-05
2.55933e-06
1.44413e-05
2.07867e-05
2.30817e-05
2.04318e-05
1.07257e-05
-3.5485e-06
-1.43581e-05
-1.58139e-05
-9.60677e-06
1.38874e-06
1.76351e-05
4.03063e-05
6.40296e-05
7.8638e-05
8.06989e-05
7.84761e-05
8.07229e-05
8.53953e-05
9.01869e-05
9.69872e-05
0.000108097
0.000120897
0.000131913
0.0001401
0.000146671
0.000148267
0.000133448
0.000119773
9.90044e-05
7.8094e-05
5.96676e-05
3.93611e-05
1.61857e-05
-6.64019e-06
-2.40276e-05
-3.50793e-05
-3.92022e-05
-3.38647e-05
-1.81888e-05
8.37509e-07
1.53097e-05
2.4032e-05
2.85355e-05
2.84256e-05
2.07434e-05
7.4484e-06
-3.28286e-06
-4.59709e-06
2.27059e-06
1.39629e-05
2.96842e-05
4.97385e-05
7.01502e-05
8.29694e-05
8.44853e-05
8.06973e-05
8.01557e-05
8.34303e-05
8.89169e-05
9.60939e-05
0.0001059
0.000116165
0.000124182
0.00012957
0.000134465
0.000137336
0.000115027
0.000105824
9.13239e-05
7.69274e-05
6.51639e-05
5.2629e-05
3.65113e-05
1.78983e-05
1.62716e-06
-9.47576e-06
-1.81346e-05
-2.30909e-05
-1.82746e-05
-4.13028e-06
1.13965e-05
2.1907e-05
2.74027e-05
2.87839e-05
2.57422e-05
1.79734e-05
9.57698e-06
6.63879e-06
1.13366e-05
2.34042e-05
3.94429e-05
5.64261e-05
7.19188e-05
8.22531e-05
8.46747e-05
8.15633e-05
7.97793e-05
8.04826e-05
8.31563e-05
8.83708e-05
9.71616e-05
0.000106811
0.0001127
0.000114009
0.000114578
0.000116635
9.07777e-05
8.39083e-05
7.41574e-05
6.43898e-05
5.63218e-05
4.88125e-05
3.93046e-05
2.64803e-05
1.19858e-05
-1.59463e-06
-1.32457e-05
-2.0809e-05
-2.1603e-05
-1.49882e-05
-3.77593e-06
7.24383e-06
1.51343e-05
2.01556e-05
2.1299e-05
1.90978e-05
1.43146e-05
1.14508e-05
1.56542e-05
2.56767e-05
3.92951e-05
5.28348e-05
6.36512e-05
7.05042e-05
7.30851e-05
7.39264e-05
7.49359e-05
7.54553e-05
7.58953e-05
7.80832e-05
8.47563e-05
9.36564e-05
9.97919e-05
0.000100782
9.82099e-05
9.49343e-05
8.06344e-05
7.21648e-05
6.23115e-05
5.39008e-05
4.72548e-05
3.9564e-05
3.07589e-05
2.07871e-05
1.02736e-05
-1.35495e-06
-1.3412e-05
-2.45344e-05
-3.2045e-05
-3.29102e-05
-2.73877e-05
-1.86053e-05
-9.90249e-06
-2.50732e-06
3.58617e-06
7.9085e-06
9.27878e-06
1.06637e-05
1.73201e-05
2.87643e-05
4.07927e-05
5.12809e-05
5.91504e-05
6.32681e-05
6.41908e-05
6.34783e-05
6.32742e-05
6.26933e-05
6.16546e-05
6.19819e-05
6.70178e-05
7.67507e-05
8.69964e-05
9.29259e-05
9.26177e-05
8.77506e-05
8.55117e-05
7.59932e-05
6.65178e-05
6.04976e-05
5.63392e-05
4.9611e-05
3.84128e-05
2.58046e-05
1.38627e-05
3.30273e-06
-6.93496e-06
-1.78889e-05
-2.86406e-05
-3.62482e-05
-3.80541e-05
-3.48103e-05
-2.83826e-05
-2.15922e-05
-1.56665e-05
-1.01329e-05
-4.24174e-06
3.02168e-06
1.41047e-05
3.01577e-05
4.59873e-05
5.79564e-05
6.4565e-05
6.57963e-05
6.24294e-05
5.77136e-05
5.51505e-05
5.41131e-05
5.35253e-05
5.24474e-05
5.42303e-05
6.14844e-05
7.28617e-05
8.43467e-05
9.17768e-05
9.19523e-05
7.922e-05
7.21325e-05
6.2901e-05
5.52028e-05
4.96518e-05
4.42253e-05
3.73275e-05
2.85534e-05
1.96926e-05
1.17517e-05
4.99223e-06
-1.40169e-06
-7.81188e-06
-1.28187e-05
-1.46136e-05
-1.27797e-05
-8.46085e-06
-3.44381e-06
6.52307e-07
3.92774e-06
6.98669e-06
1.13492e-05
1.81469e-05
2.90311e-05
4.16866e-05
5.12332e-05
5.59397e-05
5.63234e-05
5.2866e-05
4.80357e-05
4.49904e-05
4.4938e-05
4.67077e-05
4.7631e-05
4.85385e-05
5.21784e-05
5.96522e-05
6.86625e-05
7.67975e-05
8.0882e-05
6.85345e-05
6.12313e-05
5.10908e-05
4.18554e-05
3.52893e-05
3.00234e-05
2.40307e-05
1.72866e-05
1.07818e-05
4.9496e-06
3.71252e-07
-2.51618e-06
-3.49375e-06
-2.77436e-06
-4.85313e-07
2.82681e-06
6.15839e-06
9.57741e-06
1.36887e-05
1.85654e-05
2.4419e-05
2.97075e-05
3.41351e-05
3.9537e-05
4.6068e-05
5.14311e-05
5.32267e-05
5.11034e-05
4.51835e-05
3.79271e-05
3.32028e-05
3.30389e-05
3.53679e-05
3.73775e-05
3.88247e-05
4.14433e-05
4.69472e-05
5.5179e-05
6.37355e-05
6.92898e-05
5.56566e-05
4.67498e-05
3.46541e-05
2.33853e-05
1.52465e-05
1.07193e-05
5.94895e-06
6.00219e-07
-3.85129e-06
-7.29346e-06
-9.14015e-06
-8.20808e-06
-4.9118e-06
-1.50292e-10
6.2157e-06
1.28959e-05
1.94567e-05
2.63107e-05
3.38579e-05
4.11445e-05
4.64003e-05
4.86427e-05
4.93576e-05
5.08406e-05
5.27856e-05
5.23119e-05
4.8975e-05
4.32658e-05
3.60322e-05
2.99481e-05
2.75827e-05
2.92621e-05
3.25622e-05
3.58724e-05
3.81504e-05
4.06013e-05
4.45177e-05
5.01923e-05
5.58766e-05
5.87522e-05
6.90819e-05
3.30013e-05
4.43936e-06
-1.58633e-05
-2.6692e-05
-2.97098e-05
-2.88081e-05
-2.84211e-05
-2.85068e-05
-2.5722e-05
-1.93486e-05
-1.28594e-05
-8.62229e-06
-4.19208e-06
4.35842e-06
1.53537e-05
2.22398e-05
2.07777e-05
1.25394e-05
2.37818e-06
-3.71875e-06
-2.10229e-06
5.78396e-06
1.74517e-05
3.37081e-05
5.60037e-05
8.49189e-05
0.000120756
0.000157286
0.000185799
0.000207041
0.00022633
0.000240242
0.000243194
0.000238051
0.000228466
0.000211503
0.00018368
0.000148106
0.000109093
7.0955e-05
3.48556e-05
6.16869e-06
-1.43916e-05
-2.55912e-05
-2.89798e-05
-2.83686e-05
-2.81968e-05
-2.84231e-05
-2.57088e-05
-1.93371e-05
-1.28056e-05
-8.57581e-06
-4.24353e-06
4.15937e-06
1.50832e-05
2.19276e-05
2.03738e-05
1.19982e-05
1.7014e-06
-4.51412e-06
-2.99504e-06
4.81281e-06
1.63186e-05
3.22933e-05
5.42277e-05
8.26829e-05
0.000118024
0.000154143
0.000182358
0.000203413
0.000222822
0.000237169
0.000240642
0.00023612
0.000227376
0.000211364
0.000184384
0.000149418
0.000110799
7.28409e-05
3.62519e-05
7.0211e-06
-1.41316e-05
-2.5876e-05
-2.96063e-05
-2.90741e-05
-2.88587e-05
-2.90502e-05
-2.63461e-05
-1.99228e-05
-1.33316e-05
-9.15438e-06
-4.96353e-06
3.41801e-06
1.4478e-05
2.14982e-05
1.99769e-05
1.15059e-05
1.07518e-06
-5.28846e-06
-3.90171e-06
3.83577e-06
1.52286e-05
3.09762e-05
5.26753e-05
8.07864e-05
0.000115648
0.000151286
0.000178968
0.000199584
0.000219202
0.000234286
0.000238488
0.000234656
0.000226811
0.000211909
0.000185886
0.000151456
0.000112956
7.46779e-05
3.69383e-05
6.48381e-06
-1.58162e-05
-2.84632e-05
-3.25434e-05
-3.18006e-05
-3.1144e-05
-3.1001e-05
-2.8174e-05
-2.16624e-05
-1.50164e-05
-1.09398e-05
-6.91605e-06
1.56236e-06
1.30837e-05
2.06845e-05
1.94715e-05
1.1048e-05
5.74722e-07
-5.83922e-06
-4.47878e-06
3.2977e-06
1.46857e-05
3.02989e-05
5.19223e-05
7.9901e-05
0.000114444
0.000149684
0.000176634
0.000196404
0.000216105
0.000232141
0.00023727
0.000234161
0.000227197
0.000213401
0.000188308
0.000154277
0.000115598
7.68807e-05
3.72573e-05
4.79981e-06
-1.94084e-05
-3.35485e-05
-3.81772e-05
-3.69981e-05
-3.53956e-05
-3.45106e-05
-3.14052e-05
-2.48653e-05
-1.8268e-05
-1.43905e-05
-1.05906e-05
-2.03867e-06
1.02473e-05
1.88327e-05
1.83241e-05
1.01839e-05
-1.90404e-07
-6.48179e-06
-4.92947e-06
3.09552e-06
1.46508e-05
3.03017e-05
5.19306e-05
7.99048e-05
0.000114344
0.000149559
0.000175958
0.000194574
0.000213874
0.000230811
0.000237053
0.000234794
0.000228698
0.000215877
0.000191579
0.000157861
0.000118893
8.01035e-05
3.80608e-05
2.67191e-06
-2.43978e-05
-4.08886e-05
-4.65808e-05
-4.48652e-05
-4.17584e-05
-3.94806e-05
-3.57951e-05
-2.93458e-05
-2.30437e-05
-1.95578e-05
-1.62118e-05
-7.53094e-06
5.61116e-06
1.54379e-05
1.60125e-05
8.4717e-06
-1.70672e-06
-7.9668e-06
-6.40896e-06
1.77057e-06
1.36283e-05
2.95358e-05
5.12808e-05
7.90897e-05
0.000113501
0.000149453
0.000176428
0.000194392
0.000212851
0.000230213
0.000237618
0.000236532
0.000231518
0.000219549
0.00019586
0.000162401
0.000123227
8.54112e-05
4.05959e-05
1.52057e-06
-2.96073e-05
-4.98563e-05
-5.76813e-05
-5.56642e-05
-5.04575e-05
-4.58215e-05
-4.07723e-05
-3.41967e-05
-2.83831e-05
-2.55463e-05
-2.27991e-05
-1.42543e-05
-4.02561e-07
1.0806e-05
1.27997e-05
6.13866e-06
-3.91638e-06
-1.06671e-05
-1.00754e-05
-3.03059e-06
7.92131e-06
2.33819e-05
4.49273e-05
7.24041e-05
0.00010674
0.00014428
0.000174049
0.000193459
0.000211835
0.000229272
0.000237698
0.00023841
0.000235434
0.000224809
0.000201703
0.000168466
0.000129316
9.35287e-05
4.64232e-05
3.31453e-06
-3.27189e-05
-5.84138e-05
-7.0422e-05
-6.93993e-05
-6.22056e-05
-5.45264e-05
-4.69082e-05
-3.92826e-05
-3.349e-05
-3.10545e-05
-2.9023e-05
-2.11076e-05
-7.03755e-06
5.28483e-06
9.04717e-06
3.80227e-06
-6.27965e-06
-1.45125e-05
-1.63368e-05
-1.21988e-05
-4.12191e-06
9.08074e-06
2.93074e-05
5.59964e-05
9.02913e-05
0.000129349
0.00016273
0.000185806
0.000205998
0.000224402
0.00023393
0.000236952
0.000237995
0.000231083
0.00020972
0.000176984
0.000137943
0.000104546
5.58635e-05
9.66097e-06
-3.1172e-05
-6.29247e-05
-8.09416e-05
-8.33904e-05
-7.62203e-05
-6.64677e-05
-5.68258e-05
-4.8082e-05
-4.16987e-05
-3.90369e-05
-3.70221e-05
-2.9565e-05
-1.62506e-05
-3.59536e-06
1.85272e-06
-1.16494e-06
-1.03187e-05
-2.01817e-05
-2.56621e-05
-2.55324e-05
-2.10712e-05
-1.07484e-05
7.82682e-06
3.4015e-05
6.8072e-05
0.000107482
0.000142706
0.000168272
0.000190451
0.000210811
0.000222404
0.000227937
0.000234086
0.000234321
0.000218795
0.000188406
0.000149506
0.000118186
6.79548e-05
2.01703e-05
-2.35255e-05
-6.04963e-05
-8.54434e-05
-9.32058e-05
-8.83494e-05
-7.90318e-05
-6.92327e-05
-6.05024e-05
-5.43712e-05
-5.22411e-05
-5.06353e-05
-4.37402e-05
-3.10989e-05
-1.84392e-05
-1.10364e-05
-1.12158e-05
-1.85484e-05
-2.88304e-05
-3.68823e-05
-4.01679e-05
-3.84797e-05
-2.98822e-05
-1.21385e-05
1.37668e-05
4.74113e-05