/*--------------------------------*- C++ -*----------------------------------*\
| =========                 |                                                 |
| \\      /  F ield         | OpenFOAM: The Open Source CFD Toolbox           |
|  \\    /   O peration     | Version:  2306                                  |
|   \\  /    A nd           | Website:  www.openfoam.com                      |
|    \\/     M anipulation  |                                                 |
\*---------------------------------------------------------------------------*/
FoamFile
{
    version     2.0;
    format      ascii;
    arch        "LSB;label=32;scalar=64";
    class       volScalarField;
    location    "3";
    object      p;
}
// * * * * * * * * * * * * * * * * * * * * * * * * * * * * * * * * * * * * * //

dimensions      [0 2 -2 0 0 0 0];

internalField   nonuniform List<scalar> 
60000
(
4.18445e-05
5.16202e-06
3.81203e-05
9.47604e-05
0.00013466
0.000153454
0.000167826
0.000179155
0.000168743
0.000136256
0.000117864
0.000138594
0.00019258
0.000252142
0.000282007
0.000260781
0.000209102
0.000163408
0.000126293
7.98022e-05
2.94723e-05
1.1993e-06
2.43983e-05
9.27554e-05
0.000164373
0.000208512
0.000212452
0.000185387
0.00015754
0.000184789
0.000252506
0.000294546
0.000294131
0.000276419
0.000258229
0.000236207
0.000217038
0.000207386
0.000189305
0.000123641
4.20854e-05
3.36955e-06
3.54595e-05
9.25124e-05
0.000133455
0.000152826
0.000167117
0.000178168
0.000167452
0.000134607
0.000116011
0.000136811
0.000191062
0.000251084
0.000281601
0.000260975
0.000209598
0.000164115
0.000127032
8.04335e-05
2.96392e-05
7.22374e-07
2.35292e-05
9.18675e-05
0.000163511
0.000207453
0.000211139
0.00018414
0.000155951
0.000182683
0.000251208
0.00029424
0.000294528
0.000277659
0.000259821
0.000238125
0.000218918
0.000208906
0.000191508
0.000125535
3.97136e-05
-1.5442e-06
3.06697e-05
8.89654e-05
0.000131768
0.000152134
0.000166467
0.000177493
0.000166719
0.00013336
0.000113752
0.000133879
0.0001884
0.000249641
0.000281697
0.000262102
0.000210825
0.000164955
0.000127618
8.06548e-05
2.87911e-05
-8.14772e-07
2.20107e-05
9.08914e-05
0.000162772
0.000206487
0.000209602
0.000182321
0.000152997
0.000179092
0.000248874
0.000293321
0.00029434
0.000278417
0.000261557
0.000239743
0.000219753
0.000209687
0.000192708
0.000126003
3.42512e-05
-1.01494e-05
2.33892e-05
8.38675e-05
0.000129392
0.000151218
0.000165834
0.000177132
0.000166501
0.000132585
0.000111377
0.000130034
0.000184478
0.000247666
0.000282454
0.000264489
0.000213029
0.000166164
0.000128231
8.00573e-05
2.66653e-05
-3.39904e-06
2.0096e-05
9.03163e-05
0.000162843
0.000206201
0.000207811
0.000179608
0.000148448
0.000174004
0.000245869
0.000291907
0.000293284
0.000278598
0.000263468
0.000241747
0.000219466
0.000209853
0.000192972
0.000125
2.65785e-05
-2.18381e-05
1.39477e-05
7.68808e-05
0.000125805
0.000149673
0.000164927
0.00017689
0.000166755
0.000132694
0.000109907
0.000126377
0.000179695
0.000244525
0.00028319
0.000268003
0.000216479
0.000168134
0.000128908
7.95996e-05
2.39555e-05
-7.1475e-06
1.74024e-05
8.90185e-05
0.000162372
0.00020631
0.000205685
0.000175875
0.000142373
0.000168081
0.000243133
0.000290809
0.000291607
0.000277921
0.000265597
0.00024445
0.000219614
0.000209459
0.000194053
0.000123931
1.66368e-05
-3.72538e-05
2.54534e-06
6.75762e-05
0.000120084
0.000146882
0.000163503
0.000176367
0.000166913
0.000133485
0.000110075
0.000124634
0.000175757
0.000240606
0.000283073
0.000272122
0.000221321
0.000171339
0.000130475
7.86647e-05
1.98378e-05
-1.34686e-05
1.18906e-05
8.55165e-05
0.000157786
0.000200578
0.000199186
0.000170342
0.000134723
0.000161596
0.000241475
0.000291617
0.000290877
0.000277035
0.000268052
0.000248488
0.000221196
0.000210595
0.000197374
0.000125244
1.17298e-05
-5.91808e-05
-1.48496e-05
5.41056e-05
0.00011098
0.000141503
0.000161026
0.000175813
0.000166189
0.000133307
0.000111762
0.000125541
0.000174952
0.000237993
0.000282342
0.000276212
0.000227397
0.000176037
0.000133413
7.80602e-05
1.41484e-05
-2.39555e-05
7.17525e-07
7.91044e-05
0.000152445
0.000192703
0.000182726
0.000156332
0.000122658
0.000153234
0.0002398
0.000294775
0.000293571
0.000278618
0.000271785
0.000253415
0.000224205
0.000213576
0.000207183
0.000135092
1.82618e-05
-7.13373e-05
-3.94846e-05
3.30917e-05
9.7899e-05
0.000133575
0.00015582
0.000174186
0.000165475
0.000130296
0.000109554
0.000127681
0.000178532
0.000239818
0.000282983
0.000280245
0.000234451
0.000182169
0.000137794
7.80098e-05
7.74814e-06
-3.56411e-05
-1.1316e-05
7.43188e-05
0.000154632
0.000186402
0.000168299
0.000135298
0.000101873
0.000139857
0.000235384
0.000294286
0.000295411
0.000285001
0.000280452
0.000259007
0.000223475
0.000213102
0.000220311
0.000156882
3.76184e-05
-8.06165e-05
-7.25495e-05
3.53883e-06
8.0369e-05
0.000124353
0.000148758
0.000169524
0.00016353
0.000128452
0.000105475
0.000123111
0.000177339
0.00024543
0.000287186
0.000284734
0.000242284
0.00018977
0.000143179
7.78521e-05
2.64239e-06
-4.11562e-05
-1.25003e-05
8.34119e-05
0.000173811
0.000200083
0.000167743
0.000115809
7.24704e-05
0.000118707
0.000228961
0.000292912
0.000291438
0.000280897
0.000284166
0.000264548
0.00022042
0.000204817
0.000229367
0.00018826
7.3706e-05
-8.08516e-05
-0.000102775
-2.37604e-05
5.66139e-05
0.000113175
0.000140754
0.000162916
0.00015991
0.000126275
0.000102769
0.000117827
0.000165849
0.000235149
0.000286494
0.000288397
0.000249999
0.000198342
0.000149806
7.69078e-05
-3.5279e-06
-4.16241e-05
-9.31123e-07
0.000110724
0.000215901
0.000239675
0.000186117
0.000103692
4.15728e-05
9.18503e-05
0.000215456
0.000284956
0.000283844
0.000275266
0.000281738
0.000266899
0.000218362
0.000194723
0.000230769
0.000224307
0.000126274
-5.94699e-05
-0.000119622
-6.62368e-05
2.52291e-05
9.78814e-05
0.000133179
0.000157232
0.000157485
0.00012631
0.000100655
0.000109768
0.000152988
0.000215061
0.000265803
0.000276631
0.0002525
0.0002045
0.000157902
7.70199e-05
-1.07241e-05
-4.16501e-05
1.45662e-05
0.00014505
0.000270883
0.000303895
0.000229629
0.000110658
2.63856e-05
6.59717e-05
0.000192643
0.000265968
0.000264863
0.000265771
0.000284771
0.000272968
0.000224709
0.0001923
0.00022883
0.000256931
0.000181902
-1.37727e-05
-0.000111967
-8.91184e-05
-1.09984e-05
7.67632e-05
0.000123406
0.000154141
0.000157006
0.000128705
0.00010338
0.000106566
0.000143935
0.000197716
0.000237296
0.000244173
0.000237072
0.000196218
0.000162045
8.36156e-05
-9.00455e-06
-3.50283e-05
2.91333e-05
0.000172086
0.00031106
0.000369948
0.000296186
0.000148233
3.69003e-05
5.20316e-05
0.000163814
0.000236301
0.000241301
0.000253333
0.000289384
0.000287071
0.000246144
0.00020519
0.000229433
0.000279414
0.000223829
4.64197e-05
-7.78463e-05
-8.61878e-05
-3.23721e-05
5.91792e-05
0.000109226
0.000148743
0.000156762
0.000132374
0.000103975
0.000106647
0.000140593
0.000188976
0.00021836
0.000208877
0.000159713
0.000164515
0.000153108
9.07464e-05
9.40551e-06
-5.32749e-06
4.45071e-05
0.000170489
0.000313741
0.000403382
0.00036179
0.000211044
8.0302e-05
6.09818e-05
0.000140549
0.00020357
0.000218978
0.000238235
0.000291095
0.000301444
0.000273644
0.000237656
0.000227463
0.000287834
0.000244911
0.000108093
-2.06644e-05
-5.62369e-05
-3.33563e-05
3.15759e-05
9.94756e-05
0.000143537
0.000153799
0.000133897
0.00010477
0.000102947
0.000136865
0.000184797
0.000213487
0.000193698
0.00014225
0.000133286
0.000139751
9.48468e-05
3.09099e-05
1.68135e-05
5.89785e-05
0.000157361
0.000286155
0.000393285
0.000397801
0.000271927
0.000140709
9.17924e-05
0.000125668
0.00017509
0.000202435
0.000239816
0.000290936
0.000303427
0.000292693
0.000263249
0.00023962
0.000270023
0.000250736
0.000164709
5.35068e-05
-2.53186e-06
-1.35428e-05
2.60017e-05
9.475e-05
0.000142909
0.00015095
0.000134316
0.00010549
9.89975e-05
0.000129044
0.000176665
0.000211921
0.000201836
0.000155582
0.000145235
0.000140368
0.000106477
3.92649e-05
3.24475e-05
7.24731e-05
0.000140055
0.000251642
0.000361923
0.000406471
0.000313791
0.000192115
0.00011945
0.000115479
0.000152181
0.00018912
0.000237241
0.000281281
0.000304948
0.000298448
0.000276167
0.000244685
0.000252642
0.000247328
0.000202404
0.000125324
6.31222e-05
2.18642e-05
3.53185e-05
0.000100239
0.000144867
0.000146881
0.000122132
0.000101845
0.000100301
0.000125797
0.000166502
0.000202036
0.000207246
0.000175905
0.000155383
0.000150219
0.000113879
4.69244e-05
4.34769e-05
9.87832e-05
0.00014339
0.000202177
0.000315711
0.000385445
0.000335668
0.000232735
0.000144571
0.000113997
0.000135346
0.000172882
0.000204787
0.000255542
0.00029642
0.000305864
0.000283087
0.000244725
0.000235875
0.00023613
0.000216495
0.00016854
0.000116497
6.74173e-05
5.99818e-05
0.000111305
0.000151127
0.000141189
0.000113139
9.01966e-05
9.64258e-05
0.000122047
0.000161384
0.000196227
0.000204719
0.000182528
0.000162113
0.000156064
0.000123701
6.29508e-05
5.61123e-05
0.000130749
0.000168268
0.000182049
0.000269493
0.000338449
0.000327178
0.00025822
0.00017573
0.000122546
0.000122592
0.000159491
0.000197029
0.000238486
0.000277922
0.000302828
0.000289891
0.000248608
0.000229034
0.000206382
0.000204491
0.000184438
0.000155933
0.000118397
9.89329e-05
0.000125798
0.000151106
0.000135885
0.00010557
7.84555e-05
8.89538e-05
0.000113711
0.000150798
0.000194438
0.00021455
0.000193718
0.000166169
0.000156035
0.000129296
7.57467e-05
6.86101e-05
0.000135948
0.000183324
0.000190894
0.000248196
0.000298098
0.000306303
0.000257457
0.000181767
0.000126131
0.000122064
0.000153133
0.000196563
0.00024125
0.000275184
0.000302149
0.000286304
0.000239811
0.000191238
0.000158063
0.000186679
0.000175258
0.000154632
0.000141308
0.000145796
0.000158688
0.000157202
0.00012918
9.27949e-05
6.81159e-05
6.66666e-05
9.17444e-05
0.000121021
0.000169081
0.000209383
0.000212295
0.000188006
0.000172293
0.000158453
0.000112387
9.48058e-05
0.000128288
0.000174448
0.000188412
0.000230019
0.000284372
0.000299557
0.000249445
0.00017042
0.000125651
0.000130116
0.000154491
0.000185304
0.000234227
0.000276465
0.000298408
0.0002805
0.000230037
0.000182202
0.000148728
0.000142934
0.000148607
0.000142616
0.000136746
0.000141793
0.000157528
0.000161089
0.000136923
0.000104477
8.04175e-05
6.90872e-05
6.60782e-05
7.62278e-05
0.000111582
0.000161387
0.000184319
0.00017185
0.000172312
0.000186697
0.000171863
0.000130158
0.000121853
0.000135461
0.000167154
0.000213151
0.000277686
0.000295858
0.000244333
0.000162355
0.000117648
0.000115203
0.000136762
0.000157116
0.000215083
0.000262897
0.000278208
0.000257795
0.000217676
0.000175532
0.000156231
0.00011901
0.000104659
0.000103955
0.000126526
0.000153429
0.000167724
0.000153998
0.000124786
0.000103281
9.11906e-05
7.96842e-05
6.62534e-05
6.11866e-05
7.41152e-05
0.000109476
0.000143935
0.000154089
0.000162206
0.000183397
0.000187432
0.000155058
0.000117698
0.000113377
0.000148302
0.000207021
0.000286567
0.000299219
0.000236379
0.000133576
6.20962e-05
5.78362e-05
9.7554e-05
0.000150095
0.000203738
0.000248422
0.000261748
0.000249335
0.000223263
0.000185585
0.000212542
0.000174678
0.000130418
9.09475e-05
0.000116683
0.000140932
0.000160297
0.000151756
0.000127393
0.000107408
9.46908e-05
8.53779e-05
7.87687e-05
7.83774e-05
8.05423e-05
8.77154e-05
0.000104734
0.00012478
0.000150601
0.000179207
0.0001879
0.000166167
0.000136882
0.000125852
0.000144394
0.000185124
0.000276153
0.000315489
0.000253789
0.000140556
5.27388e-05
1.56754e-05
5.10373e-05
0.000119739
0.000198939
0.00025211
0.00025316
0.000229104
0.000207323
0.000227096
0.000210514
0.00019456
0.000170136
0.000156
0.000123832
0.000117704
0.000128899
0.000128495
0.00012373
0.000119375
0.000109238
9.68101e-05
9.17751e-05
0.000101126
0.000108824
0.000112951
0.000115736
0.000122886
0.000146574
0.000173968
0.000187081
0.000175495
0.000154618
0.000144861
0.000153551
0.00017446
0.000245944
0.000281436
0.000247208
0.000164729
8.83299e-05
5.10736e-05
6.60253e-05
0.000115832
0.000180924
0.000226836
0.000235215
0.0002189
0.000203948
0.000208923
0.000220864
0.000197015
0.000152308
0.000113305
8.36581e-05
8.85317e-05
0.000102494
0.00011823
0.000132527
0.000141087
0.000137852
0.000126066
0.000114637
0.00010339
0.000100399
9.63707e-05
0.000124703
0.000144886
0.000157611
0.000179908
0.000195295
0.000190982
0.000173193
0.000154078
0.000141497
0.000152973
0.000199294
0.000240127
0.000235085
0.000179716
0.000113337
7.56222e-05
7.62091e-05
0.000106639
0.000152618
0.000196836
0.000210314
0.000202171
0.000203688
0.000213689
0.000218035
0.000197624
0.000152777
0.000102773
6.31986e-05
6.16741e-05
7.75816e-05
0.000100047
0.000123351
0.000139551
0.000139313
0.000123964
0.000112688
0.000120709
0.000128939
0.000128749
0.000126711
0.000139573
0.000168067
0.000207403
0.000230354
0.000223101
0.000190803
0.000155239
0.000128644
0.000122664
0.000146125
0.000184529
0.000210893
0.000189107
0.000140128
0.000101548
8.59626e-05
0.000102838
0.000137777
0.000173816
0.000189857
0.000194943
0.000190166
0.000201359
0.000116592
5.98075e-08
-5.13733e-05
-4.00636e-05
9.20945e-06
6.84428e-05
0.00012159
0.000153693
0.000144233
0.000106519
8.96782e-05
0.000118576
0.000173761
0.000218592
0.000228495
0.000201543
0.000166092
0.000147767
0.000136859
0.000106574
5.50137e-05
1.70142e-05
2.87756e-05
0.000103655
0.000210875
0.000286452
0.000305637
0.000306059
0.000299443
0.000289263
0.000300017
0.000320356
0.000337326
0.000344217
0.000331944
0.000299322
0.000275911
0.000289957
0.000298466
0.000241635
0.000119847
2.22842e-06
-5.10169e-05
-4.11978e-05
7.38519e-06
6.61992e-05
0.000119857
0.000152469
0.00014289
0.000105133
8.76401e-05
0.000116892
0.000172557
0.000217823
0.000228046
0.000201267
0.000165842
0.000147616
0.00013698
0.000106857
5.50234e-05
1.62465e-05
2.67844e-05
0.000100383
0.00020693
0.00028267
0.00030202
0.000302816
0.00029721
0.000287667
0.000298342
0.000318392
0.000335603
0.000343448
0.000332303
0.00030062
0.000277109
0.000291879
0.000301092
0.000245206
0.000122472
1.8433e-06
-5.38487e-05
-4.50668e-05
3.71935e-06
6.3345e-05
0.000118043
0.000151609
0.000142189
0.000103567
8.50735e-05
0.000114211
0.000170722
0.00021683
0.000227548
0.000200861
0.000165307
0.000147284
0.00013721
0.000107371
5.48706e-05
1.49225e-05
2.43134e-05
9.71811e-05
0.000203812
0.000280158
0.00029912
0.000299814
0.000295502
0.000286681
0.000296855
0.000315814
0.000332774
0.000342188
0.000333217
0.000302147
0.000278156
0.000293419
0.000304677
0.000249744
0.000123582
-2.63586e-06
-6.11298e-05
-5.23256e-05
-1.94264e-06
5.94336e-05
0.000115979
0.00015116
0.000142027
0.000102137
8.19074e-05
0.000110562
0.000168116
0.000215582
0.00022706
0.000200307
0.000164371
0.000146706
0.000137466
0.000108132
5.45143e-05
1.31792e-05
2.20559e-05
9.53746e-05
0.000203101
0.000280361
0.000297946
0.000297504
0.000294309
0.000286218
0.000295886
0.0003133
0.000329143
0.000339877
0.000333955
0.000303752
0.000278683
0.00029452
0.000309541
0.000255093
0.000124015
-1.12868e-05
-7.30351e-05
-6.32872e-05
-9.95555e-06
5.39947e-05
0.000113182
0.000150798
0.000142347
0.000101518
7.94636e-05
0.000106955
0.000164929
0.000213775
0.000226401
0.000199527
0.000162899
0.000145743
0.00013786
0.000108583
5.38199e-05
1.08904e-05
1.98313e-05
9.45337e-05
0.000203917
0.000282385
0.000298046
0.000295784
0.000293367
0.000285924
0.000295684
0.000311909
0.000325687
0.000336292
0.00033297
0.000304166
0.000277798
0.000296186
0.00031574
0.00026185
0.000125264
-2.27262e-05
-8.90566e-05
-7.81026e-05
-2.08717e-05
4.5975e-05
0.000108556
0.000149631
0.00014255
0.000101586
7.8894e-05
0.000105814
0.000162888
0.00021169
0.000225359
0.000198625
0.000161071
0.000144471
0.000138467
0.000109284
5.22679e-05
7.24266e-06
1.518e-05
9.08233e-05
0.000201711
0.000280465
0.000294569
0.000291915
0.00029171
0.00028524
0.000296117
0.000312574
0.000324121
0.000332588
0.000329818
0.000300662
0.000273799
0.000297498
0.000325962
0.000271217
0.000132762
-2.97876e-05
-0.000107004
-9.66794e-05
-3.4807e-05
3.49099e-05
0.000100602
0.000146368
0.000141496
0.000100675
7.86671e-05
0.000107389
0.000164576
0.000211567
0.000224404
0.000197699
0.000159223
0.000143188
0.000139472
0.000110487
4.97909e-05
-9.8936e-07
1.70909e-06
7.70957e-05
0.000191807
0.000270772
0.000281034
0.000276992
0.000283251
0.000281271
0.000295475
0.000314691
0.000325398
0.000330696
0.000325741
0.000293239
0.000263224
0.000295581
0.000341186
0.000290068
0.000153836
-2.48738e-05
-0.000117677
-0.00011749
-5.19467e-05
2.17786e-05
8.95214e-05
0.000139995
0.000139673
9.9825e-05
7.69136e-05
0.000104751
0.000165683
0.000214296
0.000225422
0.000197441
0.000157545
0.000141924
0.000140681
0.000111848
4.60507e-05
-1.46844e-05
-2.257e-05
4.85736e-05
0.000170013
0.00025545
0.000260809
0.0002506
0.000261575
0.000268362
0.000289807
0.000312315
0.000325754
0.000331042
0.000323768
0.000285104
0.000247257
0.000285746
0.000357946
0.000320724
0.000191024
-6.23914e-06
-0.000116128
-0.000136235
-7.18671e-05
5.33034e-06
7.66762e-05
0.000130985
0.000136621
0.000100732
7.8116e-05
0.000100283
0.000158037
0.000210895
0.000226655
0.000198918
0.000156816
0.000140561
0.000141361
0.000112157
4.23567e-05
-2.71113e-05
-4.59431e-05
1.6663e-05
0.000140793
0.000236213
0.000242181
0.000218747
0.000229524
0.000244084
0.000278202
0.000308439
0.000319409
0.000323245
0.000321755
0.00028356
0.00023412
0.000269499
0.000370562
0.000360451
0.000241964
2.55954e-05
-0.000105554
-0.000151479
-9.31851e-05
-1.43849e-05
6.2439e-05
0.00012097
0.000132945
0.00010058
7.91666e-05
9.80979e-05
0.00014871
0.000198231
0.000218113
0.000198519
0.000157601
0.000139551
0.000141129
0.000110487
3.69189e-05
-3.31628e-05
-5.23734e-05
3.9009e-06
0.000123691
0.000220184
0.000228464
0.000193132
0.000191188
0.000209239
0.00025672
0.000303696
0.000316488
0.000313966
0.000316441
0.000286333
0.000234368
0.000256883
0.000374649
0.000401605
0.000300045
7.26279e-05
-8.73424e-05
-0.000147533
-0.000115199
-3.812e-05
4.85941e-05
0.000113525
0.000130312
0.000100685
7.94377e-05
9.58346e-05
0.000140811
0.000184282
0.000200442
0.000185517
0.000152633
0.00013668
0.000139586
0.000105809
2.82391e-05
-3.6343e-05
-4.42091e-05
1.40581e-05
0.000131295
0.000221105
0.000225122
0.000179553
0.000151947
0.000168976
0.000227316
0.000292073
0.000313757
0.000312655
0.000317383
0.000300444
0.000249271
0.000259015
0.000374036
0.000432887
0.000351003
0.000132179
-5.04677e-05
-0.000135814
-0.000130058
-6.70068e-05
3.20964e-05
0.000108627
0.000130945
0.000101569
7.67104e-05
9.02222e-05
0.000134025
0.000172956
0.00018234
0.000165583
0.000137226
0.000125619
0.000131969
9.8557e-05
1.75874e-05
-4.01458e-05
-3.00651e-05
3.34276e-05
0.000150964
0.000236973
0.000236411
0.000184987
0.000136667
0.000137141
0.000192716
0.000266088
0.000299881
0.000307345
0.000320064
0.000316306
0.000276748
0.00027255
0.000372909
0.000448482
0.000383518
0.00019261
3.11575e-06
-0.000106367
-0.000133003
-9.78741e-05
1.20366e-05
9.91175e-05
0.000130321
0.000100584
7.19466e-05
8.08714e-05
0.000129038
0.000170054
0.000172014
0.000146871
0.00011638
0.000110365
0.000121816
9.13442e-05
1.1709e-05
-4.18029e-05
-1.6584e-05
5.6431e-05
0.000153998
0.00024511
0.000253636
0.000204768
0.000157136
0.000131242
0.000163665
0.000231995
0.000274253
0.000293681
0.000319128
0.000330911
0.000299547
0.000285576
0.000364302
0.000445443
0.000392296
0.000242048
6.50471e-05
-5.7867e-05
-0.00011281
-9.34002e-05
-6.36066e-06
8.73713e-05
0.000128671
9.76455e-05
6.88371e-05
7.19314e-05
0.000126439
0.000172943
0.000173334
0.000141879
0.000107177
0.0001037
0.000120289
9.11634e-05
8.07702e-06
-2.08928e-05
3.62888e-06
6.61905e-05
0.000145849
0.000234018
0.000263903
0.000228284
0.000185824
0.000146059
0.000154055
0.000201707
0.000239857
0.000266404
0.000303853
0.000337625
0.000316391
0.000288164
0.00034437
0.000419667
0.000378724
0.000277958
0.000127324
2.53958e-06
-7.23528e-05
-7.83427e-05
-8.43972e-06
7.67101e-05
0.000124152
0.000107867
7.01135e-05
6.38232e-05
0.000123025
0.000173149
0.000176798
0.000158022
0.00012987
0.000128955
0.000127272
8.20794e-05
2.87302e-05
3.18001e-06
3.04679e-05
7.8036e-05
0.000126567
0.000221801
0.00027502
0.000252211
0.000207572
0.00016257
0.000154445
0.000180006
0.000212231
0.000242811
0.000278084
0.000319714
0.000320238
0.000287038
0.000312357
0.000376024
0.000345166
0.000292022
0.000182268
7.03676e-05
-1.08877e-05
-4.12662e-05
-1.96088e-06
7.02138e-05
0.000110573
9.95848e-05
7.26754e-05
6.66775e-05
0.00012162
0.000174287
0.000191167
0.000175209
0.000150288
0.000141105
0.000130897
8.43644e-05
2.58558e-05
1.39928e-05
5.89886e-05
0.000101748
0.00013121
0.000210496
0.000280906
0.000280449
0.000228971
0.000172333
0.000147682
0.000168213
0.000193869
0.000221968
0.000257905
0.000304804
0.000326769
0.000297712
0.000291239
0.000311572
0.000313838
0.000287643
0.000206521
0.000121515
6.51485e-05
3.71077e-05
4.22617e-05
6.8694e-05
9.37804e-05
8.14856e-05
6.47599e-05
7.0306e-05
0.000118938
0.000176327
0.000200616
0.000187292
0.000166379
0.000150422
0.000137597
9.86712e-05
3.66811e-05
2.59742e-05
8.35563e-05
0.000136289
0.000156105
0.000208816
0.000271713
0.000287111
0.00024191
0.000182251
0.000150015
0.000157605
0.000181845
0.000215289
0.000247742
0.000291306
0.00032898
0.000311205
0.000276346
0.000303577
0.000273027
0.00026657
0.000221054
0.000160113
0.000127181
0.000114404
0.000106646
9.35892e-05
8.51186e-05
6.7396e-05
5.13368e-05
5.93854e-05
0.000115167
0.000173593
0.000206623
0.000200729
0.000177457
0.000154877
0.000139887
0.000116137
6.6777e-05
4.41504e-05
8.65671e-05
0.000152319
0.000178184
0.000231753
0.000266725
0.000284762
0.000244975
0.0001842
0.000150834
0.000153233
0.000172739
0.00020789
0.000244805
0.000292433
0.000322921
0.000310272
0.000263472
0.00027505
0.000235415
0.000235602
0.000215536
0.000169873
0.000157648
0.000183021
0.000177108
0.000138382
9.35694e-05
6.64649e-05
4.93336e-05
4.80471e-05
7.65863e-05
0.000133811
0.000183106
0.000210814
0.000201985
0.00016974
0.000139742
0.000134344
0.000102045
6.98314e-05
8.89114e-05
0.000143809
0.000174744
0.000224079
0.000273588
0.000282533
0.000240395
0.000181435
0.00015181
0.000153114
0.000167926
0.000198659
0.000234369
0.000278818
0.00030656
0.000296998
0.000250156
0.000217799
0.000180473
0.000186042
0.000193856
0.000181077
0.00016839
0.000170689
0.000174684
0.000161452
0.000125866
8.94856e-05
6.16699e-05
4.54539e-05
5.13516e-05
8.11851e-05
0.000121301
0.000161751
0.000183885
0.000176933
0.000163097
0.000160968
0.00014443
0.000106575
8.72718e-05
8.65395e-05
0.00014059
0.000204818
0.00027201
0.000280462
0.000230309
0.000170466
0.000145178
0.000152267
0.000171886
0.000206215
0.000224606
0.000257685
0.000274899
0.000266307
0.000234941
0.000197682
0.00017005
0.00015312
0.000154284
0.000151792
0.000159111
0.000180211
0.000191394
0.000166945
0.000125233
9.51156e-05
7.61499e-05
5.13268e-05
3.54277e-05
4.41098e-05
6.60755e-05
9.78982e-05
0.000129996
0.000152588
0.000167765
0.000173216
0.000158604
0.000127172
9.90884e-05
0.000101047
0.000138045
0.000200424
0.0002613
0.000271807
0.000219707
0.00014847
0.000116385
0.000117216
0.000153173
0.000198807
0.000228389
0.000247809
0.000252527
0.000249216
0.000234288
0.000203051
0.000217874
0.000187142
0.000160803
0.000136439
0.000153798
0.000173725
0.000188271
0.000168374
0.000129305
0.00010015
8.69818e-05
7.94035e-05
6.47398e-05
5.88595e-05
5.40504e-05
5.82552e-05
7.0121e-05
9.69921e-05
0.00013211
0.000157643
0.000160224
0.000145044
0.000129114
0.000127869
0.000148716
0.000196357
0.000248208
0.000268052
0.000228103
0.000155972
9.78992e-05
8.09475e-05
0.000114527
0.000170852
0.000226172
0.000254287
0.000244023
0.00022502
0.000209943
0.000226397
0.000215791
0.000198434
0.000176829
0.000161211
0.000153821
0.00014954
0.000163325
0.000150011
0.000127548
0.000112379
0.000103717
9.96457e-05
0.00010168
0.00011864
0.000114702
0.000107646
9.55294e-05
9.57199e-05
0.000117582
0.000147013
0.000155901
0.00014128
0.000125723
0.000128273
0.000148792
0.000181514
0.000225243
0.000247709
0.000225008
0.000167062
0.000110839
8.37704e-05
9.84187e-05
0.000145095
0.000198536
0.000232541
0.000232749
0.000214689
0.000208157
0.000214713
0.000220788
0.000201694
0.000168028
0.000139021
0.000127349
0.000120662
0.000121238
0.00012163
0.000124464
0.000132321
0.000133783
0.000124154
0.0001119
9.6564e-05
0.000106131
0.00011277
0.000125037
0.000135923
0.000147524
0.000161219
0.000168411
0.000162911
0.000149717
0.000140278
0.000141353
0.000158018
0.000191841
0.000219677
0.000215782
0.000173793
0.000119397
9.13021e-05
9.44647e-05
0.000126427
0.000170303
0.000205476
0.000212151
0.000201431
0.000201713
0.000214365
0.000224435
0.000202918
0.000158342
0.000112623
8.25347e-05
6.9672e-05
7.74321e-05
9.37383e-05
0.000116326
0.000136297
0.000141643
0.000129869
0.000117048
0.000117772
0.000125936
0.000126232
0.000126747
0.000138551
0.000168459
0.00019862
0.000215176
0.000205676
0.000175004
0.000143781
0.000129413
0.000132324
0.000153391
0.000183504
0.000202228
0.000184899
0.000145589
0.00011494
0.000115339
0.000128583
0.000154271
0.000182585
0.000187199
0.00019302
0.000201281
0.0002167
0.000184091
0.00011493
4.59493e-05
7.04571e-06
7.48819e-06
3.62887e-05
8.40831e-05
0.000131476
0.000142591
0.000111898
8.25078e-05
9.25128e-05
0.00013194
0.000163778
0.000167092
0.000148953
0.000133466
0.000132875
0.000131743
0.000109357
7.7904e-05
5.80565e-05
6.51492e-05
0.000114142
0.00019531
0.000264106
0.000301404
0.000317711
0.000311785
0.000298739
0.000309193
0.000336996
0.00037309
0.000397417
0.00039414
0.00037454
0.000337345
0.000312742
0.000290311
0.000247268
0.000187114
0.000117277
4.72442e-05
7.89196e-06
7.45093e-06
3.59128e-05
8.3527e-05
0.000131052
0.000142551
0.000112097
8.26246e-05
9.25296e-05
0.000132078
0.000164065
0.000167239
0.00014879
0.00013308
0.000132525
0.000131394
0.000108981
7.72632e-05
5.72463e-05
6.40483e-05
0.000112541
0.00019335
0.000261895
0.000298847
0.000315041
0.000309024
0.00029514
0.000304668
0.000332086
0.000368655
0.000394703
0.000393188
0.000375261
0.000338187
0.000314204
0.000293145
0.000250316
0.000189581
0.000118327
4.64465e-05
6.54071e-06
5.5668e-06
3.41694e-05
8.20849e-05
0.000130351
0.000142622
0.000112204
8.20788e-05
9.16404e-05
0.000131561
0.000163926
0.000167011
0.000148218
0.000132401
0.000132266
0.00013129
0.000108815
7.65244e-05
5.61924e-05
6.2559e-05
0.000110643
0.000191675
0.000260378
0.000296985
0.000313194
0.000307279
0.000292343
0.000300301
0.000326069
0.000362389
0.000391372
0.000393346
0.000377106
0.000340807
0.000317422
0.000296836
0.00025368
0.000190948
0.000117368
4.31641e-05
2.06421e-06
9.5285e-07
3.02284e-05
7.91248e-05
0.000128944
0.000142342
0.000111602
8.01339e-05
8.90397e-05
0.000129637
0.000162762
0.000165997
0.000146696
0.000131134
0.000132099
0.000131838
0.000109003
7.57224e-05
5.50111e-05
6.10461e-05
0.000109152
0.000191418
0.000260788
0.000296778
0.000312804
0.000307103
0.000291054
0.000297422
0.000320467
0.000354965
0.000387122
0.000394581
0.000380735
0.000345728
0.000322843
0.000302246
0.000257549
0.000191171
0.000114723
3.73898e-05
-5.47851e-06
-6.60753e-06
2.36926e-05
7.41699e-05
0.00012639
0.000141337
0.000109989
7.65863e-05
8.43774e-05
0.000125516
0.000159558
0.000162852
0.000143373
0.000128555
0.000131567
0.00013273
0.000109398
7.4499e-05
5.33953e-05
5.93572e-05
0.000107975
0.000192756
0.000263693
0.000298874
0.000313767
0.00030801
0.00029114
0.00029709
0.000317474
0.000347773
0.00038141
0.000395803
0.000385473
0.000353074
0.000331065
0.000310126
0.000262516
0.000191911
0.000111147
3.10643e-05
-1.57467e-05
-1.72298e-05
1.41714e-05
6.684e-05
0.000122377
0.000139417
0.000107571
7.21413e-05
7.83504e-05
0.000119188
0.000153411
0.000156726
0.000137336
0.000123839
0.000130064
0.000133767
0.000109941
7.29107e-05
5.05768e-05
5.55274e-05
0.00010388
0.000192141
0.00026733
0.000303015
0.000316268
0.000308795
0.000291269
0.00029914
0.000319166
0.000343377
0.000374973
0.000395456
0.000389432
0.00036261
0.000343048
0.000321776
0.000269723
0.000194704
0.000106198
2.36596e-05
-2.79108e-05
-3.05751e-05
1.12918e-06
5.58452e-05
0.000116019
0.000136264
0.000104621
6.81165e-05
7.33288e-05
0.000112539
0.000144626
0.000147133
0.000127916
0.000116688
0.000127397
0.000135012
0.000111062
7.12945e-05
4.64957e-05
4.69335e-05
9.08344e-05
0.000181018
0.000261984
0.000302461
0.000318461
0.000308622
0.000287621
0.000299815
0.000324728
0.000344048
0.00036961
0.000392776
0.000388495
0.000372964
0.000359816
0.000339365
0.000281381
0.000201895
0.00010462
1.61678e-05
-3.96396e-05
-4.51573e-05
-1.56498e-05
4.02411e-05
0.000104583
0.000129924
0.000100201
6.42246e-05
6.89794e-05
0.000107092
0.000137214
0.000136993
0.000116236
0.000107768
0.000124129
0.000136954
0.000113177
7.01198e-05
4.12121e-05
3.20699e-05
6.57869e-05
0.000156017
0.000244061
0.000288566
0.000311274
0.000306827
0.000280411
0.000290351
0.000321795
0.000345968
0.00036614
0.000388854
0.000385827
0.000380121
0.000380358
0.000365354
0.000300975
0.000217011
0.0001081
1.34e-05
-4.83873e-05
-5.83672e-05
-3.13241e-05
2.21938e-05
8.88802e-05
0.000119149
9.28065e-05
5.83182e-05
6.28694e-05
9.63046e-05
0.000120862
0.000120877
0.000104127
9.80778e-05
0.0001205
0.000139508
0.000115791
6.86431e-05
3.41947e-05
1.27413e-05
3.12428e-05
0.000118225
0.000216261
0.000265311
0.000291333
0.000296943
0.00027275
0.000278451
0.00030453
0.000327414
0.000355408
0.000383266
0.000380867
0.000377433
0.000398667
0.000405873
0.000332362
0.000244946
0.000120328
1.68865e-05
-5.22285e-05
-6.6766e-05
-4.44065e-05
7.32888e-06
7.38e-05
0.000106381
8.26636e-05
4.89251e-05
5.22199e-05
7.98368e-05
9.64158e-05
9.21695e-05
7.89989e-05
8.1269e-05
0.00011327
0.000140439
0.00011726
6.6629e-05
3.00555e-05
-6.40027e-07
-3.21499e-07
7.58593e-05
0.00018427
0.000241567
0.000266192
0.000276702
0.000258539
0.000267278
0.000288494
0.000297911
0.000324413
0.000367379
0.000374971
0.000372727
0.00040422
0.000439213
0.000374758
0.000287008
0.00014732
3.13132e-05
-4.85684e-05
-7.32055e-05
-5.37146e-05
4.70967e-07
7.00815e-05
9.93838e-05
7.42276e-05
3.84983e-05
3.90583e-05
6.07586e-05
7.32704e-05
6.84058e-05
5.41701e-05
5.74556e-05
9.76256e-05
0.000136737
0.000117155
6.41828e-05
3.37351e-05
2.79084e-06
-1.03888e-05
4.61534e-05
0.000154703
0.000226298
0.000252028
0.000258103
0.000237233
0.000250962
0.000275989
0.000280146
0.000289848
0.000336264