/*--------------------------------*- C++ -*----------------------------------*\
| =========                 |                                                 |
| \\      /  F ield         | OpenFOAM: The Open Source CFD Toolbox           |
|  \\    /   O peration     | Version:  2306                                  |
|   \\  /    A nd           | Website:  www.openfoam.com                      |
|    \\/     M anipulation  |                                                 |
\*---------------------------------------------------------------------------*/
FoamFile
{
    version     2.0;
    format      ascii;
    arch        "LSB;label=32;scalar=64";
    class       surfaceScalarField;
    location    "3";
    object      phi;
}
// * * * * * * * * * * * * * * * * * * * * * * * * * * * * * * * * * * * * * //

dimensions      [0 3 -1 0 0 0 0];

oriented        oriented;

internalField   nonuniform List<scalar> 
175300
(
6.49189e-06
1.02554e-06
1.18873e-06
6.4087e-06
6.52147e-07
1.83109e-06
6.26772e-06
9.55779e-08
2.24184e-06
6.14691e-06
-2.73212e-07
2.31589e-06
6.04753e-06
-3.30007e-07
2.14391e-06
5.93276e-06
-1.93723e-07
1.83414e-06
5.78594e-06
-7.35312e-08
1.48483e-06
5.56832e-06
-3.67214e-08
1.21368e-06
5.1939e-06
-3.05931e-08
1.1225e-06
4.63493e-06
-6.10278e-08
1.20848e-06
4.05827e-06
-2.12402e-07
1.35616e-06
3.6815e-06
-4.66645e-07
1.44143e-06
3.57654e-06
-7.06819e-07
1.45899e-06
3.65971e-06
-8.38233e-07
1.39681e-06
3.78953e-06
-7.98376e-07
1.19076e-06
3.86147e-06
-5.45645e-07
8.3273e-07
3.91948e-06
-2.20179e-07
4.14037e-07
4.06039e-06
1.80827e-08
3.95602e-08
4.27702e-06
1.74452e-07
-2.55032e-07
4.49421e-06
2.79994e-07
-4.79129e-07
4.69772e-06
2.84167e-07
-6.48729e-07
4.90907e-06
8.32983e-08
-7.92821e-07
5.19649e-06
-2.46559e-07
-9.7511e-07
5.54163e-06
-4.50435e-07
-1.28235e-06
5.80966e-06
-4.00967e-07
-1.63261e-06
5.88474e-06
-2.76588e-07
-1.83045e-06
5.70139e-06
-8.90571e-08
-1.9099e-06
5.26026e-06
1.71681e-07
-2.00037e-06
4.68576e-06
2.71009e-07
-1.99536e-06
4.23578e-06
-2.55665e-08
-1.84574e-06
4.0103e-06
-3.6713e-07
-1.77192e-06
3.93438e-06
-3.79037e-07
-1.86782e-06
3.98223e-06
-2.00548e-07
-1.90779e-06
4.16904e-06
1.66529e-08
-1.6788e-06
4.46514e-06
3.3044e-07
-1.21578e-06
4.80427e-06
7.22689e-07
-7.34258e-07
5.19213e-06
9.34469e-07
-3.86375e-07
5.64777e-06
8.88011e-07
-1.01025e-07
6.11153e-06
8.63389e-07
1.90529e-07
1.03245e-06
5.96035e-07
2.18324e-05
2.67061e-06
4.09658e-06
2.18295e-05
1.37434e-06
5.68714e-06
2.14202e-05
-2.22457e-07
6.49953e-06
2.09058e-05
-1.1737e-06
6.50853e-06
2.0466e-05
-1.22225e-06
6.062e-06
2.00635e-05
-7.83488e-07
5.38037e-06
1.95712e-05
-4.05374e-07
4.56449e-06
1.88098e-05
-2.21155e-07
3.82357e-06
1.75764e-05
-1.40377e-07
3.46303e-06
1.58685e-05
-2.50554e-07
3.60471e-06
1.41145e-05
-8.05466e-07
4.03773e-06
1.28748e-05
-1.73473e-06
4.39343e-06
1.23593e-05
-2.61298e-06
4.462e-06
1.23479e-05
-2.99493e-06
4.13745e-06
1.24902e-05
-2.68602e-06
3.38528e-06
1.2604e-05
-1.74734e-06
2.32566e-06
1.28209e-05
-6.89487e-07
1.20289e-06
1.33053e-05
2.0293e-08
2.25364e-07
1.39973e-05
4.56826e-07
-5.79509e-07
1.47609e-05
6.78112e-07
-1.22581e-06
1.55893e-05
4.73224e-07
-1.75122e-06
1.65367e-05
-3.77443e-07
-2.23269e-06
1.76698e-05
-1.49677e-06
-2.84997e-06
1.88458e-05
-2.0883e-06
-3.76089e-06
1.97037e-05
-1.8424e-06
-4.70726e-06
1.99164e-05
-1.29066e-06
-5.22785e-06
1.93032e-05
-5.44783e-07
-5.36888e-06
1.79529e-05
2.84901e-07
-5.39091e-06
1.6288e-05
4.72604e-07
-5.21236e-06
1.48465e-05
-4.21969e-07
-4.96603e-06
1.38277e-05
-1.306e-06
-5.10645e-06
1.32427e-05
-1.26205e-06
-5.56421e-06
1.3203e-05
-7.38202e-07
-5.60834e-06
1.37425e-05
-7.15311e-08
-4.77454e-06
1.46882e-05
9.828e-07
-3.34607e-06
1.5839e-05
2.26409e-06
-1.94565e-06
1.7173e-05
2.92965e-06
-8.95826e-07
1.86781e-05
2.74289e-06
4.11683e-08
2.01615e-05
2.67804e-06
9.89464e-07
2.98772e-06
2.3598e-06
4.09861e-05
3.97812e-06
6.9717e-06
4.13765e-05
1.51937e-06
9.5521e-06
4.07035e-05
-1.20984e-06
1.07744e-05
3.95738e-05
-2.68455e-06
1.06486e-05
3.85813e-05
-2.60069e-06
9.91078e-06
3.78054e-05
-1.7515e-06
9.01881e-06
3.6964e-05
-1.0405e-06
7.97222e-06
3.56932e-05
-6.04482e-07
6.84301e-06
3.36858e-05
-3.5514e-07
6.03166e-06
3.08879e-05
-4.95065e-07
5.92111e-06
2.77819e-05
-1.46048e-06
6.48925e-06
2.52141e-05
-3.26453e-06
7.26629e-06
2.37401e-05
-5.16934e-06
7.63007e-06
2.3209e-05
-6.0805e-06
7.17981e-06
2.31064e-05
-5.47981e-06
5.96463e-06
2.31387e-05
-3.61606e-06
4.30094e-06
2.34771e-05
-1.56913e-06
2.55391e-06
2.43217e-05
-2.29792e-07
9.88461e-07
2.55577e-05
5.10231e-07
-2.90384e-07
2.70004e-05
7.40556e-07
-1.37179e-06
2.8662e-05
5.90744e-08
-2.21881e-06
3.06249e-05
-2.00132e-06
-2.95843e-06
3.29144e-05
-4.47139e-06
-3.94788e-06
3.5236e-05
-5.70148e-06
-5.50135e-06
3.69917e-05
-5.08377e-06
-7.23482e-06
3.76217e-05
-3.65956e-06
-8.33345e-06
3.67941e-05
-1.82578e-06
-8.65589e-06
3.46557e-05
-2.35715e-08
-8.51641e-06
3.18791e-05
3.71978e-07
-7.99351e-06
2.92179e-05
-1.2015e-06
-7.53967e-06
2.69542e-05
-2.69223e-06
-7.91389e-06
2.52557e-05
-2.57197e-06
-8.95989e-06
2.457e-05
-1.7085e-06
-9.42317e-06
2.51532e-05
-6.50303e-07
-8.34808e-06
2.67194e-05
1.23568e-06
-6.0864e-06
2.88346e-05
3.64519e-06
-3.72285e-06
3.13588e-05
5.00967e-06
-1.86137e-06
3.42135e-05
4.58645e-06
-1.20344e-07
3.70817e-05
4.44347e-06
1.60328e-06
4.82031e-06
4.02301e-06
6.39175e-05
3.9743e-06
8.89227e-06
6.52517e-05
4.8571e-07
1.28852e-05
6.44748e-05
-3.07304e-06
1.49464e-05
6.24992e-05
-4.72591e-06
1.47967e-05
6.06509e-05
-4.32108e-06
1.35916e-05
5.93884e-05
-2.97539e-06
1.24537e-05
5.82811e-05
-1.90855e-06
1.14618e-05
5.67071e-05
-1.17769e-06
1.0264e-05
5.42424e-05
-6.81274e-07
8.95826e-06
5.06854e-05
-7.18276e-07
8.14321e-06
4.6262e-05
-1.80466e-06
8.37501e-06
4.18399e-05
-4.26173e-06
9.56128e-06
3.85074e-05
-7.42107e-06
1.06944e-05
3.66489e-05
-9.41734e-06
1.06055e-05
3.58027e-05
-8.96096e-06
9.19703e-06
3.54803e-05
-6.28289e-06
7.10377e-06
3.57801e-05
-3.1558e-06
4.87725e-06
3.68964e-05
-1.06419e-06
2.81941e-06
3.86482e-05
1.31766e-08
1.13938e-06
4.07868e-05
1.27436e-07
-1.63256e-07
4.33486e-05
-1.41851e-06
-1.21519e-06
4.64879e-05
-5.42357e-06
-1.91509e-06
5.0234e-05
-1.01442e-05
-2.97894e-06
5.4152e-05
-1.25534e-05
-5.15687e-06
5.73684e-05
-1.14272e-05
-8.10487e-06
5.90422e-05
-8.47456e-06
-1.04767e-05
5.86011e-05
-4.67373e-06
-1.1581e-05
5.61163e-05
-1.1435e-06
-1.15486e-05
5.24124e-05
-1.52354e-07
-1.0549e-05
4.84674e-05
-2.3208e-06
-9.45651e-06
4.46389e-05
-4.38426e-06
-9.67251e-06
4.11276e-05
-4.11893e-06
-1.13444e-05
3.87591e-05
-2.99295e-06
-1.28695e-05
3.8453e-05
-1.94589e-06
-1.25109e-05
4.01847e-05
2.73656e-07
-1.00874e-05
4.32381e-05
3.59712e-06
-6.95607e-06
4.7168e-05
5.63792e-06
-4.25287e-06
5.17421e-05
5.03019e-06
-1.77436e-06
5.6485e-05
4.5713e-06
1.06558e-06
5.20835e-06
4.54531e-06
8.95193e-05
1.06789e-06
8.37402e-06
9.27765e-05
-2.80497e-06
1.44959e-05
9.24533e-05
-6.34312e-06
1.84039e-05
8.95272e-05
-7.29492e-06
1.89407e-05
8.64341e-05
-6.17716e-06
1.71797e-05
8.45116e-05
-4.26456e-06
1.53916e-05
8.33015e-05
-2.85456e-06
1.45079e-05
8.1779e-05
-1.86765e-06
1.38178e-05
7.93462e-05
-1.12049e-06
1.24706e-05
7.56659e-05
-9.54935e-07
1.06835e-05
7.04713e-05
-1.70366e-06
9.7471e-06
6.41293e-05
-4.08247e-06
1.07681e-05
5.80026e-05
-8.19543e-06
1.30197e-05
5.35129e-05
-1.18053e-05
1.41338e-05
5.09245e-05
-1.24302e-05
1.30529e-05
4.9664e-05
-9.58128e-06
1.07333e-05
4.95539e-05
-5.56005e-06
8.2273e-06
5.06508e-05
-2.67581e-06
5.93351e-06
5.26471e-05
-1.1469e-06
4.05791e-06
5.51697e-05
-1.09853e-06
2.71489e-06
5.82497e-05
-3.96869e-06
2.08927e-06
6.22429e-05
-1.09737e-05
2.16047e-06
6.74364e-05
-1.94641e-05
1.85431e-06
7.34672e-05
-2.43636e-05
-4.78646e-07
7.91285e-05
-2.29621e-05
-5.11371e-06
8.3059e-05
-1.76474e-05
-1.00313e-05
8.42146e-05
-1.04426e-05
-1.33289e-05
8.23621e-05
-3.7807e-06
-1.44197e-05
7.83037e-05
-1.3275e-06
-1.32554e-05
7.32991e-05
-3.79805e-06
-1.10823e-05
6.79573e-05
-6.29913e-06
-1.03731e-05
6.24041e-05
-5.66635e-06
-1.21798e-05
5.7409e-05
-4.12098e-06
-1.49547e-05
5.45809e-05
-3.37538e-06
-1.63435e-05
5.49538e-05
-1.7526e-06
-1.51812e-05
5.81161e-05
1.37533e-06
-1.23233e-05
6.32622e-05
3.2207e-06
-9.28567e-06
6.98085e-05
1.76869e-06
-6.26423e-06
7.69364e-05
4.63155e-07
-2.24789e-06
1.84869e-06
2.48393e-06
0.00011428
-7.75993e-06
2.95237e-06
0.000121328
-1.0718e-05
1.18359e-05
0.000123036
-1.26194e-05
1.92457e-05
0.000119575
-1.09279e-05
2.2416e-05
0.000114836
-8.03739e-06
2.09914e-05
0.000111993
-5.50199e-06
1.80387e-05
0.000110943
-3.84942e-06
1.66021e-05
0.000109978
-2.63187e-06
1.67496e-05
0.000108112
-1.663e-06
1.64697e-05
0.000105079
-1.3551e-06
1.42694e-05
0.000100249
-1.49374e-06
1.13849e-05
9.30016e-05
-2.7975e-06
1.08786e-05
8.40362e-05
-6.76492e-06
1.37912e-05
7.55348e-05
-1.17569e-05
1.69714e-05
6.94663e-05
-1.43756e-05
1.71871e-05
6.60581e-05
-1.25992e-05
1.4936e-05
6.48313e-05
-8.35456e-06
1.22042e-05
6.53828e-05
-4.78526e-06
9.86361e-06
6.70695e-05
-2.64876e-06
8.11838e-06
6.92065e-05
-2.4329e-06
7.15498e-06
7.16537e-05
-6.79814e-06
7.55746e-06
7.50298e-05
-1.78792e-05
9.45756e-06
8.02786e-05
-3.19614e-05
1.12688e-05
8.78822e-05
-4.13713e-05
1.02706e-05
9.71173e-05
-4.1936e-05
4.89403e-06
0.000105808
-3.42401e-05
-3.84927e-06
0.00011118
-2.17302e-05
-1.17208e-05
0.00011197
-9.42857e-06
-1.61196e-05
0.000108796
-3.76625e-06
-1.6137e-05
0.000103325
-5.84115e-06
-1.3084e-05
9.68961e-05
-8.54751e-06
-1.06784e-05
8.98745e-05
-7.21174e-06
-1.16111e-05
8.25263e-05
-4.79689e-06
-1.49633e-05
7.62073e-05
-3.9084e-06
-1.81892e-05
7.29334e-05
-3.01406e-06
-1.95179e-05
7.37142e-05
-1.41528e-06
-1.88755e-05
7.83302e-05
-1.85291e-06
-1.72155e-05
8.59279e-05
-6.07778e-06
-1.4734e-05
9.51453e-05
-9.45092e-06
-1.06142e-05
-8.46517e-06
-4.42247e-06
0.000131007
-2.27613e-05
-8.91224e-06
0.000143876
-2.69205e-05
1.8362e-06
0.000151538
-2.57432e-05
1.38559e-05
0.000149781
-1.78249e-05
2.26809e-05
0.000143351
-1.01919e-05
2.4634e-05
0.000139183
-6.66596e-06
2.12816e-05
0.000138765
-5.36614e-06
1.80332e-05
0.000139244
-3.87172e-06
1.80694e-05
0.00013849
-2.35636e-06
1.98625e-05
0.000136596
-2.0847e-06
1.92155e-05
0.000133398
-1.98303e-06
1.47535e-05
0.000127434
-1.68951e-06
1.10291e-05
0.00011762
-3.96383e-06
1.28194e-05
0.000105181
-8.76109e-06
1.80372e-05
9.37126e-05
-1.30211e-05
2.0842e-05
8.59815e-05
-1.35116e-05
1.94723e-05
8.23197e-05
-1.04498e-05
1.64993e-05
8.16794e-05
-6.75154e-06
1.39118e-05
8.2681e-05
-3.89735e-06
1.21761e-05
8.41256e-05
-3.11414e-06
1.14515e-05
8.54469e-05
-8.67334e-06
1.26824e-05
8.70745e-05
-2.39373e-05
1.64144e-05
9.0223e-05
-4.43082e-05
2.09386e-05
9.61832e-05
-5.95285e-05
2.27612e-05
0.00010604
-6.35754e-05
1.89534e-05
0.000119648
-5.6464e-05
9.41097e-06
0.000132989
-4.06691e-05
-3.56675e-06
0.000140694
-2.08112e-05
-1.40298e-05
0.00014107
-8.96348e-06
-1.78476e-05
0.000136242
-8.87027e-06
-1.55252e-05
0.000129296
-1.11188e-05
-1.15427e-05
0.000121853
-8.7484e-06
-1.05276e-05
0.000113876
-5.17799e-06
-1.31312e-05
0.000105511
-3.40896e-06
-1.71604e-05
9.82738e-05
-1.84212e-06
-2.07115e-05
9.42523e-05
-1.22045e-06
-2.34038e-05
9.50428e-05
-5.56262e-06
-2.53888e-05
0.000100806
-1.54416e-05
-2.57364e-05
0.00010953
-2.31903e-05
-2.29252e-05
-2.3139e-05
-1.71701e-05
0.000141738
-3.74132e-05
-2.38684e-05
0.000156351
-4.53838e-05
-1.23989e-05
0.000171588
-4.72564e-05
2.08597e-06
0.000175919
-3.18074e-05
1.70207e-05
0.000168762
-1.36393e-05
2.56183e-05
0.000161701
-6.56175e-06
2.50925e-05
0.000162075
-7.72242e-06
1.99992e-05
0.000166096
-7.33248e-06
1.75257e-05
0.000167555
-3.77683e-06
2.03298e-05
0.000166291
-2.60319e-06
2.35995e-05
0.000164996
-3.92632e-06
2.06976e-05
0.000162943
-3.74533e-06
1.36576e-05
0.000156548
-3.45595e-06
1.16406e-05
0.000143651
-5.38965e-06
1.70869e-05
0.000126951
-8.46258e-06
2.29599e-05
0.000112396
-1.03656e-05
2.38251e-05
0.000103843
-9.9198e-06
2.11697e-05
0.000100905
-7.70544e-06
1.8135e-05
0.000101258
-4.84756e-06
1.5967e-05
0.000102996
-3.49637e-06
1.47365e-05
0.00010491
-9.52552e-06
1.53492e-05
0.000106188
-2.70896e-05
1.90897e-05
0.000106982
-5.15195e-05
2.53862e-05
0.000108925
-7.19154e-05
3.0977e-05
0.000114715
-8.03613e-05
3.12694e-05
0.000127096
-7.63006e-05
2.39003e-05
0.000145305
-6.11327e-05
9.94144e-06
0.000162238
-3.77144e-05
-5.90556e-06
0.000169815
-1.86802e-05
-1.56124e-05
0.000166716
-1.25797e-05
-1.67507e-05
0.000158808
-1.23512e-05
-1.30988e-05
0.000151928
-1.00242e-05
-9.82625e-06
0.000146427
-6.45439e-06
-9.98692e-06
0.000139962
-3.02011e-06
-1.32742e-05
0.000132113
1.42114e-06
-1.778e-05
0.000124508
3.76609e-06
-2.30707e-05
0.000119651
-3.08384e-06
-2.94176e-05
0.00012014
-1.99464e-05
-3.50616e-05
0.000125608
-3.50248e-05
-3.61989e-05
-3.74437e-05
-3.19749e-05
0.000157709
-4.72009e-05
-3.93133e-05
0.000168516
-5.83357e-05
-2.64516e-05
0.00018571
-6.81472e-05
-1.05647e-05
0.00019796
-5.41664e-05
8.00191e-06
0.000194849
-2.3248e-05
2.26518e-05
0.000183668
-5.12196e-06
2.7083e-05
0.000179646
-7.02929e-06
2.22231e-05
0.000186643
-1.28444e-05
1.59761e-05
0.000194038
-8.96497e-06
1.62823e-05
0.000193009
-1.70135e-06
2.22792e-05
0.000188456
-2.14727e-06
2.44695e-05
0.000188811
-8.4084e-06
1.82817e-05
0.00019162
-1.21585e-05
1.25748e-05
0.000186728
-1.02858e-05
1.58181e-05
0.00017036
-6.24857e-06
2.34428e-05
0.000149263
-4.10999e-06
2.70767e-05
0.000132884
-4.60086e-06
2.57111e-05
0.000125046
-5.50863e-06
2.27611e-05
0.000123865
-5.01498e-06
2.03178e-05
0.000126319
-4.50671e-06
1.83226e-05
0.00013014
-1.08493e-05
1.72748e-05
0.000133174
-2.8459e-05
1.88561e-05
0.000133792
-5.28902e-05
2.44463e-05
0.000132456
-7.5137e-05
3.26619e-05
0.000132453
-8.73554e-05
3.85054e-05
0.000139125
-8.77898e-05
3.63079e-05
0.000155795
-7.72652e-05
2.37621e-05
0.000177528
-5.6597e-05
6.06925e-06
0.000191125
-3.1773e-05
-9.58402e-06
0.000187177
-1.39447e-05
-1.52665e-05
0.000172397
-5.26438e-06
-1.35194e-05
0.000161647
-4.85833e-06
-8.82223e-06
0.000161252
-8.74657e-06
-5.33415e-06
0.000165459
-8.23299e-06
-5.8684e-06
0.000166301
1.12686e-06
-1.01405e-05
0.000161977
1.01427e-05
-1.69637e-05
0.000155016
5.52762e-06
-2.65238e-05
0.000149332
-1.523e-05
-3.78929e-05
0.000148748
-3.87018e-05
-4.59671e-05
-4.67884e-05
-4.64079e-05
0.000180824
-5.00131e-05
-5.45122e-05
0.000187365
-6.22193e-05
-4.1785e-05
0.00020107
-8.07666e-05
-2.28865e-05
0.000217408
-7.67898e-05
-3.20256e-06
0.000223167
-4.30972e-05
1.61805e-05
0.000214328
-1.01271e-05
2.59537e-05
0.000202825
-3.13113e-06
2.38189e-05
0.000202817
-1.38687e-05
1.52227e-05
0.000213945
-1.75884e-05
1.05244e-05
0.000220982
-6.19389e-06
1.46006e-05
0.000215237
3.64844e-06
2.03303e-05
0.000207822
-3.91605e-06
1.8664e-05
0.000212389
-2.2192e-05
1.31136e-05
0.00022156
-2.92753e-05
1.44163e-05
0.000217306
-1.79139e-05
2.27915e-05
0.000197
-2.62781e-06
2.88181e-05
0.000173442
3.9383e-06
2.89262e-05
0.000157557
2.63829e-06
2.67048e-05
0.000151634
-1.19855e-06
2.52273e-05
0.000153367
-5.49443e-06
2.36163e-05
0.000159442
-1.51527e-05
2.07408e-05
0.000165498
-3.22911e-05
1.79817e-05
0.000167597
-5.26387e-05
1.98135e-05
0.00016495
-7.17198e-05
2.83953e-05
0.000160359
-8.45272e-05
3.88403e-05
0.000160017
-8.85446e-05
4.33013e-05
0.000170557
-8.45199e-05
3.50463e-05
0.000190629
-7.08543e-05
1.62082e-05
0.000206262
-4.47238e-05
-3.07672e-06
0.000202788
-1.41914e-05
-1.33844e-05
0.000183846
7.36268e-06
-1.37876e-05
0.000167046
8.92814e-06
-7.89477e-06
0.00016403
-4.25798e-06
2.80295e-08
0.000173937
-1.34827e-05
4.59222e-06
0.000187234
-5.19795e-06
2.64367e-06
0.000194814
1.05829e-05
-4.43359e-06
0.000194298
1.45259e-05
-1.63208e-05
0.000188007
-3.2622e-06
-3.21594e-05
0.000181489
-3.1073e-05
-4.77903e-05
-4.66829e-05
-5.6574e-05
0.000209705
-4.39768e-05
-6.59497e-05
0.000212355
-5.82052e-05
-5.80665e-05
0.000222154
-8.21176e-05
-3.80996e-05
0.000237118
-9.16839e-05
-1.54918e-05
0.000249306
-6.80013e-05
5.88154e-06
0.000249182
-2.75081e-05
2.05755e-05
0.000237658
-4.71245e-06
2.3512e-05
0.000226824
-8.55777e-06
1.57523e-05
0.000228859
-1.92894e-05
6.66758e-06
0.00024125
-1.53257e-05
5.90959e-06
0.000247773
-1.58916e-07
1.22852e-05
0.000240725
2.59002e-06
1.56286e-05
0.000234491
-1.95441e-05
1.24749e-05
0.000243266
-4.52465e-05
1.18866e-05
0.000254133
-4.29392e-05
1.97873e-05
0.000246874
-1.60574e-05
2.82232e-05
0.000224365
7.18034e-06
2.99256e-05
0.000201723
1.45929e-05
2.82245e-05
0.000187769
1.04164e-05
2.84943e-05
0.000184667
-1.43915e-06
2.94678e-05
0.000191426
-2.13526e-05
2.61403e-05
0.000202192
-4.25934e-05
1.74329e-05
0.000208396
-5.66583e-05
1.14709e-05
0.000206013
-6.61087e-05
1.7217e-05
0.000197665
-7.46772e-05
3.19077e-05
0.000189956
-7.95077e-05
4.41527e-05
0.000191452
-8.02251e-05
4.24172e-05
0.000204928
-7.47939e-05
2.51337e-05
0.00021949
-5.34341e-05
4.20705e-06
0.000219542
-1.52969e-05
-1.06872e-05
0.000203668
1.82151e-05
-1.45097e-05
0.000185875
2.4188e-05
-9.62179e-06
0.000178069
5.84604e-06
8.00281e-07
0.000183723
-1.23146e-05
1.11797e-05
0.000198985
-1.05359e-05
1.54309e-05
0.000215781
5.95342e-06
1.20201e-05
0.000226898
1.69476e-05
7.2273e-07
0.000228666
8.604e-06
-1.81821e-05
0.000222511
-1.53738e-05
-4.0317e-05
-3.5067e-05
-5.85513e-05
0.000246316
-2.89823e-05
-6.9954e-05
0.000243902
-4.88484e-05
-7.12832e-05
0.000251311
-7.61763e-05
-5.47946e-05
0.00026294
-9.48359e-05
-3.04699e-05
0.000274391
-8.61981e-05
-8.08923e-06
0.000280005
-5.24364e-05
1.10687e-05
0.000274795
-1.76302e-05
1.97163e-05
0.000261392
-4.79675e-06
1.58319e-05
0.000251973
-1.1606e-05
5.16341e-06
0.000257172
-1.80865e-05
2.45531e-07
0.000271252
-1.17596e-05
6.10234e-06
0.000277031
-4.14398e-06
1.38901e-05
0.000269714
-1.60281e-05
1.35821e-05
0.000266243
-4.61368e-05
9.91365e-06
0.000276972
-6.17838e-05
1.42928e-05
0.000285107
-4.0602e-05
2.40266e-05
0.00027541
-3.77171e-06
2.81362e-05
0.000254286
2.07603e-05
2.709e-05
0.000234259
2.59271e-05
2.87044e-05
0.000222812
1.28283e-05
3.21207e-05
0.000224621
-1.8797e-05
2.80362e-05
0.000238156
-5.24198e-05
1.31842e-05
0.000252157
-6.64569e-05
-1.23915e-06
0.000254734
-6.33328e-05
-1.23269e-06
0.00024469
-6.16577e-05
1.67328e-05
0.000229708
-6.36811e-05
3.81102e-05
0.000220423
-6.51976e-05
4.61427e-05
0.000224018
-6.50718e-05
3.34818e-05
0.000234898
-5.16734e-05
1.14111e-05
0.000238837
-1.4959e-05
-6.56002e-06
0.000230336
2.41536e-05
-1.48435e-05
0.000217444
3.51677e-05
-1.4804e-05
0.00020869
1.68612e-05
-6.41938e-06
0.000208109
-4.60806e-06
5.81578e-06
0.000216446
-8.70946e-06
1.6649e-05
0.000231591
2.80099e-06
2.11505e-05
0.000249891
1.2169e-05
1.6917e-05
0.000263981
1.01863e-05
7.85273e-07
0.000266104
-1.25625e-06
-2.55668e-05
-1.57132e-05
-5.21081e-05
0.000290439
-9.65403e-06
-6.76448e-05
0.000283573
-3.64337e-05
-7.80503e-05
0.00028884
-6.79639e-05
-6.81397e-05
0.000298189
-8.92846e-05
-4.61521e-05
0.000304271
-9.18869e-05
-2.27252e-05
0.000307116
-7.15763e-05
-2.62274e-06
0.000305642
-3.70061e-05
1.2144e-05
0.000297122
-8.51762e-06
1.37995e-05
0.000285629
-1.7421e-06
4.91742e-06
0.000282945
-1.16935e-05
-2.31814e-06
0.000293854
-1.96431e-05
2.13222e-06
0.000306535
-1.7597e-05
1.2762e-05
0.000307
-1.98849e-05
1.58539e-05
0.000298853
-4.03291e-05
9.59181e-06
0.000298437
-6.35056e-05
7.25188e-06
0.000307454
-5.79625e-05
1.50238e-05
0.000309898
-2.34042e-05
2.32149e-05
0.000297914
1.25302e-05
2.685e-05
0.000279103
3.17426e-05
3.03462e-05
0.000263581
2.92975e-05
3.12076e-05
0.000257584
3.39606e-08
2.0495e-05
0.000266537
-4.53012e-05
1.77256e-08
0.000287275
-7.53996e-05
-1.63044e-05
0.000302049
-7.05444e-05
-1.79911e-05
0.000296914
-5.4142e-05
-4.52558e-07
0.000277111
-4.75698e-05
2.77752e-05
0.000257732
-4.57162e-05
4.61651e-05
0.000250637
-4.46269e-05
4.1086e-05
0.000255679
-3.63156e-05
1.98583e-05
0.000261418
-7.43347e-06
-6.90752e-07
0.000259897
2.79912e-05
-1.38067e-05
0.000254184
3.98745e-05
-2.0306e-05
0.000249117
2.34681e-05
-1.81196e-05
0.000246471
2.95253e-06
-7.39687e-06
0.000247598
-1.1541e-06
5.41915e-06
0.000254506
5.80808e-06
1.56707e-05
0.000270739
5.67605e-06
2.01498e-05
0.000293076
-1.35936e-06
1.34222e-05
0.00030707
-1.36211e-06
-1.00094e-05
6.24767e-07
-4.12617e-05
0.00034094
5.83528e-06
-6.16243e-05
0.000331694
-2.19075e-05
-7.96789e-05
0.00033388
-5.59461e-05
-7.68577e-05
0.00034136
-7.66137e-05
-5.95936e-05
0.0003427
-8.43758e-05
-3.87792e-05
0.000338145
-7.80123e-05
-1.75217e-05
0.000333643
-5.28168e-05
1.82519e-06
0.000328771
-1.76343e-05
1.07074e-05
0.000321645
4.446e-06
5.6926e-06
0.000317791
-1.53892e-07
-2.33422e-06
0.000324459
-1.83099e-05
-4.89441e-07
0.000337815
-2.74319e-05
1.11875e-05
0.000344463
-2.61612e-05
1.83381e-05
0.000338001
-3.3177e-05
1.22563e-05
0.000327119
-5.13718e-05
2.9809e-06
0.000321768
-5.6453e-05
5.13352e-06
0.000318662
-3.4914e-05
1.75097e-05
0.000311861
-2.90301e-06
2.93324e-05
0.000303837
2.19023e-05
3.27063e-05
0.000298759
3.31279e-05
2.39075e-05
0.000294849
1.96952e-05
3.8762e-06
0.000296051
-2.3597e-05
-1.69207e-05
0.000312988
-7.25637e-05
-2.897e-05
0.000338408
-8.48431e-05
-2.57916e-05
0.000346056
-6.31714e-05
-7.14963e-06
0.00032753
-4.11257e-05
2.19114e-05
0.000300097
-2.96577e-05
4.54116e-05
0.000283684
-2.28693e-05
4.83863e-05
0.000283907
-1.40897e-05
3.01342e-05
0.000291568
6.66698e-06
7.0014e-06
0.000296397
3.19182e-05
-1.09009e-05
0.000297355
3.81528e-05
-2.30458e-05
0.0002975
2.19287e-05
-2.82122e-05
0.000297119
4.67258e-06
-2.35026e-05
0.000295521
3.6785e-06
-1.23444e-05
0.000295697
1.05283e-05
-4.74022e-07
0.000303847
2.95691e-06
9.28974e-06
0.000323546
-1.42656e-05
1.13363e-05
0.00034473
-1.26638e-05
-2.69091e-06
5.25187e-06
-3.12974e-05
0.000392609
1.14429e-05
-5.43656e-05
0.000386025
-8.45891e-06
-7.58291e-05
0.0003853
-3.86339e-05
-8.057e-05
0.000391614
-5.75663e-05
-6.97989e-05
0.000392222
-6.85199e-05
-5.29644e-05
0.000382262
-7.31861e-05
-3.30203e-05
0.000370289
-5.91442e-05
-1.12593e-05
0.00036252
-2.51289e-05
4.57724e-06
0.00035771
7.28112e-06
6.131e-06
0.000356064
1.23722e-05
5.49804e-08
0.000361261
-8.61703e-06
3.0591e-07
0.000373184
-2.81905e-05
1.05213e-05
0.000382447
-3.01826e-05
2.11784e-05
0.00037803
-2.77156e-05
1.90474e-05
0.000359938
-3.41603e-05
6.08895e-06
0.000338806
-3.88523e-05
-7.70654e-07
0.000323942
-2.80933e-05
5.82269e-06
0.000319137
-8.34013e-06
1.63284e-05
0.000324259
8.89082e-06
1.65022e-05
0.000334331
2.33198e-05
2.93895e-06
0.000340213
2.48072e-05
-1.69807e-05
0.000341113
-2.87691e-06
-3.42371e-05
0.000349725
-5.52854e-05
-3.86252e-05
0.000372434
-9.05063e-05
-2.70126e-05
0.000388099
-8.04177e-05
-4.08519e-06
0.000375502
-4.70955e-05
2.37474e-05
0.000344936
-2.07288e-05
4.61273e-05
0.000321672
-6.01835e-06
5.29155e-05
0.000317547
4.70422e-06
3.87462e-05
0.000325339
1.9859e-05
1.48224e-05
0.000332241
3.61661e-05
-5.66066e-06
0.000334049
3.69247e-05
-1.9127e-05
0.000335575
1.87946e-05
-2.79145e-05
0.000340272
4.75698e-07
-3.12405e-05
0.000345238
-2.12266e-07
-2.69539e-05
0.000347583
8.51149e-06
-1.51808e-05
0.000349027
4.01889e-06
-1.16787e-06
0.000357078
-1.42445e-05
5.24349e-06
0.000374823
-1.7965e-05
-3.85711e-06
1.78715e-06
-2.66088e-05
0.000435151
1.05076e-05
-4.80357e-05
0.000440077
2.09605e-07
-6.79447e-05
0.000440999
-1.93675e-05
-7.88939e-05
0.000447918
-3.50457e-05
-7.69189e-05
0.000451592
-4.90372e-05
-6.55358e-05
0.000440169
-6.11032e-05
-4.84534e-05
0.000420035
-5.56951e-05
-2.71843e-05
0.000404754
-2.62532e-05
-7.27292e-06
0.000398139
8.31297e-06
4.56812e-06
0.000397771
2.13224e-05
6.01755e-06
0.000402099
4.5529e-06
5.8726e-06
0.000410483
-1.93484e-05
1.10171e-05
0.000418243
-2.83066e-05
2.07734e-05
0.000416455
-2.58469e-05
2.51219e-05
0.000400935
-2.41817e-05
1.63144e-05
0.000378393
-2.1565e-05
6.28193e-07
0.000360819
-1.23481e-05
-8.81629e-06
0.000356125
-2.88819e-06
-7.54411e-06
0.000364125
1.0506e-06
-3.91515e-06
0.000378124
6.83256e-06
-7.43554e-06
0.000389161
1.51274e-05
-2.08132e-05
0.000394462
7.34221e-06
-3.5697e-05
0.000400529
-3.13611e-05
-4.03598e-05
0.000415226
-7.71445e-05
-2.84507e-05
0.000429143
-8.77402e-05
-3.70561e-06
0.000421159
-5.60394e-05
2.25336e-05
0.000392603
-1.56273e-05
4.348e-05
0.000366089
1.01446e-05
5.44173e-05
0.000355609
2.22911e-05
4.75357e-05
0.000355835
3.11613e-05
2.61383e-05
0.000355923
3.9302e-05
6.46049e-06
0.000354139
3.55406e-05
-3.51282e-06
0.000356169
1.42765e-05
-1.00709e-05
0.000365907
-8.87043e-06
-1.96387e-05
0.000379066
-1.37199e-05
-2.55643e-05
0.000387297
-2.50853e-06
-1.6888e-05
0.00038766
4.61001e-06
9.36166e-07
0.000386897
-2.47593e-06
8.81533e-06
0.000396411
-7.32275e-06
-2.85572e-06
2.56916e-06
-2.49391e-05
0.00046882
1.64868e-05
-4.13256e-05
0.000487072
5.59854e-06
-5.84987e-05
0.000498163
-6.71244e-06
-6.94888e-05
0.00051003
-1.59272e-05
-7.44971e-05
0.000517373
-2.85263e-05
-7.22986e-05
0.000506367
-4.32245e-05
-6.19866e-05
0.000479887
-4.25698e-05
-4.44261e-05
0.000455361
-1.83598e-05
-2.28112e-05
0.000443582
1.29389e-05
-4.97427e-06
0.000442128
2.51044e-05
6.21755e-06
0.000445781
1.21266e-05
1.13045e-05
0.000450886
-9.23264e-06
1.58888e-05
0.000453733
-1.96555e-05
2.2102e-05
0.00044954
-1.96733e-05
2.59629e-05
0.000437358
-1.77222e-05
2.06889e-05
0.000423244
-1.28273e-05
4.63518e-06
0.000414864
-3.47869e-06
-1.29283e-05
0.000414705
2.55076e-07
-1.81649e-05
0.000420596
-6.31176e-06
-9.84225e-06
0.000428958
-1.00087e-05
-2.83068e-06
0.000435301
5.93605e-07
-8.07273e-06
0.000439023
9.27353e-06
-1.90997e-05
0.000444076
-1.03598e-05
-2.54668e-05
0.000455685
-5.4625e-05
-2.11124e-05
0.000469229
-8.18925e-05
-3.27393e-06
0.000468937
-6.16223e-05
2.08608e-05
0.000448754
-1.3902e-05
4.07065e-05
0.000422705
2.58446e-05
5.0654e-05
0.00040342
4.28796e-05
4.819e-05
0.000390682
4.34794e-05
3.61217e-05
0.00038222
3.9514e-05
2.26341e-05
0.000380507
3.17568e-05
1.25534e-05
0.000387168
1.40973e-05
5.07273e-06
0.000400566
-1.02677e-05
-3.2664e-06
0.000415554
-2.31462e-05
-1.09849e-05
0.000425006
-1.41187e-05
-1.04153e-05
0.000426255
4.72671e-06
2.41747e-06
0.000423242
1.41533e-05
1.43758e-05
0.000427039
1.49979e-05
7.6794e-06
1.74923e-05
-1.6957e-05
0.0005069
2.40869e-05
-2.275e-05
0.000529451
6.4304e-06
-4.2337e-05
0.000549449
-5.9589e-06
-5.66752e-05
0.000568642
-8.94502e-06
-6.6439e-05
0.000580381
-1.23812e-05
-7.0934e-05
0.000572057
-2.14586e-05
-6.80992e-05
0.000545335
-2.29685e-05
-5.72377e-05
0.000516868
-5.91594e-06
-3.84367e-05
0.000498933
1.87248e-05
-1.64705e-05
0.000491095
2.80308e-05
9.95676e-07
0.000488793
1.65795e-05
1.10212e-05
0.000488725
-3.06941e-07
1.77661e-05
0.000488121
-1.00688e-05
2.55885e-05
0.000484229
-1.19595e-05
2.87738e-05
0.000478188
-1.09532e-05
1.93282e-05
0.000475646
-6.88314e-06
-2.21291e-07
0.000479892
-3.09853e-07
-1.73011e-05
0.000485883
-1.82436e-06
-1.82142e-05
0.000486239
-1.43881e-05
-2.93677e-06
0.000480251
-2.20064e-05
1.19483e-05
0.00047438
-8.86261e-06
1.27998e-05
0.000475887
1.16996e-05
4.26761e-06
0.000485942
7.97971e-06
-2.06933e-06
0.000500345
-2.81387e-05
-1.64789e-06
0.000512552
-6.51613e-05
8.1559e-06
0.000513007
-5.95202e-05
2.34894e-05
0.000496388
-1.1701e-05
3.81713e-05
0.000470948
3.82338e-05
4.69901e-05
0.000447133
6.0563e-05
4.4831e-05
0.000428573
5.7046e-05
3.46223e-05
0.000417717
4.54856e-05
2.75001e-05
0.000417585
3.5419e-05
2.70657e-05
0.000427273
2.32922e-05
2.4795e-05
0.000442038
5.5328e-06
1.45475e-05
0.000456467
-8.8709e-06
3.07373e-06
0.000465081
-6.35367e-06
1.12614e-06
0.000467228
1.07678e-05
1.12402e-05
0.000466648
2.64239e-05
2.30767e-05
0.000470968
3.33594e-05
2.07297e-05
3.34065e-05
2.57288e-06
0.000551664
2.56259e-05
2.75701e-06
0.00057338
2.27233e-06
-2.61769e-05
0.000597792
-1.93251e-05
-4.21498e-05
0.000620926
-2.33043e-05
-4.93489e-05
0.000634367
-1.32324e-05
-5.75393e-05
0.0006307
-4.91927e-06
-6.64721e-05
0.000614074
-1.59877e-06
-6.89356e-05
0.000595811
6.84648e-06
-5.82395e-05
0.000581176
2.20723e-05
-3.55608e-05
0.000567298
2.97233e-05
-1.12741e-05
0.000551857
2.29559e-05
5.11768e-06
0.000537625
9.28378e-06
1.47043e-05
0.000528904
-2.52521e-06
2.39923e-05
0.000528064
-1.26584e-05
3.23626e-05
0.000535625
-2.20362e-05
3.17094e-05
0.000551233
-2.7179e-05
1.93983e-05
0.000569669
-2.53281e-05
4.59381e-06
0.000578488
-2.18114e-05
-3.62741e-07
0.000568769
-2.24171e-05
1.32049e-05
0.000547871
-2.0102e-05
3.7489e-05
0.000531598
-3.34676e-06
5.08265e-05
0.000529815
2.16726e-05
3.98334e-05
0.000539943
3.07984e-05
1.08291e-05
0.000553661
7.42054e-06
-1.05442e-05
0.000563884
-3.2667e-05
-5.72568e-06
0.000563084
-4.72709e-05
1.7301e-05
0.000545045
-1.47918e-05
3.73815e-05
0.000517289
3.82881e-05
4.50032e-05
0.000492037
7.23991e-05
4.24379e-05
0.000476134
7.78675e-05
3.397e-05
0.000470416
6.72316e-05
2.63745e-05
0.000473078
5.24463e-05
2.30439e-05
0.000481086
3.70922e-05
2.0907e-05
0.000492351
2.13399e-05
1.59569e-05
0.000505758
9.8028e-06
8.34179e-06
0.000518363
9.90471e-06
4.24516e-06
0.0005259
2.05583e-05
1.18647e-05
0.0005273
3.15017e-05
2.87123e-05
0.000528218
3.70335e-05
3.91206e-05
3.68627e-05
2.96787e-05
0.00060393
6.9286e-06
2.76105e-05
0.000625936
-1.1523e-05
-5.5657e-06
0.000648933
-2.96424e-05
-3.49199e-05
0.00067156
-3.24981e-05
-5.00045e-05
0.00068772
-1.71594e-05
-5.3966e-05
0.000688421
3.60685e-06
-5.59197e-05
0.000673775
1.79916e-05
-6.00297e-05
0.000655941
2.51516e-05
-6.05889e-05
0.000645677
2.93249e-05
-5.06377e-05
0.000641841
2.9007e-05
-3.33503e-05
0.000636024
2.22732e-05
-1.68139e-05
0.000623135
1.24113e-05
-4.25925e-06
0.000606657
2.13472e-06
7.72313e-06
0.000594407
-1.0704e-05
2.15642e-05
0.000594051
-2.88596e-05
3.37046e-05
0.000609449
-4.79369e-05
3.69686e-05
0.000634396
-5.90324e-05
3.00122e-05
0.000651252
-5.66432e-05
2.09811e-05
0.000645191
-4.16765e-05
2.3192e-05
0.000621674
-1.89167e-05
4.01563e-05
0.000598893
8.10887e-06
5.53149e-05
0.000587886
3.12463e-05
4.65549e-05
0.000587047
3.75115e-05
1.28943e-05
0.000593181
1.81017e-05
-2.30583e-05
0.000604304
-1.72011e-05
-3.25578e-05
0.000611174
-4.00791e-05
-8.15727e-06
0.000604168
-2.44661e-05
2.30084e-05
0.000586644
2.20626e-05
4.13294e-05
0.000571484
6.59153e-05
4.23124e-05
0.000566079
8.58897e-05
2.92103e-05
0.000567063
8.34145e-05
9.83328e-06
0.00056846
6.80992e-05
-5.44979e-06
0.000568488
4.66998e-05
-8.25844e-06
0.000569084
2.65055e-05
-4.74583e-07
0.000572033
1.61587e-05
9.43814e-06
0.000575945
1.83193e-05
1.82879e-05
0.000577893