/*--------------------------------*- C++ -*----------------------------------*\
| =========                 |                                                 |
| \\      /  F ield         | OpenFOAM: The Open Source CFD Toolbox           |
|  \\    /   O peration     | Version:  2306                                  |
|   \\  /    A nd           | Website:  www.openfoam.com                      |
|    \\/     M anipulation  |                                                 |
\*---------------------------------------------------------------------------*/
FoamFile
{
    version     2.0;
    format      ascii;
    arch        "LSB;label=32;scalar=64";
    class       surfaceScalarField;
    location    "3";
    object      phi_0;
}
// * * * * * * * * * * * * * * * * * * * * * * * * * * * * * * * * * * * * * //

dimensions      [0 3 -1 0 0 0 0];

oriented        oriented;

internalField   nonuniform List<scalar> 
175300
(
6.5007e-06
9.968e-07
1.25829e-06
6.41433e-06
5.74799e-07
1.89106e-06
6.27658e-06
2.94807e-08
2.26291e-06
6.16181e-06
-3.09568e-07
2.30533e-06
6.06373e-06
-3.34252e-07
2.1187e-06
5.94606e-06
-1.88029e-07
1.80636e-06
5.79352e-06
-7.34643e-08
1.4639e-06
5.5618e-06
-3.89922e-08
1.20619e-06
5.16388e-06
-3.15488e-08
1.12901e-06
4.58883e-06
-6.84092e-08
1.22392e-06
4.01857e-06
-2.36004e-07
1.37023e-06
3.66563e-06
-4.99959e-07
1.45129e-06
3.5841e-06
-7.35129e-07
1.4658e-06
3.6778e-06
-8.48683e-07
1.39336e-06
3.80347e-06
-7.82911e-07
1.16979e-06
3.86874e-06
-5.12836e-07
7.9863e-07
3.93066e-06
-1.89538e-07
3.78083e-07
4.08009e-06
3.78291e-08
1.0417e-08
4.29922e-06
1.87978e-07
-2.77413e-07
4.51556e-06
2.83847e-07
-4.97179e-07
4.72022e-06
2.68681e-07
-6.66307e-07
4.93857e-06
5.30727e-08
-8.16057e-07
5.23607e-06
-2.69147e-07
-1.01301e-06
5.58272e-06
-4.44112e-07
-1.33199e-06
5.8375e-06
-3.74881e-07
-1.67245e-06
5.88894e-06
-2.46597e-07
-1.84888e-06
5.68108e-06
-6.61578e-08
-1.91961e-06
5.2176e-06
1.88341e-07
-2.00283e-06
4.64283e-06
2.47916e-07
-1.97778e-06
4.21266e-06
-7.49269e-08
-1.82761e-06
4.00317e-06
-3.91231e-07
-1.77592e-06
3.93758e-06
-3.71351e-07
-1.88332e-06
3.99774e-06
-1.83716e-07
-1.90509e-06
4.19828e-06
4.23581e-08
-1.64852e-06
4.50407e-06
3.68995e-07
-1.17136e-06
4.84996e-06
7.5838e-07
-6.94457e-07
5.24637e-06
9.47339e-07
-3.57975e-07
5.70702e-06
8.82742e-07
-6.32205e-08
6.15957e-06
8.90414e-07
2.2222e-07
1.05601e-06
6.47918e-07
2.18982e-05
2.54952e-06
4.2838e-06
2.18642e-05
1.1348e-06
5.81375e-06
2.1445e-05
-4.17445e-07
6.52359e-06
2.09429e-05
-1.27591e-06
6.46755e-06
2.05153e-05
-1.23699e-06
6.0046e-06
2.01105e-05
-7.7344e-07
5.32567e-06
1.95959e-05
-4.05623e-07
4.5201e-06
1.87862e-05
-2.22142e-07
3.8012e-06
1.7487e-05
-1.42491e-07
3.47425e-06
1.57369e-05
-2.81454e-07
3.64844e-06
1.39975e-05
-8.92861e-07
4.09072e-06
1.28172e-05
-1.85245e-06
4.43306e-06
1.23602e-05
-2.70156e-06
4.47299e-06
1.23748e-05
-3.00909e-06
4.10629e-06
1.25142e-05
-2.6175e-06
3.31232e-06
1.26262e-05
-1.63578e-06
2.23086e-06
1.28617e-05
-5.94622e-07
1.11084e-06
1.33691e-05
7.65418e-08
1.51157e-07
1.4072e-05
4.88052e-07
-6.41538e-07
1.48436e-05
6.77992e-07
-1.28042e-06
1.56854e-05
4.02286e-07
-1.80811e-06
1.66551e-05
-4.81466e-07
-2.30985e-06
1.78069e-05
-1.55953e-06
-2.9666e-06
1.89748e-05
-2.05188e-06
-3.90204e-06
1.97885e-05
-1.74502e-06
-4.81763e-06
1.99295e-05
-1.18291e-06
-5.27825e-06
1.92421e-05
-4.65722e-07
-5.38018e-06
1.78379e-05
3.18351e-07
-5.37074e-06
1.6169e-05
3.87582e-07
-5.16596e-06
1.47564e-05
-5.61859e-07
-4.94884e-06
1.3768e-05
-1.36265e-06
-5.1502e-06
1.32252e-05
-1.23828e-06
-5.61324e-06
1.32429e-05
-6.90949e-07
-5.58732e-06
1.38358e-05
1.17205e-08
-4.67393e-06
1.48175e-05
1.11112e-06
-3.21421e-06
1.59937e-05
2.38e-06
-1.82957e-06
1.73496e-05
2.97415e-06
-8.01189e-07
1.88632e-05
2.7778e-06
1.15049e-07
2.0321e-05
2.75228e-06
1.10927e-06
3.02756e-06
2.52547e-06
4.11568e-05
3.72921e-06
7.28367e-06
4.14596e-05
1.08166e-06
9.74926e-06
4.07342e-05
-1.54963e-06
1.07943e-05
3.96168e-05
-2.85982e-06
1.05608e-05
3.86608e-05
-2.63071e-06
9.81386e-06
3.78965e-05
-1.74315e-06
8.94576e-06
3.70218e-05
-1.04194e-06
7.91366e-06
3.56734e-05
-5.97815e-07
6.79779e-06
3.35625e-05
-3.53373e-07
6.02201e-06
3.0684e-05
-5.48344e-07
5.96938e-06
2.75685e-05
-1.62257e-06
6.58316e-06
2.50701e-05
-3.49965e-06
7.35891e-06
2.36902e-05
-5.35576e-06
7.66397e-06
2.32156e-05
-6.11132e-06
7.12975e-06
2.31262e-05
-5.34263e-06
5.84773e-06
2.31714e-05
-3.3989e-06
4.15478e-06
2.35479e-05
-1.38866e-06
2.4117e-06
2.44341e-05
-1.27975e-07
8.71342e-07
2.56955e-05
5.57684e-07
-3.90898e-07
2.71614e-05
7.03092e-07
-1.45847e-06
2.88557e-05
-1.149e-07
-2.30528e-06
3.08608e-05
-2.23331e-06
-3.07897e-06
3.31787e-05
-4.60108e-06
-4.1417e-06
3.54825e-05
-5.61466e-06
-5.75079e-06
3.71628e-05
-4.86001e-06
-7.44885e-06
3.76721e-05
-3.40819e-06
-8.44621e-06
3.67179e-05
-1.64207e-06
-8.67732e-06
3.44867e-05
4.09816e-08
-8.4631e-06
3.16847e-05
2.09479e-07
-7.90349e-06
2.90361e-05
-1.44859e-06
-7.51514e-06
2.67932e-05
-2.7834e-06
-8.0032e-06
2.51587e-05
-2.53163e-06
-9.07238e-06
2.45904e-05
-1.64087e-06
-9.42497e-06
2.52953e-05
-5.16454e-07
-8.20399e-06
2.69468e-05
1.46973e-06
-5.8737e-06
2.91198e-05
3.884e-06
-3.52497e-06
3.16878e-05
5.09694e-06
-1.6891e-06
3.45611e-05
4.67168e-06
3.49585e-08
3.74005e-05
4.57765e-06
1.82603e-06
4.87125e-06
4.31538e-06
6.42615e-05
3.60797e-06
9.3707e-06
6.54168e-05
-1.34769e-07
1.32085e-05
6.44959e-05
-3.51987e-06
1.49948e-05
6.25119e-05
-4.9514e-06
1.46445e-05
6.07407e-05
-4.3626e-06
1.34172e-05
5.95298e-05
-2.97273e-06
1.23486e-05
5.83966e-05
-1.9136e-06
1.14023e-05
5.67299e-05
-1.15772e-06
1.0201e-05
5.41367e-05
-6.66148e-07
8.89632e-06
5.04522e-05
-7.73539e-07
8.14221e-06
4.59483e-05
-2.01055e-06
8.47952e-06
4.15462e-05
-4.60942e-06
9.73287e-06
3.83248e-05
-7.74988e-06
1.08058e-05
3.65778e-05
-9.52307e-06
1.05749e-05
3.57887e-05
-8.78423e-06
9.05638e-06
3.55082e-05
-5.95878e-06
6.9209e-06
3.58721e-05
-2.87754e-06
4.6962e-06
3.70528e-05
-9.08432e-07
2.66802e-06
3.88473e-05
6.34991e-08
1.02639e-06
4.10271e-05
3.17307e-08
-2.72081e-07
4.3647e-05
-1.74037e-06
-1.30072e-06
4.68606e-05
-5.87198e-06
-2.03849e-06
5.06619e-05
-1.04067e-05
-3.2289e-06
5.45661e-05
-1.24151e-05
-5.54019e-06
5.76842e-05
-1.10084e-05
-8.49364e-06
5.91921e-05
-7.97651e-06
-1.07345e-05
5.85685e-05
-4.29263e-06
-1.16729e-05
5.59353e-05
-9.91238e-07
-1.14803e-05
5.21618e-05
-3.81286e-07
-1.03854e-05
4.81898e-05
-2.67777e-06
-9.37353e-06
4.43385e-05
-4.50271e-06
-9.7789e-06
4.0866e-05
-4.05425e-06
-1.15469e-05
3.8655e-05
-2.92866e-06
-1.29753e-05
3.85708e-05
-1.81859e-06
-1.24107e-05
4.04855e-05
5.64607e-07
-9.84076e-06
4.36621e-05
3.90462e-06
-6.68985e-06
4.76819e-05
5.76153e-06
-4.00426e-06
5.2302e-05
5.09307e-06
-1.45983e-06
5.70277e-05
4.79835e-06
1.39207e-06
5.30864e-06
4.97778e-06
9.01403e-05
6.59544e-07
9.08381e-06
9.30967e-05
-3.53188e-06
1.50544e-05
9.24588e-05
-6.78028e-06
1.85917e-05
8.94467e-05
-7.48509e-06
1.87566e-05
8.64793e-05
-6.20426e-06
1.68741e-05
8.46912e-05
-4.26651e-06
1.52e-05
8.34965e-05
-2.86726e-06
1.44514e-05
8.18862e-05
-1.83299e-06
1.37746e-05
7.93211e-05
-1.08402e-06
1.23552e-05
7.54816e-05
-9.8569e-07
1.05626e-05
7.01084e-05
-1.88669e-06
9.77321e-06
6.36522e-05
-4.47463e-06
1.0999e-05
5.75751e-05
-8.67464e-06
1.32798e-05
5.32519e-05
-1.20761e-05
1.41999e-05
5.08104e-05
-1.23074e-05
1.29226e-05
4.96527e-05
-9.18986e-06
1.05291e-05
4.96433e-05
-5.1861e-06
8.02575e-06
5.08277e-05
-2.45831e-06
5.77149e-06
5.28778e-05
-1.08656e-06
3.94734e-06
5.54467e-05
-1.28804e-06
2.65834e-06
5.86045e-05
-4.53595e-06
2.07886e-06
6.27255e-05
-1.17803e-05
2.12585e-06
6.80541e-05
-2.00144e-05
1.62632e-06
7.41326e-05
-2.42418e-05
-9.98025e-07
7.97034e-05
-2.22833e-05
-5.7846e-06
8.34266e-05
-1.67483e-05
-1.05915e-05
8.43333e-05
-9.69917e-06
-1.36346e-05
8.22463e-05
-3.41012e-06
-1.44227e-05
7.80393e-05
-1.56797e-06
-1.30172e-05
7.29495e-05
-4.25543e-06
-1.0872e-05
6.7528e-05
-6.42977e-06
-1.04244e-05
6.1937e-05
-5.54789e-06
-1.24454e-05
5.70512e-05
-4.05129e-06
-1.52148e-05
5.45053e-05
-3.31266e-06
-1.64122e-05
5.52031e-05
-1.52036e-06
-1.50329e-05
5.86237e-05
1.63585e-06
-1.20753e-05
6.39629e-05
3.25029e-06
-9.01025e-06
7.06267e-05
1.7306e-06
-5.89749e-06
7.7774e-05
7.03259e-07
-1.68124e-06
2.12789e-06
3.05448e-06
0.00011535
-8.01976e-06
3.90008e-06
0.000121987
-1.14072e-05
1.27794e-05
0.000123091
-1.28141e-05
1.97995e-05
0.000119326
-1.08693e-05
2.23825e-05
0.000114729
-7.96502e-06
2.05675e-05
0.000112162
-5.50694e-06
1.76655e-05
0.000111224
-3.8768e-06
1.64961e-05
0.000110193
-2.5796e-06
1.67815e-05
0.000108208
-1.60194e-06
1.6379e-05
0.000105028
-1.35081e-06
1.39987e-05
9.996e-05
-1.58802e-06
1.11926e-05
9.24172e-05
-3.10956e-06
1.10478e-05
8.32964e-05
-7.30544e-06
1.42178e-05
7.49137e-05
-1.22305e-05
1.72459e-05
6.91069e-05
-1.44456e-05
1.71363e-05
6.59301e-05
-1.22495e-05
1.47219e-05
6.48765e-05
-7.91727e-06
1.19863e-05
6.55426e-05
-4.4983e-06
9.70692e-06
6.72744e-05
-2.55567e-06
8.04024e-06
6.94214e-05
-2.71202e-06
7.18337e-06
7.19124e-05
-7.68117e-06
7.7173e-06
7.54429e-05
-1.92079e-05
9.64592e-06
8.09586e-05
-3.30177e-05
1.12276e-05
8.88302e-05
-4.15173e-05
9.76972e-06
9.81652e-05
-4.11583e-05
3.98075e-06
0.000106663
-3.27875e-05
-4.93121e-06
0.000111667
-2.03567e-05
-1.24939e-05
0.00011206
-8.58849e-06
-1.63897e-05
0.000108584
-3.88257e-06
-1.59158e-05
0.000102937
-6.36638e-06
-1.27152e-05
9.6391e-05
-8.67766e-06
-1.05791e-05
8.9269e-05
-7.00519e-06
-1.18482e-05
8.19069e-05
-4.6664e-06
-1.53301e-05
7.57802e-05
-3.86982e-06
-1.8473e-05
7.28824e-05
-2.89639e-06
-1.96286e-05
7.40854e-05
-1.38117e-06
-1.88468e-05
7.90791e-05
-2.15738e-06
-1.7075e-05
8.69426e-05
-6.42135e-06
-1.44042e-05
9.6283e-05
-9.28167e-06
-1.00429e-05
-8.17014e-06
-3.57178e-06
0.000132588
-2.30922e-05
-7.79495e-06
0.000145268
-2.73368e-05
3.20384e-06
0.000151971
-2.53752e-05
1.50543e-05
0.000149371
-1.70448e-05
2.31852e-05
0.000142916
-9.75871e-06
2.43375e-05
0.000139226
-6.67484e-06
2.06918e-05
0.000139126
-5.44906e-06
1.77329e-05
0.000139572
-3.78224e-06
1.81571e-05
0.00013868
-2.24881e-06
1.99579e-05
0.000136698
-2.07391e-06
1.89184e-05
0.000133321
-1.99492e-06
1.42413e-05
0.000126967
-1.82271e-06
1.09138e-05
0.000116695
-4.37822e-06
1.32877e-05
0.000104087
-9.30355e-06
1.85907e-05
9.28701e-05
-1.33358e-05
2.09944e-05
8.55616e-05
-1.33756e-05
1.92898e-05
8.2245e-05
-1.00589e-05
1.62503e-05
8.17985e-05
-6.41229e-06
1.37361e-05
8.28517e-05
-3.73954e-06
1.21045e-05
8.42555e-05
-3.44327e-06
1.15333e-05
8.55162e-05
-9.84892e-06
1.29901e-05
8.71925e-05
-2.58256e-05
1.68726e-05
9.06009e-05
-4.60154e-05
2.12379e-05
9.70044e-05
-6.01466e-05
2.25271e-05
0.000107375
-6.29557e-05
1.80375e-05
0.000121226
-5.50426e-05
7.99656e-06
0.000134279
-3.86059e-05
-5.04047e-06
0.000141296
-1.91566e-05
-1.48612e-05
0.000141028
-8.67272e-06
-1.78653e-05
0.000135831
-9.34768e-06
-1.50906e-05
0.000128759
-1.12278e-05
-1.12393e-05
0.000121246
-8.44765e-06
-1.06111e-05
0.000113184
-4.9496e-06
-1.34793e-05
0.000104827
-3.27053e-06
-1.75653e-05
9.77952e-05
-1.68374e-06
-2.10956e-05
9.4183e-05
-1.42703e-06
-2.3768e-05
9.55151e-05
-6.43594e-06
-2.56522e-05
0.000101744
-1.63954e-05
-2.56731e-05
0.000110688
-2.32669e-05
-2.24532e-05
-2.2763e-05
-1.63717e-05
0.000143333
-3.79266e-05
-2.27048e-05
0.000158416
-4.63388e-05
-1.0852e-05
0.000172907
-4.67072e-05
3.90329e-06
0.00017569
-2.97561e-05
1.83492e-05
0.000167857
-1.21887e-05
2.58942e-05
0.000161391
-6.46912e-06
2.45029e-05
0.000162539
-8.06851e-06
1.93637e-05
0.000166637
-7.20959e-06
1.74646e-05
0.000167742
-3.44511e-06
2.06823e-05
0.000166347
-2.59207e-06
2.36131e-05
0.000165124
-4.08668e-06
2.00436e-05
0.000162869
-3.82644e-06
1.3075e-05
0.000155839
-3.59803e-06
1.18788e-05
0.000142279
-5.67808e-06
1.78285e-05
0.000125459
-8.77311e-06
2.34149e-05
0.000111384
-1.04963e-05
2.37791e-05
0.000103461
-9.77073e-06
2.09132e-05
0.000100947
-7.44268e-06
1.79118e-05
0.000101472
-4.66196e-06
1.58411e-05
0.000103216
-3.84985e-06
1.47509e-05
0.000104999
-1.08749e-05
1.56195e-05
0.000106085
-2.93105e-05
1.96609e-05
0.000106858
-5.37629e-05
2.60694e-05
0.000109156
-7.31431e-05
3.12942e-05
0.000115674
-8.01866e-05
3.07504e-05
0.000128873
-7.50313e-05
2.249e-05
0.000147424
-5.8876e-05
8.09361e-06
0.00016373
-3.53263e-05
-7.45207e-06
0.000170101
-1.75887e-05
-1.61296e-05
0.000166098
-1.25919e-05
-1.64892e-05
0.000158046
-1.24029e-05
-1.26616e-05
0.000151399
-9.8376e-06
-9.63006e-06
0.000145968
-6.20214e-06
-1.01488e-05
0.000139394
-2.64181e-06
-1.36532e-05
0.000131471
1.88959e-06
-1.82966e-05
0.000123959
3.60698e-06
-2.37842e-05
0.000119509
-4.46888e-06
-3.02606e-05
0.000120641
-2.1763e-05
-3.56065e-05
0.000126529
-3.56327e-05
-3.60761e-05
-3.70564e-05
-3.12679e-05
0.000158981
-4.77898e-05
-3.80878e-05
0.000170574
-6.01098e-05
-2.4655e-05
0.000187817
-6.8175e-05
-8.55521e-06
0.000198556
-5.09465e-05
1.002e-05
0.000193847
-2.00691e-05
2.36603e-05
0.000182684
-4.25207e-06
2.68046e-05
0.000179901
-7.80163e-06
2.1314e-05
0.000187646
-1.31141e-05
1.54844e-05
0.000194481
-8.17751e-06
1.66195e-05
0.000192629
-1.13307e-06
2.2743e-05
0.000188199
-2.64179e-06
2.41696e-05
0.000189169
-9.31033e-06
1.74989e-05
0.000191791
-1.2494e-05
1.24457e-05
0.000185782
-9.97123e-06
1.65332e-05
0.000168488
-5.90518e-06
2.41475e-05
0.000147448
-4.08408e-06
2.72374e-05
0.000131852
-4.71007e-06
2.55254e-05
0.000124818
-5.56395e-06
2.25394e-05
0.000124116
-5.01456e-06
2.01469e-05
0.000126765
-4.96823e-06
1.81998e-05
0.000130511
-1.22861e-05
1.73306e-05
0.000133211
-3.06964e-05
1.92602e-05
0.000133443
-5.52587e-05
2.52853e-05
0.000132051
-7.68114e-05
3.35742e-05
0.000132648
-8.78238e-05
3.87533e-05
0.000140466
-8.71136e-05
3.53076e-05
0.000158163
-7.54649e-05
2.17467e-05
0.000179716
-5.4032e-05
4.05411e-06
0.000191609
-2.95124e-05
-1.07222e-05
0.00018583
-1.26475e-05
-1.53299e-05
0.000170732
-4.99125e-06
-1.3059e-05
0.000160981
-5.36084e-06
-8.287e-06
0.000161553
-9.17484e-06
-5.10484e-06
0.00016589
-7.74157e-06
-6.05748e-06
0.000166279
2.29373e-06
-1.06824e-05
0.000161479
1.05685e-05
-1.78761e-05
0.000154345
4.12252e-06
-2.78551e-05
0.000149067
-1.77786e-05
-3.92563e-05
0.000149172
-4.01781e-05
-4.66166e-05
-4.66252e-05
-4.60461e-05
0.000181755
-5.06722e-05
-5.35352e-05
0.00018902
-6.45906e-05
-3.97294e-05
0.00020335
-8.21498e-05
-2.04827e-05
0.000218995
-7.43836e-05
-4.30069e-07
0.00022293
-3.84417e-05
1.78576e-05
0.000212953
-7.51964e-06
2.61978e-05
0.000202075
-3.58446e-06
2.29134e-05
0.000203572
-1.49681e-05
1.42393e-05
0.000215134
-1.70088e-05
1.04288e-05
0.000221019
-4.6122e-06
1.5165e-05
0.000214305
3.8033e-06
2.05142e-05
0.000207611
-5.9339e-06
1.81707e-05
0.000213397
-2.42652e-05
1.28661e-05
0.000222071
-2.91495e-05
1.50837e-05
0.000216038
-1.629e-05
2.3692e-05
0.000194726
-1.45272e-06
2.91603e-05
0.000171542
4.16849e-06
2.88242e-05
0.000156675
2.27959e-06
2.65824e-05
0.000151664
-1.72161e-06
2.51604e-05
0.000153994
-6.43677e-06
2.34197e-05
0.000160217
-1.68138e-05
2.0454e-05
0.000165882
-3.42637e-05
1.79414e-05
0.000167307
-5.45921e-05
2.05294e-05
0.000164178
-7.33642e-05
2.97175e-05
0.000159778
-8.54629e-05
3.99182e-05
0.000160534
-8.86427e-05
4.30501e-05
0.00017251
-8.36519e-05
3.32002e-05
0.000192921
-6.86578e-05
1.38273e-05
0.000206937
-4.13527e-05
-4.86638e-06
0.000201188
-1.11809e-05
-1.38245e-05
0.000181555
8.43818e-06
-1.33495e-05
0.000165844
7.87092e-06
-6.98081e-06
0.00016443
-5.87605e-06
8.81315e-07
0.000175354
-1.3621e-05
4.84332e-06
0.000188574
-3.64145e-06
2.19458e-06
0.00019531
1.19366e-05
-5.49175e-06
0.000193873
1.39036e-05
-1.8008e-05
0.000187225
-5.87578e-06
-3.42539e-05
0.000181152
-3.33827e-05
-4.94816e-05
-4.71349e-05
-5.70715e-05
0.000210132
-4.50106e-05
-6.58484e-05
0.000213629
-6.08733e-05
-5.60963e-05
0.000224113
-8.47749e-05
-3.52845e-05
0.000239159
-9.08232e-05
-1.28611e-05
0.00025017
-6.34044e-05
8.12642e-06
0.000248359
-2.30717e-05
2.14638e-05
0.000236126
-3.56133e-06
2.29683e-05
0.000226216
-9.67183e-06
1.4497e-05
0.00022982
-1.97237e-05
5.97616e-06
0.000242482
-1.3856e-05
6.22798e-06
0.000247684
1.08661e-06
1.28301e-05
0.000239754
1.02431e-06
1.55595e-05
0.000234661
-2.32488e-05
1.21925e-05
0.000244698
-4.70896e-05
1.23881e-05
0.000254488
-4.10368e-05
2.08569e-05
0.000245204
-1.30453e-05
2.87911e-05
0.000221988
8.85849e-06
2.9865e-05
0.000199991
1.4608e-05
2.81974e-05
0.00018712
9.42642e-06
2.86936e-05
0.000185128
-3.38217e-06
2.93932e-05
0.000192614
-2.38649e-05
2.54782e-05
0.000203193
-4.43945e-05
1.6633e-05
0.000208412
-5.75923e-05
1.16722e-05
0.00020503
-6.69778e-05
1.87871e-05
0.000196374
-7.56798e-05
3.38788e-05
0.000189426
-8.01834e-05
4.4894e-05
0.000192465
-8.03113e-05
4.10319e-05
0.000206829
-7.34031e-05
2.25865e-05
0.000220396
-4.9656e-05
2.02687e-06
0.000218397
-1.09197e-05
-1.15568e-05
0.000201561
2.02945e-05
-1.43388e-05
0.000184392
2.30153e-05
-8.57312e-06
0.000177953
3.42341e-06
2.15867e-06
0.000184986
-1.33585e-05
1.21306e-05
0.000201006
-9.34492e-06
1.5538e-05
0.000217588
7.78614e-06
1.11781e-05
0.000227671
1.74609e-05
-1.25292e-06
0.000228307
6.87242e-06
-2.08633e-05
0.000221753
-1.78889e-05
-4.29988e-05
-3.62806e-05
-6.02506e-05
0.000246084
-3.07677e-05
-7.10866e-05
0.000244831
-5.18901e-05
-7.00576e-05
0.00025294
-7.94733e-05
-5.19134e-05
0.000264718
-9.57024e-05
-2.73931e-05
0.000275704
-8.30709e-05
-5.57527e-06
0.000280027
-4.72816e-05
1.25795e-05
0.000273466
-1.43593e-05
1.97766e-05
0.00025979
-4.52952e-06
1.46814e-05
0.000251669
-1.25692e-05
4.05643e-06
0.000258472
-1.79736e-05
2.6909e-07
0.000272541
-1.07219e-05
6.92587e-06
0.000276804
-4.61436e-06
1.42625e-05
0.000268847
-1.9338e-05
1.31936e-05
0.000266777
-4.96886e-05
9.92288e-06
0.000278355
-6.14747e-05
1.52629e-05
0.000285052
-3.68359e-05
2.4866e-05
0.000273572
3.38701e-08
2.81588e-05
0.00025209
2.21718e-05
2.71139e-05
0.000232708
2.53737e-05
2.90976e-05
0.000222466
1.02178e-05
3.2085e-05
0.000225734
-2.2769e-05
2.68834e-05
0.000239986
-5.49933e-05
1.15496e-05
0.000253129
-6.65736e-05
-1.76974e-06
0.000253994
-6.28859e-05
6.086e-07
0.000242861
-6.20502e-05
1.95378e-05
0.000228066
-6.44739e-05
4.01208e-05
0.000220161
-6.58126e-05
4.56335e-05
0.00022515
-6.45599e-05
3.10031e-05
0.000235911
-4.8436e-05
9.04589e-06
0.000238459
-1.01e-05
-7.91409e-06
0.000228985
2.7008e-05
-1.5226e-05
0.000216179
3.42697e-05
-1.41935e-05
0.000208132
1.42051e-05
-4.97641e-06
0.000208583
-6.26476e-06
7.38444e-06
0.000217956
-8.1684e-06
1.76252e-05
0.000233828
4.1589e-06
2.11553e-05
0.00025205
1.29363e-05
1.55808e-05
0.000264977
9.8619e-06
-2.28317e-06
0.000265751
-2.89173e-06
-2.90284e-05
-1.71988e-05
-5.49548e-05
0.000289735
-1.20311e-05
-6.98889e-05
0.000284155
-4.01625e-05
-7.78252e-05
0.000290316
-7.14598e-05
-6.57446e-05
0.000299485
-9.10365e-05
-4.30034e-05
0.000305068
-9.06428e-05
-1.98576e-05
0.00030727
-6.76086e-05
-8.73262e-08
0.000304922
-3.23871e-05
1.28936e-05
0.000295687
-6.18483e-06
1.30963e-05
0.000284638
-2.10988e-06
3.73327e-06
0.000283524
-1.29121e-05
-2.5592e-06
0.00029545
-1.99485e-05
3.04773e-06
0.000307311
-1.76577e-05
1.35274e-05
0.000306259
-2.17845e-05
1.5463e-05
0.000298142
-4.3836e-05
8.88591e-06
0.000299107
-6.49864e-05
7.63637e-06
0.000308239
-5.52498e-05
1.60697e-05
0.000309191
-1.88493e-05
2.38963e-05
0.000295878
1.56385e-05
2.72259e-05
0.000277043
3.25928e-05
3.06553e-05
0.000262369
2.74653e-05
3.049e-05
0.000257857
-4.58069e-06
1.84052e-05
0.000268633
-5.00976e-05
-1.84345e-06
0.000289819
-7.64817e-05
-1.71552e-05
0.000302624
-6.86901e-05
-1.68234e-05
0.000295122
-5.28689e-05
2.87139e-06
0.000274554
-4.77391e-05
3.08455e-05
0.000256189
-4.61557e-05
4.67985e-05
0.000250781
-4.44229e-05
3.89957e-05
0.000256536
-3.38633e-05
1.71527e-05
0.000261681
-3.10703e-06
-2.55112e-06
0.000259423
3.08569e-05
-1.48416e-05
0.000253525
3.92234e-05
-2.04823e-05
0.000248601
2.10244e-05
-1.71816e-05
0.000246382
1.54642e-06
-5.71444e-06
0.000248164
-8.93568e-07
6.95081e-06
0.00025611
6.23119e-06
1.66247e-05
0.00027341
5.39996e-06
1.99637e-05
0.000295497
-1.40789e-06
1.14846e-05
0.0003078
-9.02725e-07
-1.36848e-05
6.83335e-08
-4.49767e-05
0.000340077
3.75111e-06
-6.46821e-05
0.000331908
-2.60834e-05
-8.04305e-05
0.000335223
-5.94801e-05
-7.51698e-05
0.000342355
-7.85125e-05
-5.68239e-05
0.000342625
-8.44718e-05
-3.5909e-05
0.00033758
-7.55301e-05
-1.50427e-05
0.000332992
-4.82571e-05
3.52422e-06
0.000327887
-1.36366e-05
1.07211e-05
0.00032086
5.46381e-06
4.68851e-06
0.000318002
-1.8265e-06
-2.84648e-06
0.00032586
-2.01808e-05
3.25187e-07
0.00033912
-2.79253e-05
1.22931e-05
0.000344278
-2.67251e-05
1.81889e-05
0.000336606
-3.53581e-05
1.09727e-05
0.00032598
-5.33757e-05
2.40074e-06
0.000321232
-5.53772e-05
6.10262e-06
0.000317863
-3.1246e-05
1.90346e-05
0.000310619
5.06868e-07
3.01906e-05
0.000302863
2.40136e-05
3.22115e-05
0.000298218
3.30594e-05
2.18142e-05
0.000294588
1.60785e-05
1.15027e-06
0.000297199
-2.96234e-05
-1.88885e-05
0.000316099
-7.64159e-05
-2.92565e-05
0.000340838
-8.36716e-05
-2.43324e-05
0.000345253
-6.01309e-05
-4.2011e-06
0.000324492
-3.95417e-05
2.52015e-05
0.000297428
-2.91846e-05
4.69625e-05
0.000282948
-2.23112e-05
4.69889e-05
0.000284658
-1.21825e-05
2.7251e-05
0.000292457
9.82509e-06
4.57621e-06
0.000296795
3.38539e-05
-1.25265e-05
0.000297435
3.72626e-05
-2.40133e-05
0.000297456
1.97413e-05
-2.81258e-05
0.000296992
3.64025e-06
-2.23665e-05
0.00029551
4.03447e-06
-1.07759e-05
0.000296388
1.0561e-05
8.75364e-07
0.000305849
1.383e-06
1.01268e-05
0.000326386
-1.50906e-05
1.06136e-05
0.000346564
-1.10493e-05
-5.69394e-06
6.29274e-06
-3.51409e-05
0.000392377
1.03011e-05
-5.75295e-05
0.00038602
-1.21752e-05
-7.735e-05
0.000386453
-4.1951e-05
-7.97839e-05
0.000392659
-5.94842e-05
-6.76106e-05
0.000391721
-6.947e-05
-5.03631e-05
0.000380696
-7.21532e-05
-3.02846e-05
0.000368888
-5.52889e-05
-8.97028e-06
0.000361602
-2.03748e-05
5.53096e-06
0.00035723
9.68059e-06
5.7242e-06
0.000356308
1.09911e-05
-3.00485e-07
0.000362478
-1.15448e-05
8.81359e-07
0.000374641
-2.96304e-05
1.17508e-05
0.000382652
-3.01727e-05
2.15553e-05
0.000376286
-2.8282e-05
1.77311e-05
0.000357151
-3.52516e-05
4.44008e-06
0.000336373
-3.85039e-05
-8.58213e-07
0.000322578
-2.59481e-05
6.85327e-06
0.000318963
-5.97018e-06
1.67641e-05
0.000325078
1.09029e-05
1.53247e-05
0.000335181
2.43297e-05
6.92393e-07
0.000340393
2.31904e-05
-1.96303e-05
0.000341429
-8.17716e-06
-3.56245e-05
0.00035183
-6.12891e-05
-3.793e-05
0.00037529
-9.20861e-05
-2.46065e-05
0.000388327
-7.74429e-05
-6.28232e-07
0.000372576
-4.34862e-05
2.68318e-05
0.000341531
-1.88124e-05
4.79412e-05
0.000320215
-4.90646e-06
5.21993e-05
0.000318047
6.27204e-06
3.60472e-05
0.000326359
2.19506e-05
1.20977e-05
0.000332739
3.72087e-05
-7.54811e-06
0.000334168
3.56042e-05
-2.03439e-05
0.000335937
1.63746e-05
-2.85734e-05
0.000340876
-5.93963e-07
-3.10861e-05
0.000345738
2.97904e-07
-2.57636e-05
0.000347895
8.73955e-06
-1.32937e-05
0.000349798
2.4778e-06
3.23876e-07
0.00035897
-1.56965e-05
5.11713e-06
0.000377161
-1.67123e-05
-6.03476e-06
3.57112e-06
-2.99306e-05
0.000436568
9.83219e-06
-5.07613e-05
0.000440603
-2.29941e-06
-6.98175e-05
0.0004421
-2.20119e-05
-7.91345e-05
0.000449264
-3.7062e-05
-7.56051e-05
0.000451242
-5.06179e-05
-6.33482e-05
0.000437846
-6.10573e-05
-4.58236e-05
0.000417466
-5.26857e-05
-2.44954e-05
0.000403193
-2.15179e-05
-5.37732e-06
0.000397614
1.14567e-05
5.33943e-06
0.000398032
2.0761e-05
6.07058e-06
0.00040299
1.51199e-06
6.10718e-06
0.000411616
-2.16354e-05
1.18488e-05
0.000418618
-2.87417e-05
2.15936e-05
0.000415157
-2.57308e-05
2.46469e-05
0.000398232
-2.40858e-05
1.44099e-05
0.000375637
-2.07807e-05
-1.21851e-06
0.000359323
-1.10037e-05
-9.42694e-06
0.000356298
-1.96008e-06
-7.39839e-06
0.000365445
1.73187e-06
-4.14602e-06
0.000379511
7.89444e-06
-8.78553e-06
0.00038997
1.53638e-05
-2.2953e-05
0.000395058
4.25745e-06
-3.71701e-05
0.00040194
-3.71719e-05
-3.99114e-05
0.000417408
-8.12162e-05
-2.58941e-05
0.000429706
-8.62425e-05
-3.9414e-07
0.000418655
-5.13116e-05
2.54211e-05
0.000389023
-1.19118e-05
4.54639e-05
0.000363968
1.20931e-05
5.45788e-05
0.000355187
2.34663e-05
4.5554e-05
0.000355876
3.22368e-05
2.35818e-05
0.000355689
3.94249e-05
4.87823e-06
0.000354051
3.36816e-05
-4.29666e-06
0.000356884
1.13432e-05
-1.10024e-05
0.000367403
-1.06284e-05
-2.05698e-05
0.000380453
-1.32957e-05
-2.52384e-05
0.000387831
-1.3687e-06
-1.48589e-05
0.000387696
4.49666e-06
2.844e-06
0.000387603
-3.39235e-06
8.56253e-06
0.000398505
-6.94318e-06
-5.15197e-06
3.66814e-06
-2.78981e-05
0.000471574
1.51597e-05
-4.38558e-05
0.000488927
3.57823e-06
-6.01095e-05
0.000499869
-8.49209e-06
-7.02507e-05
0.000511711
-1.75989e-05
-7.43156e-05
0.000517247
-3.03309e-05
-7.10613e-05
0.000503576
-4.37181e-05
-5.98809e-05
0.000476166
-4.01854e-05
-4.17975e-05
0.000452773
-1.41513e-05
-2.02894e-05
0.000442626
1.59058e-05
-3.19769e-06
0.000442253
2.4842e-05
7.21085e-06
0.000446391
9.53286e-06
1.18883e-05
0.000451448
-1.14948e-05
1.65039e-05
0.000453645
-2.04014e-05
2.2686e-05
0.000448395
-1.9685e-05
2.57937e-05
0.000435527
-1.73723e-05
1.91437e-05
0.000421679
-1.17922e-05
2.26045e-06
0.000414256
-2.52246e-06
-1.44764e-05
0.000415036
6.7082e-08
-1.79803e-05
0.000421442
-6.94643e-06
-8.94487e-06
0.000429759
-9.30167e-06
-2.95098e-06
0.000435853
2.16288e-06
-9.47226e-06
0.000439724
8.6012e-06
-2.04878e-05
0.00044543
-1.48922e-05
-2.58629e-05
0.000457663
-5.98301e-05
-1.97645e-05
0.00047038
-8.22507e-05
-8.04205e-07
0.000467537
-5.67948e-05
2.35874e-05
0.000445693
-8.35397e-06
4.24798e-05
0.000419964
2.91642e-05
5.10209e-05
0.000401576
4.37559e-05
4.71299e-05
0.00038942
4.30936e-05
3.45929e-05
0.000381619
3.85857e-05
2.14061e-05
0.000380913
2.99242e-05
1.16779e-05
0.000388532
1.13287e-05
4.1828e-06
0.000402465
-1.26717e-05
-4.30367e-06
0.000417183
-2.3385e-05
-1.14102e-05
0.000425717
-1.23778e-05
-9.31003e-06
0.000426215
6.45616e-06
4.30277e-06
0.000423467
1.46331e-05
1.47152e-05
0.000428585
1.50748e-05
5.54166e-06
1.71741e-05
-2.01267e-05
0.000509973
2.1651e-05
-2.559e-05
0.000532263
3.98903e-06
-4.44782e-05
0.000552072
-7.2132e-06
-5.80473e-05
0.000570797
-9.53772e-06
-6.70809e-05
0.000580526
-1.32873e-05
-7.06432e-05
0.000569373
-2.19134e-05
-6.68659e-05
0.000541332
-2.13237e-05
-5.51643e-05
0.00051363
-2.56264e-06
-3.58226e-05
0.000497165
2.11292e-05
-1.40059e-05
0.00049034
2.76674e-05
2.74643e-06
0.000488633
1.44314e-05
1.21054e-05
0.000488713
-2.27284e-06
1.87576e-05
0.000487839
-1.10125e-05
2.63666e-05
0.000483563
-1.21914e-05
2.83365e-05
0.000477614
-1.07212e-05
1.73043e-05
0.000475759
-6.08536e-06
-2.7741e-06
0.000480535
1.12321e-07
-1.84805e-05
0.000486157
-2.79721e-06
-1.71755e-05
0.000485618
-1.56552e-05
-9.89251e-07
0.000479257
-2.12788e-05
1.27093e-05
0.000474079
-6.28262e-06
1.19608e-05
0.000476887
1.29366e-05
2.95805e-06
0.000487817
5.0614e-06
-2.62039e-06
0.00050225
-3.35483e-05
-1.04508e-06
0.000513506
-6.74617e-05
9.85933e-06
0.000511786
-5.55756e-05
2.54548e-05
0.000493448
-4.99743e-06
3.95707e-05
0.00046771
4.28004e-05
4.72813e-05
0.000444477
6.1481e-05
4.38868e-05
0.000426825
5.58616e-05
3.35822e-05
0.000417232
4.3987e-05
2.72863e-05
0.00041839
3.39032e-05
2.70689e-05
0.000428945
2.13149e-05
2.38986e-05
0.000443984
3.4016e-06
1.2977e-05
0.000458006
-9.66259e-06
2.18918e-06
0.000465872
-4.99312e-06
1.7173e-06
0.000467515
1.28437e-05
1.29264e-05
0.000467228
2.76964e-05
2.37824e-05
0.000472466
3.35871e-05
1.93003e-05
3.25528e-05
-9.0268e-07
0.000554446
2.28064e-05
-1.6866e-06
0.000576632
-1.26849e-06
-2.91664e-05
0.000601171
-2.12919e-05
-4.35896e-05
0.00062345
-2.28292e-05
-5.02478e-05
0.000634818
-1.18395e-05
-5.84899e-05
0.000629006
-4.04061e-06
-6.69177e-05
0.000611546
-5.47199e-07
-6.81415e-05
0.000593593
8.8528e-06
-5.59151e-05
0.000579229
2.38748e-05
-3.24695e-05
0.000565188
2.97738e-05
-8.66549e-06
0.000549696
2.14498e-05
6.74914e-06
0.000536034
7.34638e-06
1.59932e-05
0.000528255
-4.32364e-06
2.52944e-05
0.000528567
-1.43187e-05
3.30494e-05
0.000537322
-2.32666e-05
3.08522e-05
0.000553723
-2.74346e-05
1.74921e-05
0.000571541
-2.4801e-05
3.19415e-06
0.000578111
-2.14165e-05
3.11982e-07
0.000566269
-2.20062e-05
1.58215e-05
0.000545078
-1.84527e-05
3.99853e-05
0.000530441
-2.13873e-07
5.06492e-05
0.00053062
2.41492e-05
3.65696e-05
0.000541768
2.96374e-05
6.8541e-06
0.000555375
2.66244e-06
-1.17491e-05
0.00056456
-3.67891e-05
-3.38411e-06
0.000561696
-4.58399e-05
2.048e-05
0.000541886
-8.54476e-06
3.91632e-05
0.00051391
4.4035e-05
4.52339e-05
0.00048973
7.46869e-05
4.15633e-05
0.000475297
7.73016e-05
3.28634e-05
0.000470821
6.54574e-05
2.57035e-05
0.000474223
5.03247e-05
2.2648e-05
0.000482583
3.4897e-05
2.02616e-05
0.000494101
1.93828e-05
1.49396e-05
0.000507543
9.0178e-06
7.43685e-06
0.000519762
1.06292e-05
4.53585e-06
0.000526615
2.18632e-05
1.37089e-05
0.000527729
3.2329e-05
3.07234e-05
0.000529134
3.709e-05
3.92208e-05
3.57019e-05
2.71731e-05
0.000606838
4.36846e-06
2.38998e-05
0.000629205
-1.44097e-05
-1.01098e-05
0.000652301
-3.13051e-05
-3.79873e-05
0.000674431
-3.15247e-05
-5.11372e-05
0.000688727
-1.42286e-05
-5.41153e-05
0.000686886
6.41123e-06
-5.61115e-05
0.000670913
1.96671e-05
-6.01719e-05
0.000653651
2.59943e-05
-5.97305e-05
0.000644595
2.95843e-05
-4.86177e-05
0.000641106
2.85099e-05
-3.10464e-05
0.000634608
2.11458e-05
-1.49368e-05
0.000620933
1.09886e-05
-2.63849e-06
0.00060448
3.87604e-07
9.59886e-06
0.000593353
-1.31814e-05
2.36047e-05
0.000595011
-3.18585e-05
3.4974e-05
0.000612347
-5.03666e-05
3.67195e-05
0.000637418
-5.96895e-05
2.87421e-05
0.000651907
-5.51617e-05
2.03613e-05
0.000642903
-3.86949e-05
2.45327e-05
0.000618367
-1.52691e-05
4.25143e-05
0.000596606
1.16854e-05
5.55851e-05
0.000587173
3.32906e-05
4.31034e-05
0.00058748
3.63781e-05
7.59185e-06
0.000594595
1.40667e-05
-2.64693e-05
0.000605733
-2.14531e-05
-3.12716e-05
0.000611223
-4.042e-05
-4.17824e-06
0.000602477
-1.98213e-05
2.64433e-05
0.000584752
2.81324e-05
4.25077e-05
0.000570879
6.96835e-05
4.12808e-05
0.00056678
8.65376e-05
2.67385e-05
0.000568058
8.18269e-05
7.34927e-06
0.000569114
6.53487e-05
-6.76043e-06
0.000568857
4.36367e-05
-7.9066e-06
0.000569632
2.43573e-05
4.65342e-07
0.000572708
1.55842e-05
1.07164e-05
0.000576465
1.90075e-05
1.94697e-05