/*--------------------------------*- C++ -*----------------------------------*\
| =========                 |                                                 |
| \\      /  F ield         | OpenFOAM: The Open Source CFD Toolbox           |
|  \\    /   O peration     | Version:  2306                                  |
|   \\  /    A nd           | Website:  www.openfoam.com                      |
|    \\/     M anipulation  |                                                 |
\*---------------------------------------------------------------------------*/
FoamFile
{
    version     2.0;
    format      ascii;
    arch        "LSB;label=32;scalar=64";
    class       volScalarField;
    location    "3";
    object      pPrime2Mean;
}
// * * * * * * * * * * * * * * * * * * * * * * * * * * * * * * * * * * * * * //

dimensions      [0 4 -4 0 0 0 0];

internalField   nonuniform List<scalar> 
60000
(
1.32389e-10
1.68817e-09
1.85202e-09
1.17863e-09
8.81268e-10
1.09682e-09
1.89232e-09
2.67495e-09
1.52285e-09
2.42572e-10
1.32417e-09
2.16736e-09
2.12098e-09
3.21595e-09
4.43397e-09
4.22171e-09
3.85773e-09
3.87115e-09
3.04661e-09
1.207e-09
2.49655e-10
1.47945e-09
2.16595e-09
1.6398e-09
1.84791e-09
2.30416e-09
9.9003e-10
3.4705e-10
1.85971e-09
2.04473e-09
1.73544e-09
1.56691e-09
1.17478e-09
1.34719e-09
2.02415e-09
3.06382e-09
5.55362e-09
9.00998e-09
7.80073e-09
1.95875e-09
1.1277e-10
1.66338e-09
1.874e-09
1.19512e-09
8.84354e-10
1.09999e-09
1.92e-09
2.7224e-09
1.55486e-09
2.37999e-10
1.32794e-09
2.18973e-09
2.12604e-09
3.20118e-09
4.41957e-09
4.20626e-09
3.85243e-09
3.88116e-09
3.06747e-09
1.21422e-09
2.4537e-10
1.49064e-09
2.18357e-09
1.65053e-09
1.86918e-09
2.34701e-09
1.02065e-09
3.37268e-10
1.87117e-09
2.07113e-09
1.72601e-09
1.53839e-09
1.15118e-09
1.32266e-09
2.00221e-09
3.01369e-09
5.52597e-09
9.12493e-09
8.06203e-09
2.11568e-09
1.07998e-10
1.7097e-09
1.94493e-09
1.23441e-09
8.92988e-10
1.09499e-09
1.92889e-09
2.8016e-09
1.66015e-09
2.38905e-10
1.32545e-09
2.24707e-09
2.15128e-09
3.19507e-09
4.43997e-09
4.23627e-09
3.87802e-09
3.91613e-09
3.09971e-09
1.2131e-09
2.40718e-10
1.52547e-09
2.21726e-09
1.65833e-09
1.88516e-09
2.41203e-09
1.08831e-09
3.2411e-10
1.89374e-09
2.11622e-09
1.71809e-09
1.49344e-09
1.10992e-09
1.30742e-09
1.99583e-09
2.99457e-09
5.55028e-09
9.34176e-09
8.43066e-09
2.28755e-09
1.15613e-10
1.8443e-09
2.08165e-09
1.29975e-09
9.05279e-10
1.08355e-09
1.91902e-09
2.88532e-09
1.81959e-09
2.46696e-10
1.29488e-09
2.32594e-09
2.19793e-09
3.19818e-09
4.5079e-09
4.32987e-09
3.94876e-09
3.99209e-09
3.14936e-09
1.19452e-09
2.37576e-10
1.59632e-09
2.27314e-09
1.66768e-09
1.90397e-09
2.49355e-09
1.17274e-09
3.09491e-10
1.94732e-09
2.18756e-09
1.72326e-09
1.43736e-09
1.05548e-09
1.31195e-09
2.02386e-09
3.01945e-09
5.65728e-09
9.70921e-09
8.91391e-09
2.45897e-09
1.34036e-10
2.03467e-09
2.26456e-09
1.3892e-09
9.25423e-10
1.0705e-09
1.87798e-09
2.89558e-09
1.96409e-09
2.74814e-10
1.20935e-09
2.36828e-09
2.23918e-09
3.18228e-09
4.59605e-09
4.48253e-09
4.08363e-09
4.10916e-09
3.23219e-09
1.17383e-09
2.36472e-10
1.70293e-09
2.34608e-09
1.67879e-09
1.92366e-09
2.56929e-09
1.24505e-09
3.06198e-10
2.05515e-09
2.30078e-09
1.76092e-09
1.38741e-09
9.73164e-10
1.30385e-09
2.07714e-09
3.0537e-09
5.83943e-09
1.02878e-08
9.56696e-09
2.64725e-09
1.70176e-10
2.28687e-09
2.4638e-09
1.48728e-09
9.53074e-10
1.06931e-09
1.83154e-09
2.77911e-09
1.98024e-09
3.10653e-10
1.08946e-09
2.31693e-09
2.23246e-09
3.11338e-09
4.65478e-09
4.66908e-09
4.28642e-09
4.32206e-09
3.38831e-09
1.16498e-09
2.34112e-10
1.86089e-09
2.43223e-09
1.63352e-09
1.81723e-09
2.48633e-09
1.25413e-09
3.27776e-10
2.2665e-09
2.48289e-09
1.84733e-09
1.38749e-09
8.85341e-10
1.26586e-09
2.09221e-09
3.00071e-09
5.98895e-09
1.128e-08
1.07615e-08
2.91505e-09
2.16467e-10
2.73692e-09
2.82656e-09
1.62688e-09
9.8099e-10
1.07932e-09
1.83925e-09
2.67094e-09
1.80924e-09
3.22579e-10
1.02306e-09
2.21579e-09
2.17232e-09
3.00291e-09
4.65631e-09
4.85804e-09
4.55694e-09
4.66469e-09
3.70665e-09
1.24013e-09
2.18158e-10
2.13168e-09
2.69081e-09
1.75046e-09
1.79351e-09
2.2687e-09
1.08434e-09
4.15759e-10
2.65054e-09
2.7532e-09
1.92716e-09
1.42968e-09
8.70395e-10
1.24847e-09
2.01167e-09
2.71175e-09
5.73298e-09
1.21669e-08
1.30437e-08
4.03461e-09
2.39927e-10
3.02869e-09
3.52493e-09
1.95085e-09
1.04104e-09
1.06293e-09
1.84724e-09
2.64925e-09
1.69485e-09
2.93355e-10
1.14951e-09
2.19847e-09
2.13367e-09
2.92001e-09
4.6319e-09
5.04553e-09
4.90328e-09
5.14382e-09
4.20266e-09
1.42164e-09
1.94222e-10
2.55298e-09
3.21017e-09
2.0807e-09
2.19913e-09
2.49336e-09
9.69904e-10
5.74039e-10
3.26011e-09
3.09448e-09
1.89824e-09
1.28757e-09
9.31647e-10
1.43239e-09
2.05687e-09
2.15024e-09
4.71759e-09
1.23573e-08
1.58964e-08
6.30885e-09
5.21646e-10
3.20213e-09
4.46667e-09
2.53748e-09
1.18234e-09
1.02198e-09
1.77126e-09
2.58209e-09
1.69291e-09
3.14099e-10
1.15413e-09
2.41987e-09
2.3065e-09
2.9407e-09
4.6282e-09
5.20202e-09
5.34511e-09
5.74948e-09
4.70442e-09
1.5558e-09
2.09218e-10
3.09603e-09
3.84309e-09
2.57613e-09
3.38864e-09
3.70633e-09
1.18638e-09
8.55917e-10
4.35172e-09
3.68565e-09
1.98078e-09
1.19775e-09
8.25029e-10
1.61536e-09
2.33897e-09
1.70985e-09
3.22421e-09
1.13424e-08
1.86784e-08
1.00194e-08
1.59442e-09
2.9874e-09
5.65258e-09
3.29122e-09
1.43527e-09
9.97127e-10
1.65312e-09
2.4761e-09
1.71836e-09
3.78517e-10
9.0135e-10
2.20868e-09
2.36441e-09
2.91061e-09
4.54656e-09
5.21428e-09
5.77858e-09
6.51041e-09
5.14913e-09
1.44705e-09
3.68827e-10
4.05206e-09
4.74342e-09
3.332e-09
5.69946e-09
6.46045e-09
2.10159e-09
1.0174e-09
5.56983e-09
4.39211e-09
2.03539e-09
1.08051e-09
7.75316e-10
1.69161e-09
2.71129e-09
1.57561e-09
1.87725e-09
9.36394e-09
2.04484e-08
1.51589e-08
4.16243e-09
2.02795e-09
6.18459e-09
4.52711e-09
1.92578e-09
1.06802e-09
1.53127e-09
2.36846e-09
1.83693e-09
4.75036e-10
6.76362e-10
1.80038e-09
2.09601e-09
2.55231e-09
3.86339e-09
4.65029e-09
5.81674e-09
7.2185e-09
5.63883e-09
1.23352e-09
7.64919e-10
5.67016e-09
6.30931e-09
4.38624e-09
9.09945e-09
1.10828e-08
4.12044e-09
8.20139e-10
5.84266e-09
4.68713e-09
1.86146e-09
7.55414e-10
7.72172e-10
1.79917e-09
3.10225e-09
1.87672e-09
1.03487e-09
7.00251e-09
2.02635e-08
2.05369e-08
7.99762e-09
8.79193e-10
5.2328e-09
5.24957e-09
2.59124e-09
1.31946e-09
1.48143e-09
2.30411e-09
1.90448e-09
6.06846e-10
4.96735e-10
1.38574e-09
1.78227e-09
2.32366e-09
3.04354e-09
3.44314e-09
4.71508e-09
6.74989e-09
5.65599e-09
1.11029e-09
1.12631e-09
7.12301e-09
8.28246e-09
5.14529e-09
1.13955e-08
1.61772e-08
7.45606e-09
4.62808e-10
4.09281e-09
4.25709e-09
1.59219e-09
5.18589e-10
8.92348e-10
1.91806e-09
3.36709e-09
2.46089e-09
7.63465e-10
4.81153e-09
1.78818e-08
2.37451e-08
1.14102e-08
5.70898e-10
3.13044e-09
4.73345e-09
3.21144e-09
1.576e-09
1.46168e-09
2.23466e-09
2.04162e-09
6.78354e-10
4.59514e-10
1.15639e-09
1.72874e-09
2.67939e-09
2.89279e-09
2.16589e-09
3.03498e-09
4.96383e-09
4.45551e-09
1.00537e-09
1.02139e-09
6.41719e-09
9.2702e-09
5.64274e-09
1.03092e-08
1.80996e-08
1.09916e-08
1.03643e-09
1.57131e-09
2.87881e-09
1.33874e-09
6.20401e-10
1.14544e-09
1.99892e-09
3.2312e-09
2.98651e-09
9.87318e-10
3.05553e-09
1.37196e-08
2.29721e-08
1.24318e-08
1.35496e-09
1.10956e-09
3.2253e-09
3.20957e-09
1.98395e-09
1.40462e-09
2.0377e-09
2.06805e-09
7.3734e-10
4.1737e-10
1.12027e-09
1.85368e-09
3.37245e-09
3.49395e-09
1.77467e-09
2.09995e-09
3.7508e-09
3.166e-09
7.7015e-10
7.35811e-10
4.41326e-09
8.21329e-09
5.99953e-09
7.32518e-09
1.55953e-08
1.29355e-08
3.01558e-09
2.34062e-10
1.38526e-09
1.22096e-09
1.06378e-09
1.49761e-09
1.80338e-09
2.7221e-09
3.14464e-09
1.5771e-09
2.01328e-09
9.05724e-09
1.82967e-08
1.09623e-08
2.62998e-09
1.09633e-10
1.55195e-09
2.71467e-09
2.19778e-09
1.5329e-09
1.83499e-09
1.95411e-09
7.93686e-10
3.84029e-10
1.12866e-09
1.7574e-09
3.11557e-09
3.79211e-09
2.20493e-09
2.10866e-09
3.74656e-09
2.98746e-09
5.40925e-10
7.28433e-10
2.74436e-09
5.77019e-09
6.06e-09
5.33215e-09
1.18574e-08
1.36006e-08
5.75989e-09
6.24421e-10
5.44825e-10
1.22984e-09
1.40022e-09
1.62322e-09
1.64062e-09
2.30986e-09
2.99766e-09
2.25122e-09
1.65176e-09
5.14293e-09
1.21526e-08
7.93615e-09
3.5642e-09
4.55573e-10
4.05659e-10
1.98409e-09
2.3353e-09
1.91828e-09
1.81806e-09
1.52201e-09
7.42934e-10
4.04571e-10
9.5759e-10
1.45092e-09
2.30627e-09
3.17743e-09
2.63932e-09
2.6635e-09
4.3831e-09
3.58183e-09
4.15679e-10
9.40861e-10
2.0885e-09
2.80147e-09
4.73766e-09
4.52503e-09
7.79304e-09
1.21184e-08
8.15937e-09
2.04072e-09
1.75221e-10
1.01187e-09
1.33235e-09
1.46735e-09
1.61887e-09
2.11736e-09
3.13239e-09
2.99994e-09
1.73626e-09
3.01893e-09
7.17521e-09
5.40654e-09
3.66778e-09
1.2311e-09
1.43914e-10
1.24018e-09
2.30217e-09
2.51416e-09
2.30516e-09
1.37671e-09
5.78767e-10
4.93343e-10
9.03131e-10
1.33255e-09
1.89608e-09
2.62014e-09
2.56777e-09
2.83639e-09
4.50236e-09
3.74204e-09
4.76579e-10
1.15051e-09
1.92447e-09
1.04142e-09
2.1635e-09
3.26534e-09
4.63983e-09
8.48887e-09
8.11472e-09
3.52863e-09
3.50842e-10
5.89747e-10
1.33495e-09
1.46054e-09
1.3122e-09
1.47014e-09
2.83766e-09
3.60803e-09
2.17148e-09
2.06904e-09
4.25528e-09
2.96577e-09
2.71022e-09
1.68179e-09
4.59048e-10
7.86404e-10
2.18952e-09
3.13312e-09
2.83918e-09
1.38655e-09
4.77361e-10
5.1114e-10
9.00742e-10
1.39248e-09
1.96805e-09
2.85323e-09
2.90025e-09
2.74325e-09
3.96302e-09
3.1807e-09
4.04623e-10
1.03212e-09
1.97333e-09
8.57658e-10
8.92053e-10
2.04468e-09
2.97902e-09
6.27199e-09
7.11281e-09
3.55387e-09
4.72846e-10
6.01657e-10
1.42151e-09
1.4889e-09
1.33938e-09
1.68584e-09
3.37193e-09
4.43253e-09
2.77904e-09
1.5122e-09
2.30774e-09
1.98393e-09
1.74558e-09
1.07555e-09
6.97648e-10
1.28471e-09
2.66683e-09
3.85833e-09
3.50844e-09
1.90025e-09
6.1414e-10
3.58182e-10
7.99333e-10
1.50558e-09
2.00087e-09
2.52581e-09
2.7053e-09
2.52072e-09
3.31393e-09
3.19074e-09
9.08118e-10
4.02878e-10
1.37416e-09
8.3586e-10
7.88541e-10
2.02017e-09
3.24103e-09
5.99555e-09
6.32082e-09
2.83129e-09
5.08853e-10
5.88546e-10
1.00118e-09
1.39655e-09
1.6145e-09
2.04687e-09
3.79199e-09
5.15017e-09
3.70978e-09
1.54851e-09
1.38239e-09
1.13725e-09
1.26165e-09
9.38025e-10
6.39538e-10
1.12433e-09
2.35181e-09
3.48359e-09
3.57283e-09
2.65308e-09
1.48057e-09
5.9265e-10
2.54916e-10
9.08411e-10
1.76577e-09
2.07017e-09
1.89779e-09
1.34318e-09
1.96271e-09
3.43345e-09
2.6241e-09
5.57174e-10
4.97196e-10
6.14856e-10
1.25216e-09
2.2052e-09
3.89773e-09
6.91023e-09
6.83268e-09
2.93037e-09
5.88966e-10
5.83563e-10
9.38065e-10
1.37494e-09
1.75975e-09
2.15517e-09
3.48911e-09
4.54485e-09
3.95092e-09
2.27321e-09
1.17909e-09
7.51563e-10
5.41948e-10
7.24509e-10
1.11508e-09
1.69148e-09
2.57062e-09
2.95852e-09
2.65803e-09
2.42171e-09
2.08417e-09
1.29262e-09
4.86843e-10
3.11478e-10
8.95962e-10
1.45558e-09
1.44565e-09
1.15337e-09
1.29957e-09
2.58246e-09
3.3887e-09
1.73564e-09
1.82965e-10
7.01842e-10
1.94098e-09
2.59739e-09
4.71283e-09
9.54658e-09
9.87963e-09
3.97504e-09
3.16904e-10
9.50324e-10
1.96634e-09
2.0695e-09
1.80545e-09
1.93469e-09
2.67476e-09
3.65267e-09
4.20144e-09
3.74891e-09
2.13609e-09
2.64356e-09
9.66886e-10
5.53521e-10
1.05081e-09
1.59538e-09
2.25434e-09
2.56643e-09
2.39811e-09
2.13935e-09
1.80283e-09
1.33451e-09
9.49173e-10
6.83143e-10
5.13248e-10
6.2149e-10
8.9252e-10
1.08299e-09
1.35043e-09
2.16754e-09
2.79699e-09
1.77576e-09
3.92084e-10
3.76719e-10
1.46007e-09
2.53296e-09
4.82081e-09
1.08968e-08
1.32559e-08
6.58534e-09
6.23676e-10
1.16954e-09
3.38098e-09
3.58104e-09
2.51871e-09
2.29081e-09
2.68024e-09
2.12763e-09
2.15127e-09
3.49991e-09
4.04869e-09
3.40804e-09
2.66466e-09
1.58777e-09
9.96814e-10
1.072e-09
1.30896e-09
1.58482e-09
2.01011e-09
2.12856e-09
1.648e-09
1.08339e-09
9.42573e-10
1.02613e-09
9.2975e-10
6.68433e-10
5.75968e-10
8.69192e-10
1.31604e-09
1.79496e-09
2.11888e-09
1.64175e-09
7.10492e-10
3.23268e-10
7.10476e-10
1.46339e-09
3.13316e-09
6.96344e-09
9.48286e-09
6.02944e-09
1.31583e-09
4.53736e-10
2.06465e-09
2.82246e-09
2.33799e-09
1.95262e-09
1.82327e-09
1.39442e-09
1.43407e-09
2.40932e-09
3.29476e-09
5.20685e-09
3.3123e-09
1.21137e-09
5.48355e-10
6.80945e-10
9.10127e-10
1.24601e-09
1.80229e-09
2.15985e-09
1.92676e-09
1.49113e-09
1.21717e-09
9.25441e-10
6.81172e-10
7.34824e-10
9.47405e-10
8.81734e-10
1.10096e-09
1.65232e-09
2.16581e-09
2.11098e-09
1.41052e-09
5.82206e-10
3.37824e-10
9.65834e-10
2.07607e-09
4.33107e-09
6.66057e-09
5.22078e-09
1.70916e-09
3.37009e-10
1.01986e-09
1.88134e-09
1.87055e-09
1.69257e-09
1.40861e-09
1.03865e-09
1.29292e-09
2.73952e-09
4.76634e-09
6.61212e-09
5.00341e-09
1.92764e-09
4.1145e-10
5.89994e-10
1.02443e-09
1.38073e-09
1.75907e-09
2.01093e-09
1.70703e-09
1.07008e-09
8.72567e-10
1.17828e-09
1.23464e-09
8.02444e-10
4.98179e-10
8.20211e-10
1.25664e-09
1.94552e-09
3.11654e-09
3.79242e-09
2.89532e-09
1.4933e-09
5.4446e-10
4.06819e-10
1.17146e-09
2.54219e-09
3.95857e-09
3.91063e-09
1.89573e-09
4.89272e-10
7.3563e-10
1.4541e-09
1.56442e-09
1.29721e-09
1.00901e-09
9.17888e-10
1.43267e-09
3.03676e-09
5.32715e-09
3.49065e-09
2.63664e-15
1.43776e-09
2.65349e-09
2.46086e-09
1.82366e-09
1.98658e-09
2.4783e-09
1.24908e-09
2.44394e-10
1.16419e-09
1.63204e-09
2.01129e-09
2.97117e-09
2.91342e-09
2.21876e-09
2.4067e-09
3.29399e-09
3.47047e-09
1.69528e-09
1.55021e-10
1.82425e-09
3.89218e-09
3.07309e-09
1.9567e-09
1.9774e-09
1.86818e-09
1.18862e-09
6.49748e-10
7.63701e-10
8.25318e-10
8.38339e-10
1.06491e-09
1.66158e-09
1.78578e-09
1.9416e-09
4.67082e-09
1.19632e-08
1.87567e-08
1.37297e-08
3.68756e-09
2.45178e-12
1.35335e-09
2.59295e-09
2.45005e-09
1.83065e-09
1.98675e-09
2.49209e-09
1.26276e-09
2.37514e-10
1.18384e-09
1.64969e-09
2.01061e-09
2.96254e-09
2.8997e-09
2.20114e-09
2.39134e-09
3.28483e-09
3.48455e-09
1.72914e-09
1.54096e-10
1.75353e-09
3.81506e-09
3.04372e-09
1.94691e-09
1.94722e-09
1.82142e-09
1.16536e-09
6.5289e-10
7.66077e-10
8.14583e-10
8.1446e-10
1.03234e-09
1.62462e-09
1.76185e-09
1.93731e-09
4.62302e-09
1.19e-08
1.88838e-08
1.40289e-08
3.95455e-09
6.41835e-12
1.34587e-09
2.62933e-09
2.5041e-09
1.86219e-09
2.00747e-09
2.55293e-09
1.31532e-09
2.28655e-10
1.20081e-09
1.68158e-09
2.02089e-09
2.96899e-09
2.88995e-09
2.16999e-09
2.36272e-09
3.27908e-09
3.51853e-09
1.77349e-09
1.54323e-10
1.72074e-09
3.80177e-09
3.05445e-09
1.96463e-09
1.94037e-09
1.78393e-09
1.15845e-09
6.75762e-10
7.79895e-10
8.00091e-10
7.69867e-10
9.77216e-10
1.58263e-09
1.74515e-09
1.89446e-09
4.54068e-09
1.19621e-08
1.94065e-08
1.4682e-08
4.25651e-09
8.62179e-12
1.44574e-09
2.76981e-09
2.61951e-09
1.92099e-09
2.03473e-09
2.65049e-09
1.41067e-09
2.16842e-10
1.20762e-09
1.72268e-09
2.04908e-09
3.00503e-09
2.89304e-09
2.12407e-09
2.32422e-09
3.27557e-09
3.57367e-09
1.81154e-09
1.47067e-10
1.75466e-09
3.87525e-09
3.09494e-09
1.99712e-09
1.96483e-09
1.76428e-09
1.15843e-09
7.06464e-10
8.10605e-10
8.00664e-10
7.18667e-10
9.0086e-10
1.52415e-09
1.73268e-09
1.82172e-09
4.46551e-09
1.2284e-08
2.05495e-08
1.57904e-08
4.63469e-09
1.7303e-11
1.65494e-09
3.00181e-09
2.78065e-09
1.99989e-09
2.04902e-09
2.69709e-09
1.50765e-09
2.15827e-10
1.17539e-09
1.73917e-09
2.08099e-09
3.07107e-09
2.921e-09
2.06888e-09
2.27688e-09
3.29405e-09
3.6417e-09
1.84219e-09
1.35407e-10
1.85744e-09
4.03163e-09
3.16325e-09
2.02882e-09
2.00365e-09
1.76684e-09
1.16276e-09
7.29389e-10
8.55656e-10
8.38904e-10
6.92723e-10
8.20706e-10
1.42463e-09
1.6619e-09
1.69829e-09
4.36517e-09
1.28444e-08
2.2408e-08
1.74866e-08
5.23013e-09
4.80533e-11
1.94996e-09
3.27637e-09
2.94127e-09
2.08622e-09
2.03047e-09
2.62872e-09
1.50021e-09
2.31929e-10
1.12579e-09
1.69398e-09
2.08507e-09
3.13285e-09
2.96777e-09
2.01528e-09
2.21801e-09
3.32707e-09
3.76701e-09
1.90583e-09
1.25289e-10
1.98159e-09
4.23351e-09
3.25956e-09
2.04114e-09
1.94749e-09
1.70335e-09
1.15084e-09
7.30946e-10
8.9349e-10
9.11969e-10
7.26931e-10
7.82986e-10
1.32651e-09
1.48467e-09
1.47189e-09
4.22975e-09
1.35689e-08
2.49635e-08
1.99826e-08
6.41546e-09
1.28893e-10
2.34324e-09
3.57546e-09
3.03377e-09
2.1406e-09
2.01256e-09
2.50641e-09
1.37444e-09
2.41134e-10
1.1627e-09
1.67468e-09
2.10023e-09
3.17296e-09
2.99217e-09
1.95779e-09
2.15667e-09
3.38368e-09
4.00062e-09
2.10974e-09
1.13251e-10
2.12152e-09
4.62167e-09
3.45319e-09
2.06904e-09
1.82464e-09
1.46414e-09
1.03972e-09
7.00861e-10
9.051e-10
9.8492e-10
8.23012e-10
8.40317e-10
1.34748e-09
1.2916e-09
1.08554e-09
3.91914e-09
1.42409e-08
2.82458e-08
2.35915e-08
8.58122e-09
2.60788e-10
2.6557e-09
4.03297e-09
3.19705e-09
2.16295e-09
1.98581e-09
2.44211e-09
1.38244e-09
2.41747e-10
1.17552e-09
1.77639e-09
2.21606e-09
3.27878e-09
3.02152e-09
1.89044e-09
2.09652e-09
3.47155e-09
4.3648e-09
2.54662e-09
1.24165e-10
2.20149e-09
5.32862e-09
4.01925e-09
2.21179e-09
1.76438e-09
1.20147e-09
8.51957e-10
6.66836e-10
9.26087e-10
9.77723e-10
9.03372e-10
9.9513e-10
1.58416e-09
1.28585e-09
6.90678e-10
3.35264e-09
1.40712e-08
3.14811e-08
2.83183e-08
1.18001e-08
5.11517e-10
2.52994e-09
4.50198e-09
3.5335e-09
2.26209e-09
1.93804e-09
2.35974e-09
1.49611e-09
2.9387e-10
9.53961e-10
1.68513e-09
2.22356e-09
3.33113e-09
3.08484e-09
1.84994e-09
2.05497e-09
3.58174e-09
4.75014e-09
3.0976e-09
2.13981e-10
2.00734e-09
5.85712e-09
4.69635e-09
2.49816e-09
1.88545e-09
1.04856e-09
6.69851e-10
6.70599e-10
1.08549e-09
1.08982e-09
8.79333e-10
9.83952e-10
1.84818e-09
1.60245e-09
4.4568e-10
2.79762e-09
1.27453e-08
3.3672e-08
3.40501e-08
1.63883e-08
1.13051e-09
2.02053e-09
4.86436e-09
4.02084e-09
2.48537e-09
1.91487e-09
2.27751e-09
1.57682e-09
3.98514e-10
7.71394e-10
1.47067e-09
2.04081e-09
3.06181e-09
2.96634e-09
1.82857e-09
2.06141e-09
3.71603e-09
4.9523e-09
3.3474e-09
3.36909e-10
1.57998e-09
5.4499e-09
4.67085e-09
2.63436e-09
2.19975e-09
1.10044e-09
5.09731e-10
8.4722e-10
1.50106e-09
1.34763e-09
9.79626e-10
9.41113e-10
1.83317e-09
1.8836e-09
3.73502e-10
2.30807e-09
1.06196e-08
3.38163e-08
4.02618e-08
2.28135e-08
2.58608e-09
1.38211e-09
4.80321e-09
4.77213e-09
2.93988e-09
1.97052e-09
2.24143e-09
1.65698e-09
5.10578e-10
6.85178e-10
1.3451e-09
1.95637e-09
2.75953e-09
2.54671e-09
1.59522e-09
2.02962e-09
3.85445e-09
4.90366e-09
2.96276e-09
2.65577e-10
1.4905e-09
4.71161e-09
4.05876e-09
2.64743e-09
2.77829e-09
1.47464e-09
3.71802e-10
1.09383e-09
2.20159e-09
1.72339e-09
1.11656e-09
9.12517e-10
1.80154e-09
2.261e-09
4.44301e-10
1.79926e-09
8.27204e-09
3.12862e-08
4.51637e-08
2.92102e-08
5.37769e-09
5.92165e-10
4.0449e-09
5.52868e-09
3.71515e-09
2.17913e-09
2.32983e-09
1.85668e-09
5.65904e-10
6.51227e-10
1.34234e-09
2.05635e-09
2.75429e-09
2.28667e-09
1.27627e-09
1.77833e-09
3.69441e-09
4.59184e-09
2.21411e-09
1.06395e-10
1.98967e-09
4.32653e-09
3.55689e-09
2.80015e-09
3.55763e-09
2.25606e-09
4.2353e-10
1.01174e-09
2.64232e-09
2.09374e-09
1.24837e-09
9.20232e-10
1.61711e-09
2.3148e-09
6.60488e-10
1.27718e-09
6.18768e-09
2.63972e-08
4.58529e-08
3.25502e-08
9.06537e-09
3.31364e-10
2.68227e-09
5.36607e-09
4.58985e-09
2.4215e-09
2.39709e-09
2.03217e-09
5.58741e-10
6.25756e-10
1.44072e-09
2.30447e-09
3.08894e-09
2.28071e-09
1.01792e-09
1.42841e-09
3.26097e-09
4.03978e-09
1.60834e-09
1.73959e-10
2.70777e-09
4.26765e-09
3.39666e-09
2.87384e-09
3.93289e-09
3.0774e-09
9.42481e-10
4.57397e-10
2.02453e-09
2.14004e-09
1.28507e-09
9.90579e-10
1.54521e-09
2.31085e-09
9.25899e-10
9.0227e-10
4.40788e-09
2.00722e-08
4.11701e-08
3.08229e-08
1.19209e-08
9.76358e-10
1.17217e-09
4.27352e-09
4.47881e-09
2.62819e-09
2.28506e-09
2.0332e-09
5.03411e-10
6.31683e-10
1.57244e-09
2.44862e-09
3.40066e-09
2.46692e-09
9.35456e-10
1.34566e-09
2.98449e-09
3.4519e-09
1.24629e-09
3.11613e-10
2.02579e-09
3.32986e-09
3.20143e-09
2.62073e-09
3.43213e-09
3.56323e-09
1.77198e-09
3.94074e-10
8.75463e-10
1.57573e-09
1.25469e-09
1.11191e-09
1.53778e-09
2.3114e-09
1.31141e-09
5.34923e-10
2.92517e-09
1.35492e-08
3.22372e-08
2.48067e-08
1.27843e-08
2.22599e-09
2.19337e-10
2.70778e-09
3.78174e-09
2.53158e-09
2.04071e-09
1.82258e-09
4.44771e-10
6.32613e-10
1.64404e-09
2.0889e-09
2.84579e-09
2.43405e-09
1.53766e-09
2.0015e-09
3.25273e-09
2.89676e-09
8.01752e-10
3.99969e-10
1.43745e-09
2.02155e-09
2.77352e-09
2.62379e-09
3.09012e-09
4.0272e-09
2.68615e-09
9.18202e-10
4.49253e-10
9.72212e-10
1.13106e-09
1.10829e-09
1.42926e-09
2.12082e-09
1.62088e-09
4.60937e-10
1.56461e-09
7.86838e-09
2.14808e-08
1.60368e-08
1.08478e-08
3.35988e-09
8.50723e-11
1.01677e-09
2.41562e-09
2.07646e-09
1.67981e-09
1.3712e-09
3.96048e-10
6.48578e-10
1.59731e-09
1.85559e-09
2.4425e-09
2.45041e-09
2.18114e-09
3.11163e-09
4.36757e-09
2.82941e-09
2.65779e-10
7.61012e-10
1.70164e-09
1.23251e-09
2.02137e-09
2.55901e-09
2.94265e-09
4.777e-09
4.23837e-09
1.57736e-09
4.68481e-10
8.03078e-10
1.08168e-09
1.19215e-09
1.40724e-09
2.04783e-09
2.26022e-09
1.09502e-09
8.98405e-10
4.13283e-09
1.18966e-08
9.5062e-09
7.00481e-09
2.71286e-09
5.92013e-10
5.49284e-10
1.01036e-09
1.24894e-09
1.36911e-09
9.58721e-10
3.39587e-10
7.8713e-10
1.6809e-09
1.78269e-09
2.20678e-09
2.43417e-09
2.45807e-09
3.29892e-09
4.73244e-09
3.34504e-09
2.6842e-10
9.63243e-10
2.18603e-09
1.13913e-09
9.43187e-10
1.89222e-09
2.65705e-09
4.71235e-09
4.7266e-09
2.20105e-09
5.96254e-10
6.41834e-10
1.09318e-09
1.24055e-09
1.36774e-09
1.89266e-09
2.85889e-09
2.31625e-09
9.53486e-10
2.22375e-09
6.58216e-09
4.80513e-09
4.16491e-09
2.10659e-09
1.10417e-09
1.4699e-09
1.87191e-09
1.82907e-09
1.65602e-09
9.47153e-10
3.0797e-10
9.82532e-10
1.86261e-09
1.65753e-09
2.03026e-09
2.68723e-09
2.80785e-09
2.95077e-09
3.81195e-09
3.3178e-09
6.14828e-10
5.98547e-10
2.16217e-09
1.58072e-09
7.66604e-10
1.27113e-09
2.13282e-09
4.44238e-09
4.85527e-09
2.46614e-09
7.39202e-10
6.18755e-10
1.07384e-09
1.36741e-09
1.44727e-09
1.9277e-09
3.32379e-09
3.51534e-09
1.50504e-09
1.17773e-09
3.01126e-09
2.68562e-09
2.55766e-09
1.13102e-09
1.1775e-09
2.70144e-09
4.33977e-09
4.09448e-09
2.59055e-09
1.41634e-09
4.55712e-10
4.77194e-10
1.43014e-09
1.99243e-09
1.90067e-09
2.88729e-09
3.52003e-09
2.82833e-09
2.80226e-09
3.02252e-09
1.29876e-09
1.77407e-10
1.35539e-09
1.85577e-09
1.18999e-09
1.51365e-09
2.57245e-09
4.51096e-09
4.52551e-09
2.31709e-09
8.93341e-10
6.38265e-10
8.6806e-10
1.27975e-09
1.48434e-09
1.97321e-09
3.41892e-09
4.56642e-09
2.76432e-09
8.4128e-10
1.43392e-09
1.38234e-09
1.58267e-09
1.23985e-09
1.12778e-09
1.79044e-09
3.22966e-09
4.34524e-09
3.9491e-09
2.67696e-09
1.28671e-09
3.45993e-10
4.3741e-10
1.17847e-09
1.48832e-09
1.78266e-09
2.33842e-09
2.2913e-09
2.22474e-09
3.12193e-09
2.81738e-09
7.61424e-10
2.446e-10
1.4264e-09
2.34334e-09
2.31999e-09
3.18131e-09
5.08302e-09
4.36261e-09
1.93372e-09
8.82296e-10
7.33877e-10
7.97443e-10
8.90377e-10
1.05253e-09
1.67257e-09
2.76348e-09
3.93811e-09
3.39268e-09
1.42708e-09
7.74427e-10
7.67023e-10
9.50165e-10
8.38996e-10
1.1001e-09
2.21211e-09
3.79477e-09
4.28822e-09
3.49662e-09
2.9217e-09
2.2712e-09
1.04113e-09
3.22997e-10
5.33981e-10
1.02341e-09
1.28373e-09
1.38757e-09
1.47766e-09
1.85989e-09
2.7719e-09
2.99913e-09
1.37631e-09
1.53924e-10
9.05244e-10
1.88049e-09
2.18197e-09
3.3809e-09
5.68264e-09
5.0202e-09
2.06363e-09
5.48626e-10
7.9725e-10
1.29666e-09
1.2806e-09
1.25158e-09
1.4535e-09
1.82794e-09
2.88206e-09
3.7702e-09
2.76183e-09
1.09315e-09
1.59422e-09
8.35694e-10
7.64315e-10
1.25302e-09
2.21778e-09
3.45445e-09
3.67401e-09
2.7459e-09
2.13683e-09
2.07811e-09
1.81581e-09
1.1806e-09
6.49651e-10
3.91566e-10
5.28841e-10
9.23637e-10
1.21845e-09
1.46451e-09
1.89266e-09
2.06492e-09
1.27995e-09
4.19648e-10
4.78473e-10
1.0945e-09
1.65137e-09
3.08195e-09
5.98477e-09
6.67709e-09
3.47702e-09
5.98879e-10
6.57089e-10
1.90981e-09
1.99453e-09
1.74064e-09
1.91599e-09
1.8394e-09
1.4521e-09
2.12642e-09
3.18214e-09
2.84964e-09
2.39958e-09
1.6262e-09
1.22832e-09
1.3342e-09
1.85009e-09
2.24728e-09
2.19984e-09
1.99141e-09
1.74995e-09
1.38095e-09
1.17376e-09
1.32188e-09
1.55726e-09
1.43983e-09
9.02087e-10
4.39492e-10
6.52069e-10
1.26564e-09
1.69693e-09
1.68289e-09
1.00524e-09
4.32767e-10
5.38813e-10
8.68787e-10
1.24479e-09
2.36398e-09
4.76532e-09
6.20415e-09
4.20055e-09
1.06748e-09
3.94916e-10
1.5944e-09
2.0387e-09
1.88852e-09
1.83233e-09
1.5291e-09
1.05322e-09
1.39887e-09
2.44817e-09
2.91838e-09
3.936e-09
2.67731e-09
1.51978e-09
1.06857e-09
1.02481e-09
9.948e-10
1.07644e-09
1.53523e-09
2.01284e-09
1.97891e-09
1.47778e-09
9.92876e-10
8.84768e-10
1.00028e-09
9.64677e-10
9.08383e-10
8.86651e-10
1.11124e-09
1.49829e-09
1.73431e-09
1.5264e-09
9.49225e-10
5.18894e-10
5.36189e-10
9.11679e-10
1.68102e-09
3.33754e-09
4.96209e-09
3.94997e-09
1.30864e-09
3.72686e-10
1.01162e-09
1.48529e-09
1.59127e-09
1.59081e-09
1.31632e-09
8.86488e-10
1.22277e-09
2.59011e-09
3.88973e-09
6.11152e-09
4.72567e-09
2.18331e-09
6.2247e-10
4.64045e-10
7.83271e-10
1.14943e-09
1.60103e-09
1.98818e-09
1.87093e-09
1.25232e-09
8.84581e-10
1.07216e-09
1.14662e-09
8.47576e-10
6.40156e-10
8.77198e-10
1.279e-09
1.86279e-09
2.87137e-09
3.28151e-09
2.33534e-09
1.08493e-09
5.22653e-10
5.62402e-10
1.09073e-09
2.18485e-09
3.29776e-09
2.9605e-09
1.36722e-09
6.14837e-10
9.0991e-10
1.26446e-09
1.24914e-09
1.12177e-09
9.1295e-10
9.04429e-10
1.47311e-09
3.11179e-09
5.15453e-09
6.26301e-09
2.32352e-09
3.48553e-10
4.4027e-10
1.01852e-09
1.40608e-09
1.55493e-09
2.09139e-09
1.66581e-09
4.6872e-10
6.63584e-10
1.22531e-09
1.70202e-09
1.98665e-09
1.57004e-09
1.31222e-09
1.89594e-09
2.60586e-09
2.369e-09
1.141e-09
2.47249e-10
1.23245e-09
3.10881e-09
2.97495e-09
1.83407e-09
1.82606e-09
2.05446e-09
1.26899e-09
4.30804e-10
6.0402e-10
1.12332e-09
1.71058e-09
2.05224e-09
3.22115e-09
3.6409e-09
3.11786e-09
3.90861e-09
6.33207e-09
8.49956e-09
8.83229e-09
6.39609e-09
2.38652e-09
3.56792e-10
4.3116e-10
1.01087e-09
1.40382e-09
1.5518e-09
2.0812e-09
1.66414e-09
4.70268e-10
6.65995e-10
1.23044e-09
1.71069e-09
2.0046e-09
1.57819e-09
1.30936e-09
1.89376e-09
2.61855e-09
2.39428e-09
1.1593e-09
2.46648e-10
1.20129e-09
3.06736e-09
2.94965e-09
1.82489e-09
1.82891e-09
2.08292e-09
1.30951e-09
4.33764e-10
5.80161e-10
1.09936e-09
1.70394e-09
2.02283e-09
3.1899e-09
3.61423e-09
3.06391e-09
3.86237e-09
6.33395e-09
8.57022e-09
8.96281e-09
6.56874e-09
2.44381e-09
3.50976e-10
4.30622e-10
1.02027e-09
1.41653e-09
1.55434e-09
2.08367e-09
1.68873e-09
4.76077e-10
6.64443e-10
1.23944e-09
1.7268e-09
2.02446e-09
1.57887e-09
1.29718e-09
1.88649e-09
2.63812e-09
2.43009e-09
1.18048e-09
2.48035e-10
1.1803e-09
3.061e-09
2.96466e-09
1.8291e-09
1.82788e-09
2.12152e-09
1.39286e-09
4.7606e-10
5.59216e-10
1.05706e-09
1.70681e-09
2.02143e-09
3.16541e-09
3.61011e-09
3.04404e-09
3.86358e-09
6.41673e-09
8.75422e-09
9.19292e-09
6.80797e-09
2.49884e-09
3.31799e-10
4.40802e-10
1.04705e-09
1.4467e-09
1.56602e-09
2.10578e-09
1.74718e-09
4.90007e-10
6.58849e-10
1.25296e-09
1.75029e-09
2.0428e-09
1.55764e-09
1.25954e-09
1.87157e-09
2.66833e-09
2.47378e-09
1.1921e-09
2.44029e-10
1.18755e-09
3.12126e-09
3.02418e-09
1.84307e-09
1.82366e-09
2.15203e-09
1.4778e-09
5.37708e-10
5.50078e-10
9.70695e-10
1.67572e-09
2.01162e-09
3.11687e-09
3.61189e-09
3.06231e-09
3.95025e-09
6.66955e-09
9.15358e-09
9.57322e-09
7.1258e-09
2.56273e-09
3.03951e-10
4.5995e-10
1.08496e-09
1.48885e-09
1.58528e-09
2.14583e-09
1.83923e-09
5.19218e-10
6.45309e-10
1.2612e-09
1.77547e-09
2.05525e-09
1.5113e-09
1.19115e-09
1.84346e-09
2.71364e-09
2.54988e-09
1.20097e-09
2.34813e-10
1.23921e-09
3.27969e-09
3.15604e-09
1.89141e-09
1.84815e-09
2.18002e-09
1.52052e-09
5.8351e-10
5.90154e-10
8.90204e-10
1.60172e-09
1.9807e-09
3.00399e-09
3.56029e-09
3.08898e-09
4.12246e-09
7.12618e-09
9.81934e-09
1.01351e-08
7.53489e-09
2.66642e-09
2.74191e-10
4.82952e-10
1.12984e-09
1.54268e-09
1.60846e-09
2.18959e-09
1.94886e-09
5.73453e-10
6.2681e-10
1.25511e-09
1.79614e-09
2.05474e-09
1.43682e-09
1.08861e-09
1.79529e-09
2.77219e-09
2.66686e-09
1.24509e-09
2.28868e-10
1.285e-09
3.52237e-09
3.42406e-09
2.00273e-09
1.94042e-09
2.26726e-09
1.51053e-09
5.55284e-10
6.70496e-10
8.88132e-10
1.48115e-09
1.91681e-09
2.80628e-09
3.37567e-09
3.06485e-09
4.37337e-09
7.84966e-09
1.0847e-08
1.09404e-08
8.10612e-09
2.81387e-09
2.52165e-10
5.02841e-10
1.15566e-09
1.59355e-09
1.63101e-09
2.19556e-09
2.01339e-09
6.38256e-10
6.29536e-10
1.25602e-09
1.83695e-09
2.04798e-09
1.33028e-09
9.59159e-10
1.71878e-09
2.82217e-09
2.83193e-09
1.37257e-09
2.41297e-10
1.18284e-09
3.68764e-09
3.81388e-09
2.15855e-09
2.00286e-09
2.44798e-09
1.56956e-09
4.40761e-10
7.47241e-10
1.01149e-09
1.39172e-09
1.83958e-09
2.55787e-09
2.99099e-09
2.87323e-09
4.66141e-09
8.92628e-09
1.24111e-08
1.21441e-08
8.96898e-09
3.04485e-09
2.44022e-10
5.12071e-10
1.17355e-09
1.60088e-09
1.62957e-09
2.16318e-09
1.99398e-09
6.75326e-10
6.7673e-10
1.34625e-09
1.99155e-09
2.10697e-09
1.20303e-09
8.24613e-10
1.63305e-09
2.86513e-09
3.04394e-09
1.61707e-09
3.14571e-10
9.18961e-10
3.75008e-09
4.35535e-09
2.39249e-09
1.90201e-09
2.48802e-09
1.74407e-09
4.09002e-10
7.06804e-10
1.13129e-09
1.48222e-09
1.81654e-09
2.37104e-09
2.48377e-09
2.4129e-09
4.786e-09
1.0359e-08
1.47312e-08
1.39791e-08
1.02822e-08
3.36348e-09
2.40796e-10
4.96684e-10
1.17879e-09
1.58564e-09
1.6457e-09
2.1513e-09
1.98023e-09
7.13284e-10
6.91033e-10
1.33104e-09
1.97723e-09
2.03781e-09
1.10881e-09
7.10081e-10
1.57082e-09
2.92203e-09
3.29661e-09
1.97741e-09
5.28386e-10
5.72368e-10
3.71125e-09
5.16394e-09
2.87336e-09
1.80035e-09
2.31131e-09
1.78741e-09
4.6475e-10
6.43681e-10
9.86071e-10
1.47394e-09
1.99539e-09
2.34008e-09
2.08349e-09
1.77899e-09
4.50279e-09
1.17249e-08
1.79579e-08
1.6792e-08
1.24611e-08
3.95271e-09
2.49261e-10
4.85902e-10
1.19629e-09
1.59309e-09
1.6485e-09
2.22836e-09
2.09575e-09
7.83864e-10
7.13028e-10
1.3266e-09
1.81417e-09
1.60901e-09
7.82312e-10
6.81922e-10
1.56762e-09
2.96623e-09
3.48265e-09
2.31182e-09
9.5097e-10
2.44441e-10
3.13537e-09
5.77424e-09
3.57695e-09
1.84842e-09
2.14112e-09
1.72428e-09
5.13315e-10
6.78124e-10
9.61857e-10
1.18982e-09
2.02325e-09
2.41755e-09
1.89778e-09
1.36954e-09
3.79754e-09
1.20694e-08
2.13133e-08
2.07262e-08
1.58914e-08
5.3673e-09
3.78169e-10
4.30466e-10
1.39909e-09
1.70915e-09
1.75943e-09
2.47741e-09
2.35843e-09
9.09393e-10
7.32944e-10
1.30439e-09
1.72209e-09
1.42942e-09
5.82626e-10
6.63722e-10
1.61361e-09
2.92955e-09
3.51032e-09
2.38131e-09
1.40016e-09
2.38823e-10
1.9139e-09
5.31855e-09
4.13913e-09
2.0845e-09
2.28049e-09
1.77321e-09
5.25949e-10
7.13989e-10
1.14038e-09
1.00164e-09
1.49391e-09
2.20171e-09
1.78417e-09
1.24603e-09
3.0313e-09
1.06248e-08
2.27557e-08
2.48364e-08
1.95583e-08
7.83271e-09
1.00052e-09
1.97778e-10
1.5741e-09
2.29304e-09