/*--------------------------------*- C++ -*----------------------------------*\
| =========                 |                                                 |
| \\      /  F ield         | OpenFOAM: The Open Source CFD Toolbox           |
|  \\    /   O peration     | Version:  2306                                  |
|   \\  /    A nd           | Website:  www.openfoam.com                      |
|    \\/     M anipulation  |                                                 |
\*---------------------------------------------------------------------------*/
FoamFile
{
    version     2.0;
    format      ascii;
    arch        "LSB;label=32;scalar=64";
    class       volVectorField;
    location    "3";
    object      U;
}
// * * * * * * * * * * * * * * * * * * * * * * * * * * * * * * * * * * * * * //

dimensions      [0 1 -1 0 0 0 0];

internalField   nonuniform List<vector> 
60000
(
(0.0101363 5.97608e-05 0.00230683)
(0.0101459 3.93598e-05 0.00271694)
(0.00993972 1.22542e-05 0.00269547)
(0.00969181 -9.13986e-06 0.0023789)
(0.00951237 -1.24374e-05 0.0020118)
(0.00936479 -6.65355e-06 0.00170201)
(0.00918467 -3.08184e-06 0.00141412)
(0.00891986 -5.78477e-06 0.00114029)
(0.00846348 -9.89811e-06 0.000960152)
(0.00770635 -1.15114e-05 0.000930652)
(0.0067521 -1.19349e-05 0.00100976)
(0.00596211 -1.03278e-05 0.00109687)
(0.00560574 -1.189e-05 0.00115138)
(0.0056292 -1.90561e-05 0.00110887)
(0.00581766 -2.58785e-05 0.000887129)
(0.00596615 -2.15289e-05 0.000575116)
(0.00605119 -7.86456e-06 0.000284732)
(0.00620962 3.95527e-06 5.48397e-05)
(0.0065008 1.3977e-05 -0.000131808)
(0.00683945 2.14569e-05 -0.000307854)
(0.00716066 2.61714e-05 -0.000554749)
(0.00748313 2.10794e-05 -0.000905443)
(0.00788856 6.8826e-06 -0.00136043)
(0.00841489 -5.13897e-06 -0.00187648)
(0.00893294 -7.91058e-06 -0.00231062)
(0.00923038 -1.09379e-05 -0.00250367)
(0.00914476 -9.27303e-06 -0.00249861)
(0.00861173 -4.91502e-07 -0.00244682)
(0.00776714 1.16265e-05 -0.002305)
(0.00693706 5.52584e-06 -0.00209753)
(0.00639126 -7.86559e-06 -0.00201952)
(0.00613596 -4.80858e-06 -0.00204009)
(0.00611071 3.30107e-06 -0.00192727)
(0.00631797 8.1066e-06 -0.00149269)
(0.00671891 2.06614e-05 -0.000768023)
(0.00722201 3.73101e-05 -4.91222e-05)
(0.00779182 4.78925e-05 0.00039954)
(0.00846846 4.66094e-05 0.00065538)
(0.00921244 4.6472e-05 0.00102441)
(0.00982063 5.80397e-05 0.00162831)
(0.0306832 0.000285553 0.00622333)
(0.0311394 0.000167815 0.00707215)
(0.0307596 1.23881e-05 0.00682691)
(0.0299478 -9.02328e-05 0.00592267)
(0.0292241 -0.000101021 0.00506309)
(0.0286883 -6.1084e-05 0.00445328)
(0.0281348 -2.62158e-05 0.00387382)
(0.027301 -1.17523e-05 0.00321959)
(0.0259034 -5.9783e-06 0.00268765)
(0.0237607 -1.76094e-05 0.00252184)
(0.0211442 -7.01974e-05 0.00272581)
(0.0188832 -0.000150232 0.00302366)
(0.0176676 -0.000223434 0.00313399)
(0.0173965 -0.000259698 0.00286475)
(0.0175507 -0.00023867 0.00221126)
(0.0177115 -0.000157009 0.00144451)
(0.0179063 -6.02596e-05 0.000773564)
(0.0184126 5.89891e-06 0.000231266)
(0.0192754 5.05775e-05 -0.00024857)
(0.020302 7.8499e-05 -0.000765911)
(0.0214131 7.29011e-05 -0.00148507)
(0.0226798 6.225e-06 -0.00247265)
(0.024204 -9.18546e-05 -0.00372229)
(0.0259234 -0.000148089 -0.00509254)
(0.0274716 -0.000129826 -0.00620359)
(0.0283166 -8.72866e-05 -0.00666755)
(0.0280321 -2.55078e-05 -0.00657466)
(0.026515 4.56127e-05 -0.00623967)
(0.0242464 6.58749e-05 -0.00571262)
(0.0219789 -2.19022e-05 -0.00527746)
(0.0201732 -0.000112619 -0.0053176)
(0.018947 -0.00010768 -0.00551676)
(0.0184718 -5.63942e-05 -0.00513655)
(0.0188945 4.02198e-06 -0.0038132)
(0.0200228 0.000101273 -0.001871)
(0.0215401 0.00021847 -7.13535e-05)
(0.0233112 0.000279914 0.0011042)
(0.0253641 0.00026246 0.00192293)
(0.02754 0.000259068 0.0030273)
(0.0294172 0.000300451 0.0046131)
(0.0518776 0.00052101 0.00907386)
(0.0532686 0.000243568 0.0104463)
(0.0529718 -8.53983e-05 0.0101835)
(0.0514981 -0.000271841 0.0087884)
(0.0499845 -0.000272201 0.00744608)
(0.0489386 -0.00017738 0.00666007)
(0.0480512 -9.7321e-05 0.00605037)
(0.0467819 -5.42089e-05 0.00523395)
(0.0447036 -3.44893e-05 0.00433691)
(0.0415865 -6.17988e-05 0.00381257)
(0.0376168 -0.000186987 0.00396027)
(0.0337179 -0.000389978 0.00451772)
(0.0310642 -0.000578109 0.00482376)
(0.0299005 -0.00065751 0.00441504)
(0.0296036 -0.000584904 0.00342965)
(0.0295435 -0.000379041 0.00235293)
(0.0297301 -0.000152488 0.00145413)
(0.0305067 -2.04176e-06 0.000733123)
(0.0318874 8.48005e-05 7.74434e-05)
(0.0335974 0.000122992 -0.000654358)
(0.035563 6.67086e-05 -0.00167148)
(0.0379113 -0.000133545 -0.00309612)
(0.0407263 -0.000380888 -0.00498003)
(0.043815 -0.000506686 -0.00716692)
(0.046601 -0.000448804 -0.00907272)
(0.048277 -0.00031704 -0.0100117)
(0.0481681 -0.00014097 -0.00995108)
(0.0460848 4.11007e-05 -0.00929287)
(0.0427351 7.57321e-05 -0.00827504)
(0.0391582 -0.00011983 -0.0075045)
(0.0359089 -0.000298687 -0.00766485)
(0.0331871 -0.000281352 -0.00831916)
(0.0315089 -0.000166613 -0.00814929)
(0.0315 -2.66993e-05 -0.00638157)
(0.0330244 0.00019415 -0.00352743)
(0.0354778 0.000463652 -0.000788806)
(0.0384911 0.000609466 0.00111245)
(0.0420067 0.000564101 0.00251303)
(0.045759 0.000551557 0.00426576)
(0.0491956 0.000603701 0.00665571)
(0.0728045 0.000649738 0.0102608)
(0.0757573 0.000192238 0.012557)
(0.0760058 -0.000295237 0.0128804)
(0.0738885 -0.000541131 0.0113133)
(0.0713123 -0.000510864 0.00934236)
(0.0695823 -0.000348407 0.00822343)
(0.0684426 -0.000213178 0.00775409)
(0.0670029 -0.000124698 0.00713849)
(0.0646825 -7.23784e-05 0.00604995)
(0.0612323 -9.77964e-05 0.00495249)
(0.0565219 -0.000278691 0.00466753)
(0.0510614 -0.000622009 0.00538231)
(0.0462809 -0.000990426 0.00616036)
(0.0432722 -0.00117128 0.00589719)
(0.041849 -0.00106526 0.00469179)
(0.0412037 -0.000716721 0.00338572)
(0.0411533 -0.000329866 0.0023964)
(0.0420035 -7.39627e-05 0.00168194)
(0.0437291 6.09489e-05 0.00106965)
(0.0459823 8.94281e-05 0.000391632)
(0.0486777 -6.20543e-05 -0.000578532)
(0.0520192 -0.000483167 -0.00204572)
(0.0561252 -0.000975274 -0.00423677)
(0.0607444 -0.00121089 -0.0071777)
(0.065122 -0.00108508 -0.010189)
(0.068171 -0.000800625 -0.012149)
(0.0689533 -0.000422564 -0.0126195)
(0.0670745 -5.43141e-05 -0.0119168)
(0.0632505 2.94981e-05 -0.010405)
(0.0586862 -0.000268605 -0.00899881)
(0.0540701 -0.0005436 -0.00892339)
(0.0496034 -0.000518689 -0.010078)
(0.0458722 -0.00035989 -0.010787)
(0.0441869 -0.000174405 -0.00949488)
(0.0451709 0.000161736 -0.00636115)
(0.0481592 0.000605056 -0.00293428)
(0.052323 0.000864866 -0.000363591)
(0.0573581 0.000794466 0.00157621)
(0.0628592 0.000752736 0.00387324)
(0.0681906 0.000819876 0.00696693)
(0.0916057 0.000533417 0.00875097)
(0.0969157 -6.17741e-05 0.0124619)
(0.0985639 -0.000649002 0.014362)
(0.0961423 -0.000882744 0.0135686)
(0.0922874 -0.000781736 0.0110945)
(0.0896245 -0.00054303 0.00920457)
(0.0883114 -0.000358395 0.00870002)
(0.0870573 -0.000221338 0.00866524)
(0.0849867 -0.000124055 0.00791207)
(0.0819006 -0.000118171 0.00630089)
(0.0773636 -0.000285025 0.00509825)
(0.071082 -0.00069878 0.00551763)
(0.064047 -0.00127595 0.00692158)
(0.0581324 -0.00166861 0.00728767)
(0.0544697 -0.00162691 0.00604667)
(0.0525682 -0.00117912 0.00447641)
(0.0518759 -0.000633507 0.00344164)
(0.0524452 -0.000260847 0.00292097)
(0.0541551 -6.88946e-05 0.00263998)
(0.0565433 -5.50563e-05 0.00239317)
(0.0594523 -0.00035917 0.00197459)
(0.0631617 -0.00113604 0.00112857)
(0.0680319 -0.00207876 -0.000635)
(0.0740905 -0.00256862 -0.0038378)
(0.0805892 -0.00230669 -0.00814003)
(0.0859557 -0.00168339 -0.0119919)
(0.0887858 -0.000963957 -0.0140473)
(0.0883224 -0.000296367 -0.014126)
(0.0849933 -8.36209e-05 -0.0125143)
(0.0800251 -0.000449568 -0.0103226)
(0.0744224 -0.000809777 -0.0094479)
(0.0685629 -0.000765114 -0.0106033)
(0.0627027 -0.000577941 -0.01232)
(0.0581566 -0.000432688 -0.0124423)
(0.0567468 -0.000101875 -0.0102089)
(0.0588698 0.000439772 -0.0069134)
(0.0634752 0.000773184 -0.00411806)
(0.069784 0.000652054 -0.00188774)
(0.0771111 0.000549276 0.000803279)
(0.0845786 0.000721682 0.00450653)
(0.104639 -0.000289166 0.00290959)
(0.113437 -0.000753927 0.00827533)
(0.118165 -0.0012358 0.0129217)
(0.116553 -0.00131507 0.0147198)
(0.111441 -0.00106508 0.012941)
(0.107521 -0.000721162 0.0100581)
(0.106089 -0.000499277 0.00880972)
(0.105473 -0.000342175 0.0093057)
(0.104115 -0.000196188 0.00965337)
(0.101897 -0.000145793 0.00818265)
(0.0984861 -0.000222754 0.00579964)
(0.0928094 -0.000548382 0.0051194)
(0.0846948 -0.00123165 0.00680858)
(0.0756516 -0.00191293 0.00829256)
(0.068352 -0.00211429 0.00748244)
(0.063947 -0.00170232 0.00559522)
(0.0619106 -0.00104674 0.00434224)
(0.0617193 -0.00055872 0.00399946)
(0.0629179 -0.000295585 0.00418394)
(0.064819 -0.000287987 0.00460479)
(0.0669973 -0.0008267 0.00510917)
(0.069676 -0.00215728 0.00550541)
(0.0736231 -0.00383426 0.00519594)
(0.0796366 -0.00492491 0.00319074)
(0.0879411 -0.00483058 -0.0012106)
(0.0972141 -0.00369307 -0.00726271)
(0.104421 -0.00211891 -0.0125284)
(0.107392 -0.00078908 -0.0150284)
(0.106096 -0.000290471 -0.0144579)
(0.101621 -0.000667932 -0.0119653)
(0.0955873 -0.00107912 -0.00999793)
(0.0890981 -0.000972862 -0.0103548)
(0.0821802 -0.000717402 -0.0123426)
(0.0752283 -0.000628022 -0.0138488)
(0.0701192 -0.000440766 -0.0135174)
(0.0688826 -3.27555e-05 -0.0118181)
(0.0716947 0.000157929 -0.0100183)
(0.0777696 -0.000184224 -0.00831304)
(0.085986 -0.000501209 -0.00576514)
(0.0950923 -0.000301984 -0.00193017)
(0.107466 -0.00227166 -0.00709786)
(0.119082 -0.00266097 -0.00127778)
(0.129781 -0.00258023 0.00620568)
(0.132084 -0.00200374 0.0124959)
(0.126615 -0.00140167 0.0140576)
(0.121011 -0.000937046 0.011353)
(0.119476 -0.000631125 0.00860478)
(0.120193 -0.000454501 0.00865896)
(0.120156 -0.000318546 0.0104295)
(0.118929 -0.000231019 0.0103909)
(0.11708 -0.000159625 0.00735014)
(0.113531 -0.000270675 0.00479222)
(0.106797 -0.00081625 0.00579431)
(0.0964977 -0.00166268 0.0083899)
(0.0851815 -0.00222526 0.00874885)
(0.0765436 -0.00208496 0.00686714)
(0.0718728 -0.00146514 0.00517181)
(0.0703296 -0.000881965 0.00468432)
(0.0707106 -0.00051421 0.00504219)
(0.0719305 -0.000478316 0.00577258)
(0.0732239 -0.00131025 0.00673885)
(0.0744498 -0.00340994 0.00811724)
(0.0762448 -0.00605404 0.00965298)
(0.0797961 -0.00787099 0.0101397)
(0.0863016 -0.00819966 0.00813315)
(0.0967707 -0.00704405 0.00265711)
(0.109743 -0.00469612 -0.00542195)
(0.119775 -0.00208475 -0.0122746)
(0.123294 -0.000803352 -0.0148217)
(0.120726 -0.00104325 -0.0135574)
(0.114819 -0.0014116 -0.0111028)
(0.108407 -0.00107791 -0.0101935)
(0.101966 -0.000680003 -0.0113769)
(0.094813 -0.000594289 -0.0131649)
(0.0875014 -0.000496045 -0.0143536)
(0.0821878 -0.000377819 -0.0151144)
(0.080647 -0.000674102 -0.0159079)
(0.0836459 -0.0016013 -0.0160904)
(0.0903553 -0.00237897 -0.0145078)
(0.0984091 -0.00234853 -0.0113254)
(0.106577 -0.00473528 -0.0165301)
(0.115533 -0.00562279 -0.0113996)
(0.12954 -0.00536923 -0.00367243)
(0.139095 -0.00342915 0.00577079)
(0.136128 -0.00171776 0.0122083)
(0.127958 -0.0011335 0.0124405)
(0.125139 -0.00101178 0.00897569)
(0.128397 -0.000695789 0.00714663)
(0.131247 -0.000412019 0.00916312)
(0.130771 -0.000469309 0.0115057)
(0.129574 -0.00044562 0.00956582)
(0.128888 -0.000143659 0.0052341)
(0.126317 -0.000231664 0.0043592)
(0.118781 -0.000936098 0.00728613)
(0.106014 -0.00168619 0.00923239)
(0.0925155 -0.00196557 0.00817597)
(0.0832692 -0.00167543 0.00630205)
(0.0792334 -0.00114735 0.00544231)
(0.0786079 -0.000658755 0.00552343)
(0.0796382 -0.000496251 0.00598341)
(0.081351 -0.00144354 0.00662013)
(0.0829165 -0.00407781 0.0079963)
(0.0835959 -0.00762724 0.0106106)
(0.0840397 -0.010372 0.0134958)
(0.086325 -0.0112536 0.0146852)
(0.0929779 -0.0103416 0.0122664)
(0.105681 -0.00791269 0.00514712)
(0.121489 -0.00441331 -0.00442667)
(0.132525 -0.00197871 -0.0112964)
(0.133629 -0.00168025 -0.0133581)
(0.127424 -0.00201529 -0.0121502)
(0.120911 -0.00157081 -0.0102762)
(0.116734 -0.000768967 -0.00979396)
(0.112504 -0.000270414 -0.0107112)
(0.106554 4.63952e-05 -0.0121629)
(0.100093 4.2496e-05 -0.0145358)
(0.0947973 -0.000949545 -0.018396)
(0.0926154 -0.00290977 -0.0220516)
(0.0952595 -0.0045004 -0.0227009)
(0.100751 -0.00467221 -0.0202862)
(0.109471 -0.00672817 -0.0230105)
(0.114437 -0.00827979 -0.0175836)
(0.124972 -0.00900798 -0.0105219)
(0.138469 -0.0062877 -0.00128555)
(0.142092 -0.00241306 0.00753241)
(0.134106 -0.000858654 0.0112109)
(0.126322 -0.00138249 0.00915674)
(0.128242 -0.00157239 0.00582274)
(0.136033 -0.000711361 0.00614559)
(0.138807 -0.00031306 0.00960856)
(0.134922 -0.000840999 0.0102955)
(0.132575 -0.0011023 0.00610031)
(0.135397 -0.000726935 0.00308579)
(0.136362 -0.000455 0.00524089)
(0.128319 -0.00071185 0.00847591)
(0.113075 -0.00107206 0.00888469)
(0.0984533 -0.00126738 0.00759785)
(0.089928 -0.00117483 0.00675898)
(0.0872569 -0.000804797 0.00657637)
(0.088097 -0.000536879 0.00657708)
(0.0907811 -0.00140722 0.00658894)
(0.0938424 -0.00407402 0.00725569)
(0.0953681 -0.00786475 0.00957218)
(0.0945822 -0.0112717 0.0133413)
(0.0930755 -0.0130112 0.0169434)
(0.0943597 -0.0127963 0.0178848)
(0.102533 -0.0107814 0.0134224)
(0.118095 -0.00729368 0.00404671)
(0.133821 -0.00382014 -0.00550708)
(0.137652 -0.00207687 -0.0108274)
(0.12785 -0.00159178 -0.0112633)
(0.11629 -0.00144685 -0.00881074)
(0.112749 -0.00130645 -0.00628287)
(0.115994 -0.00075112 -0.0055798)
(0.118582 0.000423891 -0.00676311)
(0.117013 0.00115882 -0.00977858)
(0.112678 1.36302e-05 -0.0154313)
(0.107345 -0.00303756 -0.02253)
(0.104311 -0.00590562 -0.0270505)
(0.105906 -0.00663315 -0.0267094)
(0.114881 -0.00765621 -0.0269021)
(0.117633 -0.00957055 -0.0212475)
(0.123602 -0.0118169 -0.0140257)
(0.134924 -0.0101242 -0.00603781)
(0.144209 -0.00465201 0.00237761)
(0.142342 -0.000705034 0.00789858)
(0.132963 -0.000785008 0.00793723)
(0.127431 -0.00240096 0.00462078)
(0.132716 -0.0020983 0.00307216)
(0.141795 -0.000202243 0.00580389)
(0.142092 0.000247011 0.00866527)
(0.134629 -0.00157499 0.00672074)
(0.1326 -0.00325569 0.00292465)
(0.140315 -0.00272767 0.00338108)
(0.144185 -0.00101872 0.006884)
(0.13475 6.37291e-07 0.00860012)
(0.11821 1.41042e-05 0.00825274)
(0.104536 -0.000445925 0.00805103)
(0.0976778 -0.000739319 0.00837168)
(0.096764 -0.000829298 0.00843237)
(0.100009 -0.0017551 0.00768358)
(0.104957 -0.00421895 0.00679269)
(0.108099 -0.00763359 0.00768688)
(0.107507 -0.0108878 0.0110987)
(0.104216 -0.0129879 0.0157487)
(0.101264 -0.0136329 0.0193194)
(0.103766 -0.0127107 0.0179053)
(0.115022 -0.0100665 0.00982219)
(0.130116 -0.00600104 -0.000968197)
(0.135429 -0.00211837 -0.00859001)
(0.12515 0.000156391 -0.01018)
(0.110657 0.000149025 -0.00687521)
(0.103747 -0.00127803 -0.00192977)
(0.107068 -0.00180445 0.00141001)
(0.116296 -0.000229029 0.00154986)
(0.123918 0.00178016 -0.00153946)
(0.126334 0.00165307 -0.00804955)
(0.123571 -0.00157729 -0.017184)
(0.117991 -0.00558619 -0.025343)
(0.114419 -0.00735263 -0.0287601)
(0.122096 -0.00723928 -0.0280352)
(0.121999 -0.00928494 -0.0243088)
(0.125741 -0.0127255 -0.0168425)
(0.13312 -0.0132735 -0.0091468)
(0.142745 -0.00849165 -0.00214104)
(0.147237 -0.00238014 0.00354034)
(0.14271 -0.000124363 0.00558199)
(0.133729 -0.00174708 0.00369037)
(0.129877 -0.00321916 0.00128138)
(0.136117 -0.00173599 0.00225523)
(0.144605 0.000828913 0.00570984)
(0.14396 0.000334876 0.00650449)
(0.136408 -0.00369394 0.00376228)
(0.136533 -0.00656184 0.00281288)
(0.146461 -0.00469324 0.0056628)
(0.149088 -0.000803751 0.00802925)
(0.13812 0.00134759 0.00813363)
(0.122921 0.00139733 0.00831652)
(0.111571 0.000419688 0.00962335)
(0.106507 -0.000961573 0.0106529)
(0.108167 -0.00293578 0.0096001)
(0.114833 -0.00537707 0.00660459)
(0.121027 -0.00778933 0.00493974)
(0.12191 -0.0100339 0.00714991)
(0.117708 -0.0117599 0.0121552)
(0.111705 -0.0126291 0.0175399)
(0.108682 -0.012741 0.0191941)
(0.113776 -0.0114885 0.0135034)
(0.124992 -0.00775382 0.00290681)
(0.131116 -0.00221894 -0.00618063)
(0.124458 0.00206104 -0.00943169)
(0.112169 0.00259518 -0.00667794)
(0.103996 -1.59158e-05 -0.000678032)
(0.103371 -0.0022207 0.00498187)
(0.110303 -0.00137583 0.00774321)
(0.120901 0.0013412 0.0066586)
(0.13015 0.00271219 0.00117317)
(0.134303 0.000631966 -0.0084784)
(0.13201 -0.00355434 -0.0190471)
(0.126302 -0.00635038 -0.0261706)
(0.131695 -0.00554994 -0.0257623)
(0.127799 -0.00802962 -0.0257233)
(0.129933 -0.0119912 -0.0199973)
(0.135392 -0.0144976 -0.0121756)
(0.141828 -0.0121595 -0.00565927)
(0.147328 -0.0060884 -0.000582694)
(0.147825 -0.00128855 0.00268158)
(0.141753 -0.000691683 0.00284817)
(0.133486 -0.00249328 0.000865805)
(0.131822 -0.00290154 0.000450146)
(0.139257 -0.000897275 0.00313704)
(0.146913 0.000419446 0.00545801)
(0.145362 -0.00229573 0.00433872)
(0.138985 -0.00738194 0.00261043)
(0.141539 -0.00875262 0.00432291)
(0.150298 -0.00439313 0.00721405)
(0.150263 0.000829254 0.00775301)
(0.140042 0.00314413 0.00771115)
(0.127722 0.00292903 0.00952706)
(0.118706 0.000544915 0.011477)
(0.115962 -0.00363626 0.00999941)
(0.121125 -0.00752032 0.00491046)
(0.130583 -0.00905511 0.000837446)
(0.135779 -0.00933767 0.00178964)
(0.13275 -0.00995866 0.00687941)
(0.124594 -0.0104922 0.0134423)
(0.116791 -0.0108192 0.0179222)
(0.115188 -0.0107761 0.0157167)
(0.121231 -0.0083367 0.0068399)
(0.127073 -0.00248908 -0.00297947)
(0.124846 0.0032305 -0.00834666)
(0.117636 0.00464092 -0.00806118)
(0.111514 0.00180095 -0.00380986)
(0.108672 -0.00135297 0.00211573)
(0.110584 -0.00169353 0.00721647)
(0.117193 0.000564755 0.00942981)
(0.126857 0.00250998 0.00743193)
(0.136985 0.00205694 7.36306e-05)
(0.141657 -0.000796152 -0.0109094)
(0.138397 -0.00379098 -0.0204838)
(0.141437 -0.00274463 -0.0216596)
(0.135565 -0.00633943 -0.0245355)
(0.135752 -0.0108069 -0.021752)
(0.140508 -0.0140721 -0.0153125)
(0.144327 -0.0140371 -0.00909573)
(0.146236 -0.009948 -0.00404649)
(0.147039 -0.00419624 0.000142535)
(0.144768 -0.000704565 0.00225497)
(0.138683 -0.000844941 0.00143937)
(0.133764 -0.00247359 0.000234488)
(0.136421 -0.00266628 0.00179051)
(0.144449 -0.00165329 0.00473156)
(0.14853 -0.00249787 0.00506132)
(0.144639 -0.00658637 0.00277021)
(0.140527 -0.0101622 0.0023372)
(0.144296 -0.00827001 0.00484437)
(0.149385 -0.00224684 0.00666788)
(0.14664 0.002799 0.00738153)
(0.137558 0.00493048 0.00921111)
(0.128479 0.003519 0.0105215)
(0.122993 -0.00149778 0.0073229)
(0.123257 -0.00795361 0.000315643)
(0.13187 -0.0110023 -0.00495869)
(0.143082 -0.00974521 -0.00420276)
(0.145518 -0.00827734 0.00143441)
(0.137536 -0.00803764 0.00853747)
(0.126313 -0.00800024 0.0147003)
(0.11935 -0.0080833 0.0160343)
(0.120176 -0.00679345 0.0103432)
(0.124529 -0.00192643 0.00102593)
(0.125307 0.00395433 -0.00638836)
(0.122684 0.00592853 -0.00924252)
(0.120046 0.00334593 -0.00795443)
(0.118039 -2.27633e-05 -0.00396322)
(0.11726 -0.000864899 0.00100763)
(0.11882 0.000422028 0.00524814)
(0.124113 0.001317 0.00703795)
(0.134751 0.00110415 0.00405402)
(0.145536 0.000537052 -0.00440947)
(0.147417 -0.000644522 -0.0144149)
(0.150087 7.04002e-05 -0.0176305)
(0.144427 -0.00423188 -0.0223025)
(0.142857 -0.00931849 -0.0216684)
(0.146378 -0.0125529 -0.0172188)
(0.149036 -0.0135235 -0.0125529)
(0.147489 -0.0117097 -0.00786261)
(0.145088 -0.00709948 -0.00244306)
(0.143491 -0.00194524 0.00178003)
(0.140664 0.000371277 0.00239459)
(0.137288 -0.000951519 0.000900156)
(0.1376 -0.00323318 0.00138823)
(0.143354 -0.0036381 0.0045562)
(0.149187 -0.00331405 0.00622721)
(0.148824 -0.00527754 0.00379133)
(0.143292 -0.00880544 0.000880709)
(0.139469 -0.00927482 0.00181781)
(0.138954 -0.00500082 0.00537575)
(0.136885 0.000531128 0.0087328)
(0.132663 0.00432114 0.0103164)
(0.129785 0.00521475 0.00826716)
(0.128447 0.00186755 0.00214754)
(0.126801 -0.00556838 -0.00486639)
(0.129751 -0.0119864 -0.00850404)
(0.141639 -0.01193 -0.00690599)
(0.151404 -0.00836904 -0.00126957)
(0.147677 -0.00623197 0.00525277)
(0.134948 -0.00536292 0.0112173)
(0.124142 -0.00476544 0.0146465)
(0.121309 -0.00362094 0.0123732)
(0.124645 -8.45011e-05 0.00494626)
(0.127815 0.00458917 -0.00334271)
(0.128573 0.00612699 -0.00890401)
(0.128738 0.00378609 -0.0106848)
(0.128801 0.00100368 -0.00952906)
(0.128124 0.000614953 -0.00655829)
(0.127298 0.00138964 -0.00237714)
(0.128384 0.000421463 0.00183221)
(0.13463 -0.00160508 0.00291122)
(0.145651 -0.00103135 -0.00163774)
(0.152458 0.000876611 -0.00981253)
(0.154728 0.00180125 -0.0138863)
(0.15255 -0.00186106 -0.0192214)
(0.150115 -0.00695011 -0.0202776)
(0.152121 -0.0100384 -0.0175941)
(0.154911 -0.0115211 -0.0145893)
(0.152603 -0.0115874 -0.0112147)
(0.147065 -0.00876964 -0.0055665)
(0.143078 -0.00340218 0.000391878)
(0.140798 0.000983622 0.00294996)
(0.139282 0.00104763 0.00235294)
(0.139716 -0.00221434 0.00229813)
(0.143635 -0.00465064 0.00476355)
(0.149132 -0.00449261 0.0070145)
(0.150681 -0.0043279 0.00519865)
(0.145362 -0.00595763 0.000939022)
(0.136446 -0.0070714 -0.000289948)
(0.129079 -0.00518091 0.00292584)
(0.124962 -0.00141834 0.0065949)
(0.124925 0.00208737 0.00678123)
(0.128856 0.00453398 0.00252531)
(0.133013 0.00397857 -0.00371241)
(0.133766 -0.00170847 -0.00811111)
(0.133824 -0.0102204 -0.00837105)
(0.140743 -0.0141507 -0.0048004)
(0.151596 -0.0110394 0.000714598)
(0.15248 -0.00633112 0.00582869)
(0.141171 -0.00356869 0.0100093)
(0.128568 -0.00205487 0.0129636)
(0.12341 -0.000475048 0.0121865)
(0.125658 0.00218105 0.00655643)
(0.129557 0.00507144 -0.000773274)
(0.130941 0.00539182 -0.00595178)
(0.130951 0.00284962 -0.00818382)
(0.132173 0.000427715 -0.00910649)
(0.134415 0.000494141 -0.00884219)
(0.13599 0.00168636 -0.00575362)
(0.136276 0.000426128 -0.000556279)
(0.137262 -0.00283935 0.00234489)
(0.142831 -0.0029284 -0.000321349)
(0.150998 0.000571818 -0.00680571)
(0.152198 0.00158464 -0.010434)
(0.156448 -0.000381955 -0.0151992)
(0.155987 -0.00412195 -0.0175558)
(0.157215 -0.00684156 -0.0167992)
(0.160909 -0.00881186 -0.015112)
(0.159923 -0.010234 -0.0133527)
(0.152685 -0.00893782 -0.00925058)
(0.145453 -0.00415807 -0.00280823)
(0.141701 0.00112198 0.00235209)
(0.140776 0.00271693 0.00427457)
(0.141609 -0.000148719 0.00446495)
(0.144049 -0.00369763 0.00515451)
(0.147622 -0.00464273 0.00658085)
(0.149428 -0.0040493 0.00630401)
(0.146147 -0.0040898 0.00309356)
(0.138286 -0.00413489 -0.00055829)
(0.130296 -0.0028392 -0.00150412)
(0.125963 -0.0009789 -1.46279e-05)
(0.126656 0.000487049 0.000874676)
(0.13154 0.0021819 -0.00116117)
(0.136899 0.00334304 -0.00530637)
(0.139633 0.000843526 -0.00847888)
(0.14056 -0.00624755 -0.00818739)
(0.143999 -0.0132722 -0.0039869)
(0.151302 -0.0135566 0.00180996)
(0.15355 -0.00804993 0.0062681)
(0.145024 -0.00257397 0.00966926)
(0.133109 0.000401217 0.0124711)
(0.126521 0.00192939 0.0121882)
(0.126042 0.00373178 0.00756084)
(0.12684 0.00572112 0.00205965)
(0.126049 0.00564978 -0.000632916)
(0.12544 0.00271206 -0.00139508)
(0.127533 -0.000406755 -0.00295697)
(0.132299 -0.000660931 -0.00439985)
(0.136731 0.000966572 -0.00233092)
(0.138059 0.000818423 0.00255465)
(0.137022 -0.00147728 0.0048621)
(0.137825 -0.00243086 0.0015552)
(0.143798 -0.000121644 -0.00457857)
(0.146756 0.00160563 -0.00687155)
(0.15457 0.00041817 -0.0107652)
(0.158635 -0.00160101 -0.0132045)
(0.161801 -0.00343147 -0.0139051)
(0.166336 -0.0056358 -0.0139725)
(0.16666 -0.00789673 -0.014229)
(0.159141 -0.00763175 -0.0123271)
(0.149379 -0.00367239 -0.00646227)
(0.143352 0.00143485 0.000292342)
(0.141782 0.00365602 0.00437688)
(0.142611 0.00156087 0.00570484)
(0.144272 -0.00198712 0.00590428)
(0.14594 -0.00376987 0.00622748)
(0.146011 -0.00374317 0.00620044)
(0.143054 -0.00332901 0.00441757)
(0.138065 -0.00248843 0.000835828)
(0.134084 -0.000857708 -0.002456)
(0.132782 0.000190216 -0.0030404)
(0.133726 -0.000146596 -0.00128799)
(0.136495 -0.000114051 -0.000588326)
(0.139491 0.00122814 -0.00271918)
(0.140859 0.00140397 -0.00517936)
(0.141549 -0.00257505 -0.00526998)
(0.144051 -0.009541 -0.00267432)
(0.149353 -0.0129513 0.00172048)
(0.152786 -0.00910336 0.00585433)
(0.148598 -0.00226943 0.00878753)
(0.139554 0.0027822 0.0109175)
(0.132002 0.00520931 0.0111623)
(0.127391 0.00600719 0.00860415)
(0.124046 0.00608652 0.00524932)
(0.122054 0.00483875 0.00354533)
(0.122787 0.00144446 0.00317524)
(0.126289 -0.00242515 0.00203643)
(0.131391 -0.00379817 0.000193192)
(0.135852 -0.00190574 0.00043353)
(0.137429 0.000469649 0.00373345)
(0.136468 0.000965195 0.00632293)
(0.135825 0.000467451 0.00412292)
(0.139025 0.00106849 -0.0015151)
(0.144105 0.00322161 -0.0025735)
(0.151174 0.00122184 -0.00672786)
(0.157261 -0.000236683 -0.00971255)
(0.162887 -0.000994744 -0.0110699)
(0.168521 -0.00266306 -0.0116402)
(0.169834 -0.0050046 -0.0129218)
(0.163575 -0.00514228 -0.0136199)
(0.154037 -0.00181098 -0.0103213)
(0.146974 0.0023975 -0.00360634)
(0.143653 0.00392122 0.00230244)
(0.142539 0.00213996 0.00517683)
(0.142402 -0.00056402 0.00589629)
(0.142588 -0.00184074 0.00618256)
(0.142001 -0.00182208 0.00615836)
(0.140116 -0.00164412 0.00469932)
(0.138319 -0.00114508 0.00163207)
(0.138703 -0.000129169 -0.00148432)
(0.140902 -0.000142634 -0.00247066)
(0.142071 -0.00201612 -0.00086721)
(0.141006 -0.00319321 0.00107257)
(0.138925 -0.00127703 0.00129385)
(0.137847 0.00130099 0.000909641)
(0.139514 -0.000299849 0.00159092)
(0.143533 -0.00644603 0.0033511)
(0.148175 -0.0114384 0.00553749)
(0.150794 -0.00944941 0.00676933)
(0.148056 -0.00204115 0.00764996)
(0.140821 0.00476934 0.00902789)
(0.133236 0.00760666 0.00949437)
(0.127167 0.00713258 0.00807689)
(0.122694 0.00589654 0.00659746)
(0.120929 0.00482809 0.00675366)
(0.122548 0.00288064 0.00739031)
(0.126479 -0.000270254 0.00646004)
(0.131158 -0.00276946 0.00444376)
(0.134779 -0.0021722 0.00377808)
(0.136092 0.00086703 0.00545162)
(0.135869 0.00321231 0.0072783)
(0.13606 0.00405407 0.00624823)
(0.138519 0.00416036 0.00217918)
(0.143018 0.00401718 0.00124663)
(0.148173 0.000692415 -0.00363356)
(0.154413 -0.00180391 -0.00722003)
(0.161157 -0.0018107 -0.00889571)
(0.166784 -0.000727345 -0.00970468)
(0.16821 -0.000824239 -0.0109309)
(0.164683 -0.00138567 -0.0124208)
(0.159313 8.53473e-05 -0.0118064)
(0.155046 0.00304153 -0.00773645)
(0.151685 0.0042805 -0.00243546)
(0.147824 0.00278862 0.00131476)
(0.143598 0.00037645 0.00312174)
(0.140381 -0.00121327 0.0042073)
(0.139035 -0.00172202 0.00513485)
(0.139772 -0.0015204 0.00524858)
(0.142807 -0.000776438 0.00397353)
(0.147995 7.59464e-05 0.00173772)
(0.152705 -0.000219823 -0.000170724)
(0.152588 -0.0020706 0.000489712)
(0.147489 -0.00323296 0.00421177)
(0.141709 -0.00131762 0.00781739)
(0.139144 0.00219482 0.00767407)
(0.140651 0.00284961 0.00398691)
(0.144311 -0.00161757 0.00111951)
(0.148088 -0.00766717 0.0028351)
(0.149941 -0.00812353 0.00598707)
(0.147211 -0.00128466 0.00664458)
(0.140167 0.00681199 0.00646343)
(0.132536 0.0106884 0.00700788)
(0.12711 0.0102391 0.00732403)
(0.124384 0.00810524 0.00671895)
(0.124104 0.00606601 0.00574863)
(0.125735 0.00420244 0.00512441)
(0.128357 0.00207238 0.00484577)
(0.13165 0.000347174 0.00444614)
(0.135301 0.000445685 0.00422544)
(0.138149 0.00252937 0.00514882)
(0.139178 0.00474263 0.00682982)
(0.139089 0.00588561 0.00746886)
(0.139904 0.00583222 0.005537)
(0.14191 0.00358804 0.00443138)
(0.146955 -0.000163491 -0.000205705)
(0.152368 -0.00418253 -0.00503441)
(0.157967 -0.00549316 -0.00788388)
(0.163273 -0.00362126 -0.0086498)
(0.165741 -0.000827338 -0.0087992)
(0.163487 0.000965409 -0.00937558)
(0.158602 0.00230184 -0.00965031)
(0.15495 0.00398676 -0.00828161)
(0.153767 0.00497236 -0.00545895)
(0.15319 0.00431862 -0.00262311)
(0.150992 0.00258247 -0.000640638)
(0.147111 0.000348063 0.000879909)
(0.143208 -0.00248526 0.0025488)
(0.141203 -0.0057333 0.00427923)
(0.142809 -0.00809057 0.00530633)
(0.148446 -0.00832957 0.00479277)
(0.154966 -0.00671682 0.00279446)
(0.156572 -0.00459064 0.00153865)
(0.151826 -0.00251183 0.00330727)
(0.145285 0.000445991 0.00614155)
(0.141189 0.00430457 0.00569828)
(0.140048 0.00638442 0.000916755)
(0.140744 0.00396225 -0.00413727)
(0.143189 -0.00206889 -0.00405958)
(0.146097 -0.00619039 0.000566775)
(0.146128 -0.00333844 0.00438396)
(0.142407 0.00453775 0.00552482)
(0.137807 0.0112008 0.00563737)
(0.135438 0.0134661 0.00479838)
(0.135413 0.0123076 0.00251131)
(0.13593 0.00975238 -4.59098e-06)
(0.136044 0.00688773 -0.00101712)
(0.135978 0.0042319 -2.57309e-05)
(0.136317 0.00254152 0.00197417)
(0.137196 0.00240486 0.00368988)
(0.138042 0.00340275 0.00489818)
(0.138109 0.0044615 0.00600632)
(0.137745 0.0050595 0.00696948)
(0.138616 0.00510567 0.00684181)
(0.14215 -0.0017935 0.010553)
(0.148585 -0.00390703 0.00577249)
(0.154679 -0.0051272 -0.000554877)
(0.157683 -0.00428669 -0.00568172)
(0.156831 -0.00131784 -0.00847243)
(0.153397 0.00221152 -0.009245)
(0.149381 0.00451324 -0.00874791)
(0.146328 0.00515612 -0.00775603)
(0.144823 0.00473259 -0.00706223)
(0.145015 0.00370884 -0.00679175)
(0.147001 0.00237253 -0.00628654)
(0.150309 0.001153 -0.00491119)
(0.153549 0.000278616 -0.00289209)
(0.154863 -0.000836099 -0.00092445)
(0.153537 -0.00311768 0.00104829)
(0.151045 -0.00647529 0.00367982)
(0.150007 -0.00956224 0.00654291)
(0.151426 -0.0106321 0.00805017)
(0.152813 -0.00833516 0.00741542)
(0.151265 -0.00330212 0.00579847)
(0.147199 0.00189102 0.00433454)
(0.143064 0.00490067 0.00248044)
(0.140582 0.00457156 -0.00068825)
(0.140255 0.00133556 -0.0039877)
(0.142093 -0.00290659 -0.00422353)
(0.145078 -0.00555977 -0.000328395)
(0.146609 -0.00405108 0.00468727)
(0.14577 0.00158427 0.00755687)
(0.144731 0.00780295 0.00724083)
(0.145332 0.0114932 0.00388358)
(0.146651 0.0121684 -0.00152835)
(0.146965 0.0104975 -0.00666922)
(0.146062 0.00718447 -0.00934116)
(0.144621 0.0037496 -0.0085569)
(0.143263 0.00225173 -0.00490172)
(0.142229 0.00316496 -4.65982e-05)
(0.140983 0.00473345 0.00433767)
(0.139051 0.00487074 0.00774239)
(0.137471 0.00307876 0.0104569)
(0.138145 0.000564661 0.0119063)
(0.152339 -0.00222846 0.0119727)
(0.153187 -0.00306975 0.0123919)
(0.15524 -0.00269896 0.00946233)
(0.158555 -0.000647041 0.00444763)
(0.161308 0.0032014 -0.000926398)
(0.161505 0.00717499 -0.00538414)
(0.158749 0.00918946 -0.00831684)