/*--------------------------------*- C++ -*----------------------------------*\
| =========                 |                                                 |
| \\      /  F ield         | OpenFOAM: The Open Source CFD Toolbox           |
|  \\    /   O peration     | Version:  2306                                  |
|   \\  /    A nd           | Website:  www.openfoam.com                      |
|    \\/     M anipulation  |                                                 |
\*---------------------------------------------------------------------------*/
FoamFile
{
    version     2.0;
    format      ascii;
    arch        "LSB;label=32;scalar=64";
    class       volVectorField;
    location    "3";
    object      U_0;
}
// * * * * * * * * * * * * * * * * * * * * * * * * * * * * * * * * * * * * * //

dimensions      [0 1 -1 0 0 0 0];

internalField   nonuniform List<vector> 
60000
(
(0.010164 5.85963e-05 0.00236928)
(0.0101557 3.54743e-05 0.00273021)
(0.00994718 9.09796e-06 0.00266328)
(0.00970858 -1.07863e-05 0.00232716)
(0.0095381 -1.24575e-05 0.00196851)
(0.0093908 -6.33656e-06 0.00167233)
(0.00920402 -3.39114e-06 0.00139283)
(0.00892274 -6.52333e-06 0.00112629)
(0.00843395 -1.02933e-05 0.000954908)
(0.00764135 -1.15879e-05 0.000936258)
(0.0066784 -1.19196e-05 0.00101839)
(0.00591765 -1.06675e-05 0.00110387)
(0.0056029 -1.30141e-05 0.00115662)
(0.00565234 -2.03412e-05 0.00110143)
(0.00584271 -2.613e-05 0.000865451)
(0.00598112 -2.04056e-05 0.000549943)
(0.00606505 -6.47921e-06 0.000262753)
(0.00623453 5.21906e-06 3.74817e-05)
(0.00653375 1.49071e-05 -0.000146727)
(0.00687272 2.20691e-05 -0.000327491)
(0.00719427 2.58614e-05 -0.000587466)
(0.00752448 1.98781e-05 -0.000952288)
(0.00794517 5.61111e-06 -0.00141851)
(0.00848127 -5.36728e-06 -0.0019318)
(0.00899027 -7.40082e-06 -0.0023444)
(0.0092572 -1.02619e-05 -0.002509)
(0.00912976 -8.17124e-06 -0.00249411)
(0.00855785 9.62701e-07 -0.00243473)
(0.00769723 1.18958e-05 -0.00227926)
(0.00688379 3.31391e-06 -0.0020798)
(0.00636498 -8.48289e-06 -0.00202105)
(0.00613071 -4.1102e-06 -0.00204296)
(0.0061262 3.86452e-06 -0.00190685)
(0.00635538 9.63083e-06 -0.00143861)
(0.00677342 2.21814e-05 -0.000695459)
(0.00728875 3.88426e-05 9.65186e-06)
(0.00787164 4.83744e-05 0.0004347)
(0.00855953 4.57222e-05 0.000691677)
(0.00929744 4.80151e-05 0.00108283)
(0.00987889 5.9861e-05 0.00170696)
(0.030816 0.000275506 0.00636388)
(0.0312079 0.000145178 0.00708593)
(0.0307882 -6.89406e-06 0.00672707)
(0.0299827 -0.000100424 0.0057893)
(0.0292887 -0.000102309 0.00496745)
(0.0287664 -5.97894e-05 0.00439797)
(0.0281947 -2.61869e-05 0.00383367)
(0.027307 -1.20384e-05 0.00318514)
(0.0258211 -6.12668e-06 0.00266897)
(0.0235912 -2.05149e-05 0.0025335)
(0.0209505 -7.80082e-05 0.00275631)
(0.0187538 -0.000160263 0.00305043)
(0.0176352 -0.000231493 0.00313932)
(0.0174242 -0.000261799 0.00283302)
(0.0175871 -0.000233052 0.00215342)
(0.0177404 -0.000146867 0.0013851)
(0.0179497 -5.15345e-05 0.000723701)
(0.0184882 1.15542e-05 0.000189802)
(0.0193736 5.42683e-05 -0.000289801)
(0.0204115 7.95249e-05 -0.000824202)
(0.0215389 6.77141e-05 -0.00157632)
(0.0228348 -2.82979e-06 -0.00260066)
(0.024392 -9.79497e-05 -0.0038781)
(0.0261204 -0.000145498 -0.00523983)
(0.0276326 -0.000121639 -0.00629418)
(0.028391 -7.80868e-05 -0.00668424)
(0.0279914 -1.83368e-05 -0.00654957)
(0.0263779 4.92102e-05 -0.00618507)
(0.0240746 5.86625e-05 -0.00564498)
(0.0218267 -3.62564e-05 -0.00525333)
(0.0200565 -0.000118213 -0.00534134)
(0.0188825 -0.000105037 -0.00552408)
(0.018489 -5.17874e-05 -0.00506562)
(0.0189965 1.24948e-05 -0.00365907)
(0.0201851 0.000112991 -0.00168723)
(0.0217437 0.000229165 7.6228e-05)
(0.0235506 0.000283956 0.00120851)
(0.0256256 0.000264351 0.00203999)
(0.0277866 0.000266686 0.00319438)
(0.0296144 0.000305998 0.00480974)
(0.0521689 0.000493772 0.00929456)
(0.0534325 0.000193142 0.0104877)
(0.0530189 -0.000125679 0.0100428)
(0.0515217 -0.000292691 0.00857924)
(0.0500649 -0.00027541 0.00729661)
(0.0490658 -0.000175768 0.00658741)
(0.0481626 -9.7374e-05 0.00600634)
(0.0468135 -5.40161e-05 0.00518372)
(0.0446107 -3.51068e-05 0.00429021)
(0.041365 -6.92461e-05 0.00380794)
(0.0373256 -0.000206591 0.0040061)
(0.0334702 -0.000415093 0.00457504)
(0.0309431 -0.000596408 0.00483795)
(0.0298845 -0.000659774 0.00436447)
(0.0296229 -0.000569582 0.00334514)
(0.0295726 -0.000354948 0.00227183)
(0.0297952 -0.000132248 0.00138852)
(0.0306264 9.54239e-06 0.000678665)
(0.0320481 9.10251e-05 2.17326e-05)
(0.0337858 0.000121258 -0.000733895)
(0.0357897 4.99693e-05 -0.00179823)
(0.0381923 -0.000156752 -0.00328273)
(0.0410583 -0.000394068 -0.00522216)
(0.0441559 -0.000498095 -0.00741474)
(0.0468838 -0.00042667 -0.00924579)
(0.0484277 -0.000292238 -0.0100662)
(0.0481428 -0.000123307 -0.00991508)
(0.0459103 4.73026e-05 -0.00919087)
(0.0424949 5.63718e-05 -0.00815497)
(0.0389128 -0.00014925 -0.0074633)
(0.0356718 -0.00030971 -0.00771881)
(0.0329979 -0.000275841 -0.00836594)
(0.0314525 -0.000156586 -0.00807345)
(0.0316156 -9.46184e-06 -0.00616663)
(0.0332723 0.000221171 -0.00325926)
(0.0358129 0.000489795 -0.00056412)
(0.0388934 0.000619216 0.00128436)
(0.0424479 0.00057311 0.00270475)
(0.0461901 0.000566825 0.00452589)
(0.0495747 0.000610424 0.00695325)
(0.0733142 0.000602046 0.0105922)
(0.0760671 0.000111247 0.0126953)
(0.076075 -0.000355818 0.0127681)
(0.0738584 -0.000572239 0.0110425)
(0.0713646 -0.000516497 0.00911229)
(0.0697428 -0.000347362 0.00811679)
(0.068616 -0.000213271 0.00771796)
(0.0670913 -0.00012271 0.00709077)
(0.0646361 -7.17372e-05 0.00596801)
(0.0610356 -0.000108019 0.00489731)
(0.0561882 -0.000309684 0.00470003)
(0.0506753 -0.000666954 0.00547827)
(0.0459854 -0.001026 0.00621213)
(0.0431327 -0.00117772 0.00584368)
(0.0418076 -0.00104003 0.00458625)
(0.0412106 -0.000675962 0.00329082)
(0.0412227 -0.000295559 0.00232777)
(0.0421505 -5.47489e-05 0.00163169)
(0.0439358 6.82233e-05 0.00102277)
(0.0462335 8.14258e-05 0.000323534)
(0.0489887 -9.66978e-05 -0.000698736)
(0.0524146 -0.000530032 -0.00224814)
(0.0566039 -0.00100071 -0.00454177)
(0.0612517 -0.00119327 -0.0075426)
(0.0655662 -0.00104117 -0.0104987)
(0.0684541 -0.000749852 -0.0123069)
(0.0690145 -0.000384519 -0.0126239)
(0.0669333 -4.08775e-05 -0.0117902)
(0.0629928 -2.01588e-06 -0.0102181)
(0.0583751 -0.000314936 -0.00890096)
(0.0537174 -0.000560288 -0.00898381)
(0.0492436 -0.000511294 -0.0101949)
(0.0456288 -0.000348319 -0.0107873)
(0.0441958 -0.00015147 -0.00929981)
(0.0454332 0.000203605 -0.00605653)
(0.0485948 0.00064767 -0.00265524)
(0.0528807 0.000882016 -0.000139124)
(0.0579914 0.000806732 0.00182767)
(0.063504 0.000778741 0.00421177)
(0.0687989 0.000829361 0.00736311)
(0.0923992 0.000471552 0.00922384)
(0.0974528 -0.000168619 0.0127854)
(0.098692 -0.000721523 0.0144071)
(0.0960139 -0.000917892 0.013314)
(0.0922378 -0.000788143 0.0107649)
(0.0897743 -0.000543295 0.00901681)
(0.0885449 -0.000359225 0.00866476)
(0.0872256 -0.000216516 0.00865604)
(0.0850321 -0.000120264 0.00781917)
(0.0818056 -0.000125974 0.00616658)
(0.0770826 -0.000318796 0.00506139)
(0.0706086 -0.00075992 0.00563157)
(0.0635171 -0.00133725 0.00704837)
(0.0577507 -0.00169153 0.00726662)
(0.054284 -0.00159934 0.00592314)
(0.0525113 -0.00112348 0.00436472)
(0.0519214 -0.000584294 0.00337702)
(0.05259 -0.000232909 0.00289261)
(0.0543716 -6.10723e-05 0.00262998)
(0.0568067 -7.43107e-05 0.00237808)
(0.0597783 -0.000421737 0.0019213)
(0.0635981 -0.00122493 0.000987294)
(0.0686176 -0.00213491 -0.000931792)
(0.0747922 -0.00254199 -0.00430377)
(0.0812761 -0.00222014 -0.00865458)
(0.0864703 -0.00158631 -0.0123685)
(0.0890419 -0.000891912 -0.0142034)
(0.0883131 -0.000264168 -0.0140504)
(0.0847846 -0.00012168 -0.0122798)
(0.0796905 -0.000511742 -0.0101312)
(0.0739983 -0.000830482 -0.00945658)
(0.0680675 -0.000753875 -0.0107624)
(0.0622217 -0.00056914 -0.012442)
(0.0578927 -0.000416091 -0.0123752)
(0.0568465 -5.79813e-05 -0.00997154)
(0.0592926 0.000488027 -0.00665078)
(0.0641305 0.000789556 -0.00388969)
(0.0705987 0.000657919 -0.00160869)
(0.0779902 0.000585553 0.00120165)
(0.0854558 0.000748472 0.00499835)
(0.105785 -0.000333832 0.00351387)
(0.114356 -0.000860303 0.00886218)
(0.118486 -0.00129902 0.0132998)
(0.116322 -0.00133879 0.0146784)
(0.111187 -0.00106622 0.0125818)
(0.107576 -0.00072169 0.00973575)
(0.10636 -0.000503005 0.00872162)
(0.105728 -0.000335201 0.00936219)
(0.104258 -0.000187142 0.00962111)
(0.101941 -0.000147356 0.00798275)
(0.0983598 -0.000245272 0.00562749)
(0.0923937 -0.000608823 0.00518159)
(0.0839968 -0.00131592 0.00701748)
(0.0749273 -0.00196894 0.00836316)
(0.0678724 -0.00210354 0.00736193)
(0.063737 -0.00164104 0.00545298)
(0.0618894 -0.000984035 0.00426981)
(0.0618289 -0.000521291 0.00399245)
(0.0631004 -0.000285352 0.00421928)
(0.0650216 -0.000323737 0.00466218)
(0.0672131 -0.000933351 0.00516464)
(0.0699713 -0.00231267 0.00550862)
(0.0741192 -0.00395165 0.00504673)
(0.0804177 -0.00492496 0.00278508)
(0.0889552 -0.00470899 -0.00187803)
(0.0981894 -0.00349936 -0.00798858)
(0.105073 -0.00196231 -0.0130256)
(0.107665 -0.000712152 -0.0151564)
(0.106025 -0.000324414 -0.0142694)
(0.1013 -0.000742797 -0.0116956)
(0.0951389 -0.00110064 -0.00990025)
(0.0885653 -0.000952045 -0.0104755)
(0.0815679 -0.000707153 -0.0125313)
(0.0746697 -0.000623587 -0.0139435)
(0.0698561 -0.000413387 -0.013472)
(0.0690443 -4.16217e-06 -0.0117124)
(0.0722528 0.000147333 -0.00989764)
(0.078633 -0.000206521 -0.00808855)
(0.0870233 -0.000469018 -0.00536849)
(0.0962162 -0.000257738 -0.00139518)
(0.10875 -0.0023099 -0.0065073)
(0.120566 -0.00272443 -0.000491905)
(0.130672 -0.00256917 0.00703881)
(0.131924 -0.001966 0.0129389)
(0.126054 -0.00138018 0.0139161)
(0.120827 -0.000935625 0.0109326)
(0.119736 -0.00063653 0.00836983)
(0.120542 -0.000448658 0.00873735)
(0.120364 -0.000306787 0.0105481)
(0.119057 -0.000224484 0.0102256)
(0.117141 -0.000162512 0.00701757)
(0.113347 -0.000307952 0.00469861)
(0.106172 -0.000897875 0.0060254)
(0.0955125 -0.00174931 0.00859763)
(0.0842583 -0.00225495 0.00869524)
(0.0760048 -0.00204145 0.0067)
(0.0716991 -0.0013969 0.00506757)
(0.0703774 -0.000833326 0.0046703)
(0.0708548 -0.000497319 0.00508713)
(0.0720755 -0.000529518 0.00585039)
(0.0733132 -0.00147463 0.00685039)
(0.0745004 -0.00365733 0.00826443)
(0.0764014 -0.00625365 0.00974723)
(0.0802669 -0.0079163 0.010012)
(0.0872343 -0.00808835 0.00764072)
(0.0981343 -0.00681202 0.00178272)
(0.111111 -0.00440987 -0.00638039)
(0.120632 -0.00189315 -0.0128303)
(0.123513 -0.000802055 -0.0148667)
(0.120445 -0.00112608 -0.0133258)
(0.114355 -0.0014243 -0.0109071)
(0.107923 -0.00103529 -0.0101993)
(0.101415 -0.000660873 -0.0115169)
(0.0941804 -0.000590141 -0.0133192)
(0.0869428 -0.000483224 -0.0145005)
(0.0819144 -0.000392912 -0.0152945)
(0.0808151 -0.000751285 -0.0160622)
(0.0842885 -0.00168685 -0.0160452)
(0.091292 -0.00237137 -0.0142058)
(0.0994616 -0.00230184 -0.010865)
(0.107559 -0.00480563 -0.0160051)
(0.117088 -0.00570803 -0.0106497)
(0.131189 -0.00526515 -0.00261639)
(0.139486 -0.00322306 0.00673143)
(0.135364 -0.00160666 0.0125612)
(0.127313 -0.00113828 0.0121567)
(0.125303 -0.00102867 0.00857061)
(0.128945 -0.000676823 0.00710456)
(0.131536 -0.000396176 0.00941562)
(0.130786 -0.000474179 0.0115394)
(0.129661 -0.00043752 0.00917278)
(0.129005 -0.000135021 0.00490948)
(0.126078 -0.000278579 0.00449916)
(0.117899 -0.00101706 0.00760845)
(0.104732 -0.00175063 0.00932022)
(0.0914552 -0.00196948 0.00804457)
(0.0827567 -0.00162819 0.00617475)
(0.0791523 -0.00109428 0.00539876)
(0.0787397 -0.00062963 0.0055354)
(0.079836 -0.000550458 0.00601448)
(0.0815103 -0.00164577 0.00668665)
(0.0829201 -0.00440655 0.00817115)
(0.0834372 -0.00793701 0.01089)
(0.0839752 -0.010503 0.0137033)
(0.0867263 -0.0111765 0.0145693)
(0.094072 -0.0101279 0.011634)
(0.107373 -0.00756741 0.00406191)
(0.123115 -0.00408739 -0.005429)
(0.133273 -0.00188513 -0.0117645)
(0.13333 -0.00174522 -0.0133638)
(0.126713 -0.00203616 -0.0119526)
(0.120413 -0.00151292 -0.0101213)
(0.116421 -0.000710326 -0.00978094)
(0.112108 -0.00023409 -0.0107967)
(0.106048 7.32456e-05 -0.0123583)
(0.0995899 -6.29704e-06 -0.0149492)
(0.0944615 -0.00112581 -0.0189485)
(0.0927283 -0.00310465 -0.0223769)
(0.0958792 -0.0045398 -0.022583)
(0.101552 -0.00461803 -0.0198945)
(0.110188 -0.00681886 -0.0224481)
(0.115575 -0.0084831 -0.0168529)
(0.126735 -0.00892446 -0.00954864)
(0.139662 -0.00584328 -0.000162643)
(0.141725 -0.00207956 0.0082814)
(0.133058 -0.000827713 0.011243)
(0.12598 -0.00147318 0.00874365)
(0.128929 -0.00155096 0.00557769)
(0.13676 -0.000622934 0.00635207)
(0.138723 -0.000309191 0.00984864)
(0.134482 -0.000906095 0.0100523)
(0.132654 -0.00112641 0.00562684)
(0.13582 -0.00070664 0.0030467)
(0.136163 -0.000457656 0.005603)
(0.127163 -0.000750365 0.00872343)
(0.111572 -0.00111001 0.00886889)
(0.097392 -0.00127437 0.00751368)
(0.0895292 -0.00115264 0.00672005)
(0.0873171 -0.000778349 0.00656217)
(0.0883894 -0.000589286 0.00655136)
(0.0911341 -0.00161638 0.00657165)
(0.0940396 -0.00442059 0.00735322)
(0.0952304 -0.00823538 0.00986407)
(0.0941938 -0.0115156 0.0137458)
(0.0928561 -0.013042 0.0172053)
(0.0948495 -0.0126372 0.0176319)
(0.103953 -0.0104593 0.0125033)
(0.120044 -0.006901 0.00285369)
(0.13502 -0.00356372 -0.00636826)
(0.137131 -0.00199834 -0.0111111)
(0.126407 -0.00159152 -0.0110916)
(0.115356 -0.00146484 -0.00847075)
(0.112763 -0.00129721 -0.0060389)
(0.116419 -0.000660244 -0.00553742)
(0.118748 0.00054649 -0.00693422)
(0.116809 0.00115678 -0.010271)
(0.112204 -0.000226293 -0.0162722)
(0.106878 -0.00337387 -0.0233369)
(0.104345 -0.00604972 -0.0273255)
(0.106433 -0.00658676 -0.0264374)
(0.115362 -0.00775916 -0.0263999)
(0.118416 -0.00989908 -0.0204422)
(0.124938 -0.0119071 -0.0131246)
(0.136474 -0.00962861 -0.00504284)
(0.144681 -0.00401731 0.0032467)
(0.141564 -0.000471161 0.0081947)
(0.131985 -0.000932381 0.00766339)
(0.127431 -0.00250637 0.00425971)
(0.133678 -0.00194273 0.00311903)
(0.142377 -2.28205e-05 0.00613461)
(0.14157 0.000159493 0.00868252)
(0.133955 -0.0018508 0.00632046)
(0.133001 -0.00337988 0.00271491)
(0.141189 -0.00260257 0.00366754)
(0.143947 -0.000867217 0.00723521)
(0.133358 4.27964e-05 0.00870858)
(0.116689 -1.64161e-05 0.00825831)
(0.103619 -0.000495216 0.00809308)
(0.0974435 -0.0007717 0.00841058)
(0.0970372 -0.000912554 0.00838978)
(0.10056 -0.00196847 0.0075555)
(0.105424 -0.00453754 0.0067447)
(0.108133 -0.0079761 0.00790815)
(0.10707 -0.0111629 0.0115661)
(0.10362 -0.0131284 0.0162624)
(0.101103 -0.0136141 0.0194574)
(0.104604 -0.0125051 0.0172581)
(0.116712 -0.0096865 0.00860586)
(0.131423 -0.00554641 -0.00207997)
(0.134974 -0.00177995 -0.00909173)
(0.123488 0.000247595 -0.0100095)
(0.109363 1.46359e-05 -0.00632521)
(0.103525 -0.00143445 -0.00138694)
(0.107814 -0.00175469 0.00167599)
(0.117349 -1.76242e-06 0.0014551)
(0.124575 0.00192105 -0.00205941)
(0.126345 0.00147583 -0.00903273)
(0.123038 -0.00199598 -0.0183386)
(0.117467 -0.00587503 -0.0261067)
(0.114442 -0.00736886 -0.0288357)
(0.12213 -0.00736447 -0.0278731)
(0.122548 -0.00968416 -0.0235409)
(0.126677 -0.0130593 -0.0158716)
(0.134431 -0.0130003 -0.00825779)
(0.143778 -0.00771447 -0.00136082)
(0.147202 -0.0018163 0.00398796)
(0.141796 -0.000109924 0.00552872)
(0.132851 -0.00197542 0.0033556)
(0.130039 -0.00320753 0.00115957)
(0.137088 -0.0014366 0.00252068)
(0.145081 0.00097761 0.00594735)
(0.143383 -9.42753e-06 0.00633663)
(0.135851 -0.00422138 0.00349923)
(0.137273 -0.00665388 0.00296172)
(0.14737 -0.00432463 0.0060276)
(0.148591 -0.000469863 0.00819679)
(0.13668 0.00145294 0.00817355)
(0.1216 0.00132873 0.00844076)
(0.110851 0.000276717 0.00978678)
(0.106475 -0.00117687 0.0106609)
(0.108761 -0.00320883 0.00935828)
(0.115642 -0.00562987 0.00633737)
(0.121388 -0.00801462 0.00502127)
(0.121539 -0.0102429 0.00763452)
(0.116888 -0.0119265 0.012837)
(0.111001 -0.0127263 0.0180119)
(0.108786 -0.0127127 0.0189041)
(0.114882 -0.011211 0.0124236)
(0.126155 -0.00717785 0.00168838)
(0.130988 -0.00162896 -0.00687908)
(0.123187 0.00230466 -0.00939643)
(0.110974 0.00241355 -0.00610479)
(0.103502 -0.00034218 5.54492e-05)
(0.103737 -0.0023141 0.0055162)
(0.11138 -0.00114921 0.00788512)
(0.122167 0.00161701 0.00628817)
(0.131013 0.00271408 0.000203147)
(0.134373 0.000272313 -0.00982492)
(0.131485 -0.00394699 -0.0201933)
(0.125854 -0.00647323 -0.0267074)
(0.131312 -0.0057506 -0.0260442)
(0.12803 -0.00845721 -0.025288)
(0.130698 -0.012474 -0.0190471)
(0.136317 -0.014533 -0.0112417)
(0.14275 -0.0115388 -0.00494826)
(0.147769 -0.00529508 -9.85014e-05)
(0.147416 -0.000937496 0.00284661)
(0.140753 -0.000797044 0.00266577)
(0.13279 -0.00264641 0.000667348)
(0.132211 -0.00277056 0.000579181)
(0.140249 -0.000658639 0.00343914)
(0.147284 0.000291812 0.00549752)
(0.144744 -0.00289365 0.00411281)
(0.138672 -0.0078701 0.00260828)
(0.142402 -0.00854678 0.00466707)
(0.150899 -0.00378516 0.00744438)
(0.149599 0.00119986 0.00777393)
(0.138778 0.0032215 0.00783748)
(0.126641 0.00276861 0.00978297)
(0.118156 0.000147412 0.0114928)
(0.116181 -0.0041247 0.00958255)
(0.122097 -0.00778592 0.00441798)
(0.131541 -0.00908708 0.00077733)
(0.135816 -0.00938084 0.0022693)
(0.131889 -0.0100799 0.00766787)
(0.123486 -0.0106174 0.0141822)
(0.11618 -0.0109116 0.0180407)
(0.11557 -0.0106649 0.0149349)
(0.122092 -0.00779899 0.00564235)
(0.127266 -0.00175875 -0.0038664)
(0.124189 0.0036229 -0.00859233)
(0.116852 0.00448393 -0.00774893)
(0.111001 0.00140377 -0.00316061)
(0.108604 -0.00157374 0.00282011)
(0.111119 -0.00157036 0.00768068)
(0.118243 0.000840505 0.00943153)
(0.128186 0.00265633 0.00678982)
(0.137969 0.00190657 -0.00118874)
(0.141705 -0.00115669 -0.012259)
(0.13788 -0.00402348 -0.0213716)
(0.140893 -0.00307384 -0.0222477)
(0.135515 -0.00684693 -0.0244903)
(0.136392 -0.0113317 -0.0210578)
(0.141255 -0.0143199 -0.0144241)
(0.144803 -0.0137355 -0.00835742)
(0.146488 -0.00921425 -0.00350043)
(0.146943 -0.00353776 0.000496229)
(0.144166 -0.000496311 0.00227942)
(0.137909 -0.000982759 0.00126074)
(0.133602 -0.00258836 0.000231582)
(0.137152 -0.00259603 0.0020665)
(0.145244 -0.00165872 0.00491088)
(0.148469 -0.0028944 0.00487865)
(0.143974 -0.00718401 0.002555)
(0.140499 -0.0103013 0.0025109)
(0.144963 -0.00773259 0.00515483)
(0.149508 -0.0015949 0.00680642)
(0.14581 0.00318773 0.00754154)
(0.13642 0.00495099 0.00944059)
(0.127657 0.00313541 0.0103631)
(0.122693 -0.00219973 0.00661838)
(0.123824 -0.00851535 -0.000394077)
(0.133314 -0.0110065 -0.00509649)
(0.144048 -0.00952314 -0.00369168)
(0.145064 -0.00822789 0.00227341)
(0.136229 -0.00812239 0.0094077)
(0.125175 -0.00809633 0.015171)
(0.119069 -0.00806922 0.0156647)
(0.120642 -0.00639023 0.00933346)
(0.124877 -0.00121014 1.80116e-05)
(0.125155 0.0044202 -0.00695779)
(0.122368 0.00582905 -0.00930475)
(0.119758 0.00294894 -0.00760348)
(0.117848 -0.000275714 -0.00338264)
(0.117328 -0.000828038 0.00159905)
(0.119289 0.000564071 0.00560724)
(0.125189 0.00139902 0.00691122)
(0.136248 0.00113067 0.00323463)
(0.146372 0.000444543 -0.00566582)
(0.147181 -0.000854745 -0.0154792)
(0.149631 -0.000290934 -0.0184106)
(0.144191 -0.00484623 -0.0225189)
(0.143321 -0.00985529 -0.0212327)
(0.147062 -0.0128469 -0.0165441)
(0.149203 -0.0134737 -0.0119143)
(0.147239 -0.0112304 -0.00722245)
(0.144836 -0.00637014 -0.00185783)
(0.143175 -0.00143416 0.00204385)
(0.140214 0.000412057 0.00229564)
(0.137066 -0.0012075 0.000800309)
(0.138022 -0.00340706 0.00160553)
(0.144149 -0.00364162 0.00484184)
(0.149512 -0.00347004 0.00611474)
(0.148321 -0.00573487 0.00336623)
(0.14257 -0.00914063 0.000748998)
(0.139214 -0.00901849 0.00215091)
(0.138781 -0.00433532 0.00581986)
(0.136349 0.00109942 0.0090432)
(0.13209 0.0045822 0.0102827)
(0.129528 0.00507198 0.00767943)
(0.128263 0.0012033 0.00122314)
(0.126767 -0.00646513 -0.00551375)
(0.130781 -0.0123326 -0.00854988)
(0.143296 -0.0115904 -0.00641238)
(0.151822 -0.00800455 -0.000527086)
(0.14652 -0.00614494 0.00603215)
(0.133451 -0.00536897 0.0118298)
(0.123381 -0.00471762 0.0146584)
(0.121476 -0.00331602 0.0116718)
(0.125127 0.000482035 0.0039569)
(0.12807 0.00497299 -0.00415999)
(0.128644 0.00603213 -0.00932763)
(0.128753 0.0034489 -0.0107077)
(0.128747 0.000826649 -0.00925801)
(0.128043 0.000644484 -0.0061022)
(0.127371 0.00138705 -0.00185676)
(0.128909 0.000242142 0.00214257)
(0.135853 -0.00164598 0.00262373)
(0.146911 -0.000816348 -0.00252385)
(0.152723 0.00090843 -0.0108473)
(0.154788 0.00156814 -0.0146917)
(0.152335 -0.00248418 -0.0195945)
(0.150364 -0.00748534 -0.0200508)
(0.15277 -0.0103289 -0.0171231)
(0.155083 -0.0116181 -0.0141475)
(0.152026 -0.0113488 -0.0106268)
(0.146389 -0.00813211 -0.00481417)
(0.142646 -0.00270861 0.000916443)
(0.140515 0.00125873 0.00304568)
(0.139192 0.000793984 0.00228826)
(0.140013 -0.00261758 0.0024218)
(0.144299 -0.00479551 0.00503658)
(0.149603 -0.00448291 0.00699073)
(0.150354 -0.00449061 0.00471434)
(0.144301 -0.00620812 0.000522661)
(0.135325 -0.00703208 -0.000149508)
(0.128328 -0.00478311 0.00336622)
(0.124629 -0.000942355 0.00679758)
(0.125099 0.00245339 0.00646271)
(0.129322 0.00464856 0.00177682)
(0.133253 0.00358331 -0.0044514)
(0.133662 -0.00264559 -0.00839905)
(0.134164 -0.0110583 -0.00808755)
(0.142066 -0.0141426 -0.00418672)
(0.152492 -0.0104896 0.00134423)
(0.151726 -0.00591807 0.00638939)
(0.13959 -0.00340715 0.0104897)
(0.127523 -0.00192646 0.0130993)
(0.123349 -0.000207725 0.0117143)
(0.126119 0.00255574 0.00570837)
(0.129884 0.00526499 -0.00152494)
(0.130984 0.00521582 -0.00635982)
(0.131006 0.00252603 -0.00835094)
(0.132394 0.000279364 -0.00913492)
(0.134658 0.000570925 -0.00860109)
(0.13613 0.00168565 -0.00518465)
(0.136389 0.000124868 -1.44761e-05)
(0.137756 -0.00304454 0.00231721)
(0.143846 -0.0026569 -0.000966932)
(0.151786 0.000859567 -0.00770463)
(0.152994 0.00149003 -0.0111171)
(0.156668 -0.000837399 -0.0156123)
(0.156162 -0.00458567 -0.0175399)
(0.157825 -0.00714958 -0.0165141)
(0.161271 -0.00901385 -0.0148438)
(0.159308 -0.0101749 -0.0129722)
(0.151615 -0.00843337 -0.00854902)
(0.144688 -0.00342421 -0.00204992)
(0.141365 0.00157295 0.00279955)
(0.140751 0.00258144 0.00440587)
(0.141825 -0.000623649 0.00449088)
(0.14447 -0.00400523 0.00524706)
(0.148002 -0.00465904 0.0066241)
(0.149304 -0.00404032 0.0060285)
(0.145334 -0.00413635 0.00258454)
(0.137174 -0.00405889 -0.000885164)
(0.129474 -0.00261197 -0.00147424)
(0.125723 -0.000755336 0.000101557)
(0.126991 0.000699009 0.000733689)
(0.132143 0.00237542 -0.00163032)
(0.137325 0.00327832 -0.00583055)
(0.139783 0.000220677 -0.00867571)
(0.140792 -0.00723213 -0.00783917)
(0.144787 -0.0137925 -0.0032669)
(0.152084 -0.0131842 0.00246361)
(0.153117 -0.00734958 0.0067334)
(0.143637 -0.00213371 0.0100926)
(0.131978 0.000607564 0.0126642)
(0.126174 0.00212426 0.0118417)
(0.126108 0.00398552 0.00690976)
(0.1268 0.00583093 0.00160311)
(0.125905 0.00542149 -0.00076583)
(0.125512 0.00231118 -0.00149677)
(0.127978 -0.000628501 -0.00313328)
(0.132904 -0.000575015 -0.00432205)
(0.137095 0.00104489 -0.00180407)
(0.138074 0.000642341 0.00307)
(0.137039 -0.0017044 0.00477944)
(0.138332 -0.00232577 0.000905082)
(0.144769 0.00012777 -0.00537158)
(0.147783 0.001486 -0.0074466)
(0.155312 0.000125354 -0.0111123)
(0.159098 -0.00191221 -0.0133106)
(0.162438 -0.00372306 -0.0138457)
(0.1668 -0.00591699 -0.0139413)
(0.166121 -0.00795155 -0.014124)
(0.157849 -0.00724161 -0.0118018)
(0.148259 -0.002997 -0.00561854)
(0.142817 0.00192694 0.000991642)
(0.141714 0.00362523 0.00472325)
(0.142769 0.00113334 0.00579349)
(0.144503 -0.00236542 0.00590257)
(0.14607 -0.00389343 0.00621924)
(0.145816 -0.00373041 0.00606445)
(0.142501 -0.003259 0.00403622)
(0.137437 -0.00231421 0.000355861)
(0.133721 -0.000664391 -0.00271641)
(0.132757 0.00023869 -0.00297407)
(0.13394 -0.000153486 -0.00116537)
(0.136822 1.20388e-05 -0.000740731)
(0.139723 0.00136607 -0.00307819)
(0.140987 0.00117027 -0.00536605)
(0.141819 -0.00333195 -0.0051157)
(0.144658 -0.0102903 -0.00223006)
(0.150065 -0.0129063 0.00225567)
(0.152768 -0.00836895 0.00627694)
(0.147681 -0.00155678 0.00911945)
(0.138508 0.00319905 0.0110929)
(0.131302 0.00538134 0.0109986)
(0.126924 0.0060456 0.00824627)
(0.123712 0.00598623 0.00500488)
(0.121993 0.00450821 0.0034954)
(0.12309 0.000961614 0.00311485)
(0.126864 -0.00276239 0.00185005)
(0.132035 -0.00376314 0.000104422)
(0.136253 -0.00163888 0.000711036)
(0.137468 0.000640511 0.00416048)
(0.136407 0.000938097 0.00635894)
(0.136058 0.000461942 0.00356676)
(0.139783 0.00111188 -0.00223781)
(0.145 0.00294334 -0.00316698)
(0.15206 0.000927252 -0.00717187)
(0.158019 -0.000433857 -0.00993471)
(0.163657 -0.00120484 -0.0111065)
(0.169022 -0.0029508 -0.0117028)
(0.16943 -0.00510902 -0.0130595)
(0.16239 -0.00480971 -0.0134575)
(0.152869 -0.00122197 -0.00964126)
(0.146268 0.00279008 -0.00277732)
(0.143336 0.00386325 0.0028661)
(0.142432 0.00179869 0.00540621)
(0.142406 -0.000857544 0.00595036)
(0.142578 -0.00193618 0.00619199)
(0.141844 -0.00183395 0.00605765)
(0.139869 -0.00161838 0.00438625)
(0.138222 -0.00103235 0.001203)
(0.138881 -4.21794e-05 -0.00175785)
(0.141112 -0.000267938 -0.00242975)
(0.142001 -0.00221103 -0.000651021)
(0.140708 -0.00309416 0.00117785)
(0.138682 -0.000929683 0.00124134)
(0.137926 0.00137161 0.000916376)
(0.139972 -0.000866633 0.00172278)
(0.144158 -0.00726567 0.00359025)
(0.148704 -0.0116444 0.00574635)
(0.15079 -0.00876232 0.00686952)
(0.147332 -0.00108949 0.00780668)
(0.139819 0.0053679 0.00917114)
(0.132363 0.00771485 0.0094298)
(0.126513 0.00698399 0.00791279)
(0.122344 0.00572029 0.00657767)
(0.120989 0.00461104 0.00685353)
(0.122946 0.00254008 0.00735726)
(0.12705 -0.000639761 0.00623413)
(0.131715 -0.00289445 0.00426376)
(0.135122 -0.00192947 0.00387949)
(0.136189 0.00120739 0.00572385)
(0.135943 0.00339135 0.00735868)
(0.13634 0.00408618 0.00589204)
(0.139134 0.00405792 0.00158386)
(0.143636 0.0035834 0.000611639)
(0.148985 0.000227312 -0.00421117)
(0.155329 -0.00199098 -0.0075527)
(0.162033 -0.00173038 -0.00902682)
(0.167245 -0.000661959 -0.00980652)
(0.167981 -0.00086678 -0.0110885)
(0.164003 -0.00127427 -0.0124711)
(0.158652 0.000466612 -0.0114765)
(0.154542 0.00336855 -0.00710402)
(0.151171 0.00424936 -0.00184511)
(0.147225 0.00249681 0.00167503)
(0.14306 6.90644e-05 0.00331625)
(0.14007 -0.00139386 0.00434303)
(0.139008 -0.00177239 0.00522247)
(0.14005 -0.00146945 0.00517855)
(0.143407 -0.000656312 0.00372996)
(0.148717 0.000137348 0.00143441)
(0.152986 -0.000361068 -0.000272319)
(0.152105 -0.00226271 0.000799423)
(0.146632 -0.00313013 0.00472954)
(0.141121 -0.000892828 0.00802599)
(0.139134 0.00249794 0.00733204)
(0.141062 0.00256785 0.00345206)
(0.144844 -0.00241517 0.00104752)
(0.148495 -0.00815881 0.00325238)
(0.14988 -0.00764284 0.00625499)
(0.146511 -0.000225144 0.00669434)
(0.139185 0.0075803 0.00652779)
(0.131748 0.0108703 0.00708289)
(0.126708 0.0100531 0.00730562)
(0.12435 0.00783245 0.00661303)
(0.124337 0.00580447 0.00561827)
(0.126101 0.00393162 0.00501608)
(0.128786 0.0018085 0.00475785)
(0.132134 0.000240144 0.00437708)
(0.135754 0.000594315 0.00427232)
(0.138423 0.00280054 0.00534416)
(0.139283 0.00493421 0.00701761)
(0.139228 0.00591781 0.00739856)
(0.140259 0.0056526 0.00510632)
(0.142542 0.00315874 0.00392024)
(0.147709 -0.000784841 -0.000900155)
(0.153167 -0.00459353 -0.00556963)
(0.158784 -0.00544603 -0.008094)
(0.163835 -0.00325342 -0.0086573)
(0.165659 -0.000467704 -0.00880908)
(0.162822 0.00120964 -0.00941144)
(0.15789 0.00253896 -0.00955214)
(0.154575 0.00419356 -0.00798004)
(0.153633 0.00500348 -0.00507943)
(0.152974 0.00415315 -0.00231115)
(0.150528 0.00229329 -0.000405563)
(0.146526 -5.23739e-05 0.00111643)
(0.142758 -0.00297199 0.00281186)
(0.141142 -0.00617324 0.00449189)
(0.143307 -0.00828718 0.0053462)
(0.149331 -0.00821011 0.00459058)
(0.155552 -0.00640072 0.00251674)
(0.156296 -0.00423935 0.00155796)
(0.150984 -0.00211121 0.00364917)
(0.144548 0.000974422 0.00628404)
(0.14086 0.00473294 0.00524902)
(0.140025 0.006324 0.000147641)
(0.140976 0.0033115 -0.00450078)
(0.143631 -0.00281745 -0.00366732)
(0.146346 -0.00625459 0.0011729)
(0.14586 -0.00253418 0.004706)
(0.141855 0.00550451 0.0056355)
(0.137474 0.0117203 0.00560936)
(0.135511 0.0134766 0.00455798)
(0.135677 0.012022 0.00212756)
(0.136132 0.00936125 -0.000284193)
(0.136144 0.0064912 -0.00103407)
(0.13607 0.00392391 0.000182277)
(0.136465 0.0024137 0.00221868)
(0.137357 0.00245835 0.00386997)
(0.138127 0.00351582 0.00505367)
(0.138113 0.00452994 0.00617718)
(0.137832 0.00505449 0.0070658)
(0.138974 0.00494502 0.00668236)
(0.142964 -0.00212925 0.0100742)
(0.149519 -0.00416388 0.00490333)
(0.155322 -0.00516192 -0.00141852)
(0.157783 -0.00399268 -0.00623387)
(0.156451 -0.000792066 -0.00867216)
(0.152791 0.00268252 -0.00920084)
(0.148818 0.00474758 -0.00859051)
(0.14596 0.00516447 -0.00761683)
(0.1447 0.00461227 -0.00700993)
(0.145158 0.00353238 -0.00676923)
(0.147388 0.00219674 -0.0061757)
(0.150801 0.00101666 -0.00467675)
(0.153884 0.000141347 -0.00260199)
(0.154828 -0.00110414 -0.000622495)
(0.153191 -0.00358467 0.00141106)
(0.150712 -0.00700833 0.00410539)
(0.149986 -0.00989201 0.00686325)
(0.151622 -0.010525 0.00808488)
(0.1528 -0.00777719 0.00720762)
(0.150848 -0.0025686 0.00554999)
(0.146613 0.00245034 0.00408287)
(0.142614 0.00506548 0.00210165)
(0.14039 0.0042921 -0.0011736)
(0.140355 0.000790002 -0.0042389)
(0.142453 -0.00340104 -0.00393659)
(0.145434 -0.00562249 0.000298023)
(0.14667 -0.00350149 0.0051963)
(0.145668 0.00241054 0.00770667)
(0.144816 0.00840544 0.00697645)
(0.145619 0.0116952 0.00324334)
(0.146869 0.0120338 -0.00229406)
(0.14698 0.0101043 -0.00721669)
(0.145948 0.00666871 -0.00944735)
(0.144478 0.00338102 -0.00820701)
(0.143148 0.00220922 -0.0042789)
(0.142111 0.00333754 0.000596443)
(0.140795 0.00482415 0.00486224)
(0.138861 0.00470993 0.00817306)
(0.137489 0.00273644 0.010776)
(0.138565 0.000203264 0.0119237)
(0.152455 -0.00240536 0.012215)
(0.153399 -0.00306439 0.0121339)
(0.155663 -0.00248931 0.00879461)
(0.159034 -0.000148226 0.00364464)
(0.161538 0.00384611 -0.00162247)
(0.161312 0.00764384 -0.00587753)
(0.158225 0.00926997 -0.0086103)