/*--------------------------------*- C++ -*----------------------------------*\
| =========                 |                                                 |
| \\      /  F ield         | OpenFOAM: The Open Source CFD Toolbox           |
|  \\    /   O peration     | Version:  2306                                  |
|   \\  /    A nd           | Website:  www.openfoam.com                      |
|    \\/     M anipulation  |                                                 |
\*---------------------------------------------------------------------------*/
FoamFile
{
    version     2.0;
    format      ascii;
    arch        "LSB;label=32;scalar=64";
    class       surfaceScalarField;
    location    "7.5";
    object      phi;
}
// * * * * * * * * * * * * * * * * * * * * * * * * * * * * * * * * * * * * * //

dimensions      [0 3 -1 0 0 0 0];

oriented        oriented;

internalField   nonuniform List<scalar> 
175300
(
4.63219e-06
5.32307e-07
-5.23794e-07
4.99338e-06
4.40755e-07
-2.318e-07
5.40564e-06
3.64712e-07
1.11868e-07
5.76604e-06
4.86265e-07
4.77943e-07
5.92093e-06
7.271e-07
9.36503e-07
5.82082e-06
8.99871e-07
1.44103e-06
5.56613e-06
8.57835e-07
1.87697e-06
5.32161e-06
6.13201e-07
2.09305e-06
5.14849e-06
3.80264e-07
2.00841e-06
5.02412e-06
2.45119e-07
1.71353e-06
4.90663e-06
1.74127e-07
1.38635e-06
4.7488e-06
9.92195e-08
1.1933e-06
4.515e-06
-1.8955e-09
1.17918e-06
4.17895e-06
-6.84685e-08
1.25745e-06
3.79919e-06
-1.26741e-07
1.32478e-06
3.51782e-06
-2.37085e-07
1.3237e-06
3.408e-06
-3.65865e-07
1.22941e-06
3.4435e-06
-4.78133e-07
1.04098e-06
3.54949e-06
-5.44592e-07
7.90553e-07
3.66188e-06
-5.34763e-07
5.38672e-07
3.78713e-06
-4.14599e-07
2.78588e-07
3.97588e-06
-2.26472e-07
-1.20014e-08
4.1982e-06
2.10075e-08
-2.54877e-07
4.40856e-06
2.7509e-07
-4.08785e-07
4.5859e-06
3.56942e-07
-4.12075e-07
4.7445e-06
1.62011e-07
-3.38586e-07
4.91383e-06
-2.89162e-07
-3.27868e-07
5.13331e-06
-7.98567e-07
-5.52502e-07
5.3616e-06
-1.00284e-06
-1.01276e-06
5.43641e-06
-7.30947e-07
-1.44997e-06
5.29288e-06
-2.51692e-07
-1.73191e-06
4.96873e-06
1.96682e-07
-1.96677e-06
4.5406e-06
4.57137e-07
-2.14561e-06
4.12288e-06
3.98439e-07
-2.10147e-06
3.84557e-06
9.31981e-08
-1.91142e-06
3.74832e-06
-1.29461e-07
-1.77741e-06
3.82055e-06
-1.51231e-07
-1.67679e-06
3.991e-06
7.10229e-10
-1.47187e-06
4.17384e-06
2.54991e-07
-1.14792e-06
4.52165e-07
-8.07787e-07
1.54245e-05
1.50619e-06
-1.3993e-06
1.66956e-05
1.09858e-06
-4.88367e-07
1.80478e-05
9.03955e-07
5.358e-07
1.92039e-05
1.33401e-06
1.76293e-06
1.97904e-05
2.0834e-06
3.2255e-06
1.96146e-05
2.57767e-06
4.71682e-06
1.88721e-05
2.45684e-06
5.86734e-06
1.80357e-05
1.79513e-06
6.29937e-06
1.74023e-05
1.11734e-06
5.92854e-06
1.69812e-05
6.83179e-07
5.04104e-06
1.66229e-05
4.44248e-07
4.11649e-06
1.61255e-05
2.26028e-07
3.55861e-06
1.53386e-05
-2.55332e-08
3.45538e-06
1.42465e-05
-2.26928e-07
3.6206e-06
1.30792e-05
-5.05515e-07
3.82267e-06
1.21945e-05
-9.95799e-07
3.88221e-06
1.17597e-05
-1.54714e-06
3.67443e-06
1.17106e-05
-1.9487e-06
3.15982e-06
1.18711e-05
-2.06044e-06
2.43464e-06
1.21165e-05
-1.84235e-06
1.64812e-06
1.2476e-05
-1.33706e-06
8.45249e-07
1.30198e-05
-6.05676e-07
8.10876e-09
1.3675e-05
2.1413e-07
-6.37321e-07
1.43666e-05
8.59757e-07
-9.92235e-07
1.50883e-05
7.80978e-07
-9.70955e-07
1.58761e-05
-2.24824e-07
-7.82876e-07
1.67616e-05
-1.98492e-06
-8.38114e-07
1.76962e-05
-3.65653e-06
-1.52518e-06
1.84088e-05
-4.05412e-06
-2.77058e-06
1.84947e-05
-2.81879e-06
-3.97548e-06
1.78801e-05
-9.56889e-07
-4.84984e-06
1.67976e-05
5.99342e-07
-5.5021e-06
1.55403e-05
1.30452e-06
-5.79918e-06
1.43564e-05
9.35039e-07
-5.58062e-06
1.34245e-05
-1.08895e-08
-5.21494e-06
1.28638e-05
-5.86554e-07
-5.04451e-06
1.27754e-05
-5.4971e-07
-4.82067e-06
1.309e-05
-5.58267e-09
-4.1928e-06
1.36382e-05
8.27876e-07
-3.23465e-06
1.40998e-06
-2.25823e-06
2.82752e-05
2.28641e-06
-2.79383e-06
3.06909e-05
1.31981e-06
-1.31331e-06
3.32558e-05
7.59913e-07
5.21671e-07
3.55579e-05
1.59964e-06
2.69959e-06
3.70109e-05
3.0598e-06
5.3163e-06
3.71302e-05
4.06502e-06
7.9433e-06
3.59901e-05
4.05496e-06
9.93965e-06
3.43597e-05
3.12398e-06
1.07315e-05
3.2992e-05
2.028e-06
1.02038e-05
3.21098e-05
1.19808e-06
8.8071e-06
3.14756e-05
6.84857e-07
7.29348e-06
3.06718e-05
2.76526e-07
6.26898e-06
2.93774e-05
-1.21332e-07
5.87542e-06
2.75424e-05
-4.4759e-07
5.92411e-06
2.54956e-05
-1.00158e-06
6.18816e-06
2.37537e-05
-2.02398e-06
6.40814e-06
2.26287e-05
-3.212e-06
6.26602e-06
2.21398e-05
-4.10578e-06
5.59133e-06
2.21059e-05
-4.35435e-06
4.50586e-06
2.23585e-05
-3.87546e-06
3.24645e-06
2.2905e-05
-2.81172e-06
1.92246e-06
2.37944e-05
-1.26612e-06
5.60515e-07
2.49232e-05
4.27975e-07
-5.765e-07
2.62194e-05
1.48673e-06
-1.15322e-06
2.77004e-05
8.5486e-07
-1.0473e-06
2.94015e-05
-1.74065e-06
-5.96342e-07
3.1326e-05
-5.76961e-06
-5.03063e-07
3.33088e-05
-9.35627e-06
-1.4545e-06
3.47886e-05
-9.9669e-06
-3.47136e-06
3.50573e-05
-7.0087e-06
-5.64037e-06
3.40337e-05
-2.74287e-06
-7.36905e-06
3.2205e-05
7.02469e-07
-8.59093e-06
3.01287e-05
2.15897e-06
-9.03219e-06
2.81274e-05
1.3824e-06
-8.63297e-06
2.63086e-05
-4.0809e-07
-8.12832e-06
2.48193e-05
-1.4042e-06
-8.06481e-06
2.40169e-05
-1.24846e-06
-7.98672e-06
2.40882e-05
-2.10213e-07
-7.20727e-06
2.48872e-05
1.33749e-06
-5.76082e-06
2.38038e-06
-4.19554e-06
4.26733e-05
2.29975e-06
-5.48739e-06
4.641e-05
1.76717e-07
-3.62114e-06
5.05103e-05
-1.39234e-06
-9.333e-07
5.44618e-05
-2.16521e-07
2.21832e-06
5.74934e-05
2.24841e-06
6.13181e-06
5.86606e-05
4.17537e-06
1.02223e-05
5.75505e-05
4.77409e-06
1.35128e-05
5.50282e-05
4.08834e-06
1.51309e-05
5.25399e-05
2.91495e-06
1.48189e-05
5.0894e-05
1.72599e-06
1.3131e-05
4.99081e-05
8.26264e-07
1.11097e-05
4.89072e-05
1.55727e-07
9.5694e-06
4.73117e-05
-3.74827e-07
8.66813e-06
4.49305e-05
-7.30241e-07
8.25253e-06
4.20435e-05
-1.42216e-06
8.29337e-06
3.91769e-05
-2.85597e-06
8.65576e-06
3.67844e-05
-4.66308e-06
8.8246e-06
3.51789e-05
-6.25444e-06
8.31694e-06
3.44173e-05
-7.02549e-06
7.15639e-06
3.4363e-05
-6.61575e-06
5.64258e-06
3.49398e-05
-5.0685e-06
3.93382e-06
3.61092e-05
-2.51183e-06
2.06736e-06
3.77148e-05
3.62192e-07
3.99851e-07
3.96872e-05
1.90055e-06
-4.27074e-07
4.20505e-05
2.72677e-07
-4.50207e-08
4.47895e-05
-4.65622e-06
9.19124e-07
4.78969e-05
-1.21705e-05
1.74992e-06
5.12489e-05
-1.88161e-05
9.48808e-07
5.40593e-05
-2.01422e-05
-1.77022e-06
5.51284e-05
-1.47954e-05
-5.34337e-06
5.41669e-05
-6.86789e-06
-8.53355e-06
5.18739e-05
-3.48313e-07
-1.08781e-05
4.91272e-05
2.61213e-06
-1.18158e-05
4.63682e-05
1.66982e-06
-1.1264e-05
4.35641e-05
-1.03452e-06
-1.04553e-05
4.06926e-05
-2.50283e-06
-1.04656e-05
3.83419e-05
-2.21862e-06
-1.08453e-05
3.73129e-05
-7.80473e-07
-1.04782e-05
3.78376e-05
1.34518e-06
-9.05126e-06
2.78515e-06
-7.21633e-06
5.76735e-05
1.0712e-06
-1.01058e-05
6.25407e-05
-3.02016e-06
-8.39623e-06
6.83116e-05
-6.83206e-06
-5.58018e-06
7.44147e-05
-6.77767e-06
-1.00096e-06
7.99824e-05
-2.71285e-06
4.06695e-06
8.34913e-05
1.02526e-06
1.00777e-05
8.3535e-05
3.2244e-06
1.54788e-05
8.05138e-05
3.80131e-06
1.88027e-05
7.65875e-05
3.35598e-06
1.9418e-05
7.37096e-05
2.15474e-06
1.78303e-05
7.21688e-05
8.38465e-07
1.54916e-05
7.10781e-05
-2.14589e-07
1.36019e-05
6.94913e-05
-9.23353e-07
1.22344e-05
6.69579e-05
-1.19725e-06
1.10503e-05
6.35648e-05
-1.73028e-06
1.03156e-05
5.96112e-05
-3.15544e-06
1.04447e-05
5.54519e-05
-5.17585e-06
1.10067e-05
5.17619e-05
-7.3675e-06
1.10473e-05
4.92487e-05
-9.15968e-06
1.02223e-05
4.8152e-05
-9.65793e-06
8.82554e-06
4.83477e-05
-8.20177e-06
7.04921e-06
4.95886e-05
-4.63695e-06
4.83359e-06
5.15522e-05
-1.73373e-07
2.61137e-06
5.41037e-05
2.11812e-06
1.53191e-06
5.7219e-05
-6.07546e-07
2.19986e-06
6.06824e-05
-8.82578e-06
4.51669e-06
6.44787e-05
-2.10342e-05
7.01409e-06
6.90564e-05
-3.25803e-05
7.36818e-06
7.40078e-05
-3.62894e-05
4.31899e-06
7.73243e-05
-2.86128e-05
-1.15973e-06
7.77593e-05
-1.55213e-05
-6.96641e-06
7.5893e-05
-4.0711e-06
-1.16381e-05
7.29585e-05
1.8982e-06
-1.39921e-05
6.96903e-05
1.63627e-06
-1.3579e-05
6.60655e-05
-1.75767e-06
-1.22047e-05
6.17501e-05
-3.66814e-06
-1.19644e-05
5.71938e-05
-3.19738e-06
-1.28139e-05
5.38168e-05
-1.49185e-06
-1.33611e-05
5.2787e-05
8.33383e-07
-1.27837e-05
2.33179e-06
-1.14966e-05
7.30265e-05
-9.4084e-07
-1.59832e-05
7.76643e-05
-8.19537e-06
-1.55828e-05
8.40844e-05
-1.6065e-05
-1.3652e-05
9.19067e-05
-1.88258e-05
-9.5676e-06
0.00010067
-1.53467e-05
-2.97875e-06
0.000108544
-8.93252e-06
4.83134e-06
0.000112167
-3.29086e-06
1.35471e-05
0.000110266
4.83607e-07
2.01671e-05
0.000105201
2.3446e-06
2.3113e-05
0.000100633
2.06524e-06
2.24005e-05
9.81731e-05
6.11103e-07
1.99706e-05
9.70097e-05
-9.09003e-07
1.80274e-05
9.57242e-05
-1.94759e-06
1.67545e-05
9.35116e-05
-2.13583e-06
1.50336e-05
9.02543e-05
-2.19923e-06
1.29793e-05
8.58773e-05
-3.04434e-06
1.20094e-05
8.01549e-05
-4.54383e-06
1.25427e-05
7.36597e-05
-6.63605e-06
1.33212e-05
6.79332e-05
-9.38429e-06
1.32496e-05
6.43084e-05
-1.17368e-05
1.23673e-05
6.31123e-05
-1.15988e-05
1.0935e-05
6.38717e-05
-7.55933e-06
8.72311e-06
6.58443e-05
-1.20689e-06
6.15208e-06
6.86558e-05
2.34984e-06
4.87887e-06
7.21769e-05
-1.45742e-06
6.13445e-06
7.58205e-05
-1.34661e-05
9.96356e-06
7.89974e-05
-3.09793e-05
1.45513e-05
8.28684e-05
-4.84652e-05
1.70549e-05
8.93836e-05
-5.70217e-05
1.52444e-05
9.70086e-05
-5.04081e-05
8.90683e-06
0.000101974
-3.21989e-05
-2.00599e-07
0.000102914
-1.3199e-05
-9.23205e-06
0.000101118
-1.54514e-06
-1.48556e-05
9.7966e-05
6.68478e-07
-1.56131e-05
9.39137e-05
-2.57576e-06
-1.36781e-05
8.86165e-05
-4.6597e-06
-1.26718e-05
8.20531e-05
-3.80764e-06
-1.35447e-05
7.56551e-05
-1.73519e-06
-1.4932e-05
7.15292e-05
5.64419e-07
-1.56893e-05
1.70678e-06
-1.59067e-05
9.23526e-05
-1.93873e-06
-2.04252e-05
9.42312e-05
-1.29751e-05
-2.2424e-05
9.83704e-05
-2.63668e-05
-2.29747e-05
0.000104588
-3.37033e-05
-2.09526e-05
0.000113588
-3.27376e-05
-1.61254e-05
0.000125912
-2.73751e-05
-7.77794e-06
0.000137107
-1.97733e-05
3.89333e-06
0.000140839
-9.92654e-06
1.59466e-05
0.000136893
-2.52415e-06
2.39205e-05
0.000130853
2.10193e-07
2.59531e-05
0.000127143
-4.24225e-07
2.38637e-05
0.000125905
-2.16424e-06
2.17951e-05
0.000125151
-3.62816e-06
2.13717e-05
0.000123578
-3.88031e-06
2.03825e-05
0.0001211
-3.33121e-06
1.73167e-05
0.000117514
-3.15679e-06
1.42663e-05
0.000111653
-3.45109e-06
1.36442e-05
0.000102968
-4.40225e-06
1.48215e-05
9.30957e-05
-6.99513e-06
1.57855e-05
8.48955e-05
-1.11345e-05
1.57438e-05
8.0307e-05
-1.36012e-05
1.49373e-05
7.933e-05
-1.03898e-05
1.308e-05
8.0697e-05
-2.35486e-06
1.03597e-05
8.34983e-05
2.94864e-06
8.87849e-06
8.74686e-05
-1.59239e-06
1.04557e-05
9.17872e-05
-1.71677e-05
1.50058e-05
9.46735e-05
-3.90749e-05
2.04141e-05
9.58424e-05
-6.08367e-05
2.45058e-05
9.92532e-05
-7.53795e-05
2.58804e-05
0.000108368
-7.44906e-05
2.24746e-05
0.000120101
-5.63493e-05
1.29204e-05
0.000128415
-3.10213e-05
-9.76317e-07
0.000131156
-1.05639e-05
-1.25294e-05
0.000129675
-2.6589e-06
-1.6713e-05
0.000125737
-3.75472e-06
-1.51406e-05
0.000120115
-5.26874e-06
-1.30661e-05
0.000112664
-3.85627e-06
-1.32287e-05
0.000104151
-1.18406e-06
-1.48116e-05
9.69673e-05
1.24965e-06
-1.65448e-05
2.12938e-06
-1.83443e-05
0.000121047
-2.89963e-07
-2.10808e-05
0.000118964
-1.3531e-05
-2.52833e-05
0.00011769
-3.20719e-05
-2.94989e-05
0.000118692
-4.5206e-05
-3.15248e-05
0.000122994
-4.78568e-05
-2.98469e-05
0.00013342
-4.59182e-05
-2.38366e-05
0.000150049
-4.19189e-05
-1.25497e-05
0.000163937
-3.08448e-05
3.35914e-06
0.000166547
-1.53292e-05
1.86337e-05
0.000161253
-5.9194e-06
2.67381e-05
0.000156601
-3.82938e-06
2.65553e-05
0.000155728
-4.9893e-06
2.37285e-05
0.00015615
-6.43024e-06
2.38351e-05
0.000155368
-6.59205e-06
2.52396e-05
0.000153711
-5.42427e-06
2.32372e-05
0.000151944
-4.25e-06
1.82785e-05
0.000148341
-3.30246e-06
1.51135e-05
0.000140202
-2.56413e-06
1.56315e-05
0.000127463
-3.43018e-06
1.75727e-05
0.000113583
-7.51256e-06
1.86716e-05
0.000102984
-1.23493e-05
1.86253e-05
9.79378e-05
-1.14356e-05
1.73467e-05
9.75958e-05
-2.98244e-06
1.46718e-05
0.000100227
4.13153e-06
1.27124e-05
0.000104936
-2.36511e-07
1.38277e-05
0.000110845
-1.81989e-05
1.78595e-05
0.000115799
-4.29229e-05
2.2104e-05
0.000116772
-6.58526e-05
2.55874e-05
0.00011492
-8.24758e-05
2.96696e-05
0.000117848
-8.85599e-05
3.25898e-05
0.000130025
-7.82358e-05
2.79644e-05
0.000146104
-5.36996e-05
1.34555e-05
0.000157732
-2.6796e-05
-4.43959e-06
0.000161244
-1.01892e-05
-1.50117e-05
0.000158455
-5.65969e-06
-1.6149e-05
0.000152879
-5.11679e-06
-1.35511e-05
0.000145827
-3.34298e-06
-1.22336e-05
0.000137305
-2.18939e-07
-1.3025e-05
0.000129131
2.84547e-06
-1.49843e-05
4.06987e-06
-1.76636e-05
0.000157894
3.21315e-06
-1.71191e-05
0.000154888
-8.75153e-06
-2.23978e-05
0.000147921
-2.87657e-05
-2.99121e-05
0.000141341
-4.74849e-05
-3.78091e-05
0.000138887
-5.52864e-05
-4.18253e-05
0.000142878
-5.65561e-05
-3.9224e-05
0.000156731
-5.88955e-05
-2.9492e-05
0.000176846
-5.43488e-05
-1.35085e-05
0.000189424
-3.71483e-05
7.02187e-06
0.000188072
-1.77844e-05
2.30367e-05
0.000182238
-1.00256e-05
2.74591e-05
0.000181865
-1.0776e-05
2.36992e-05
0.000185503
-1.22734e-05
2.21152e-05
0.000186674
-1.07021e-05
2.55033e-05
0.000184724
-7.25642e-06
2.69469e-05
0.00018394
-5.34522e-06
2.25288e-05
0.000184729
-5.12764e-06
1.69817e-05
0.000181816
-4.15326e-06
1.579e-05
0.000170894
-2.62958e-06
1.83383e-05
0.000153445
-3.7535e-06
2.0903e-05
0.000135492
-7.79331e-06
2.17582e-05
0.00012325
-8.72411e-06
2.11808e-05
0.000118736
-1.80247e-06
1.90638e-05
0.000120182
5.77879e-06
1.68593e-05
0.000125464
1.84084e-06
1.68523e-05
0.000132899
-1.70336e-05
1.89096e-05
0.00014046
-4.27633e-05
2.07013e-05
0.000144551
-6.49963e-05
2.22327e-05
0.000142027
-7.91522e-05
2.68704e-05
0.000137434
-8.69816e-05
3.54344e-05
0.00014175
-8.66591e-05
3.91602e-05
0.000158343
-7.29854e-05
2.90063e-05
0.000177996
-4.81452e-05
9.09885e-06
0.00018795
-2.19717e-05
-8.75605e-06
0.000184102
-5.47536e-06
-1.53076e-05
0.000174599
8.44002e-08
-1.40649e-05
0.000168011
-1.24486e-06
-1.08198e-05
0.00016423
-1.34621e-06
-9.3351e-06
0.000160753
2.33033e-06
-1.03773e-05
5.76349e-06
-1.322e-05
0.000191183
3.28679e-06
-6.66196e-06
0.00019471
-3.42241e-06
-1.25608e-05
0.000187797
-1.81575e-05
-2.26962e-05
0.00017449
-3.78882e-05
-3.65168e-05
0.00016437
-5.21821e-05
-4.89404e-05
0.0001619
-5.77597e-05
-5.33827e-05
0.000168649
-6.40818e-05
-4.65837e-05
0.000186066
-6.94843e-05
-3.08882e-05
0.000206592
-6.09183e-05
-9.00507e-06
0.00021518
-3.79101e-05
1.40483e-05
0.000209651
-1.91504e-05
2.58301e-05
0.000204358
-1.63874e-05
2.36622e-05
0.00020892
-2.13302e-05
1.83771e-05
0.000215699
-1.97289e-05
1.998e-05
0.000214545
-9.15274e-06
2.40746e-05
0.000209386
-1.15946e-06
2.24606e-05
0.00021016
-3.59898e-06
1.65934e-05
0.000215933
-9.82216e-06
1.37646e-05
0.000215721
-1.06611e-05
1.68276e-05
0.000202603
-6.84532e-06
2.14924e-05
0.000180521
-3.94557e-06
2.37112e-05
0.000159412
-1.63187e-06
2.38566e-05
0.000147151
3.74716e-06
2.30839e-05
0.000145039
8.33293e-06
2.19158e-05
0.000150363
1.77696e-06
2.09098e-05
0.000159579
-1.88094e-05
1.94268e-05
0.000169465
-4.38428e-05
1.64352e-05
0.00017642
-6.23433e-05
1.4054e-05
0.000176262
-7.08952e-05
1.82387e-05
0.000168807
-7.45816e-05
3.11764e-05
0.000163777
-7.9117e-05
4.33855e-05
0.000172903
-8.0183e-05
4.01308e-05
0.000192951
-6.6691e-05
2.0698e-05
0.000206258
-3.60391e-05
-8.1308e-07
0.000201206
-4.23433e-06
-1.30304e-05
0.000185733
1.15602e-05
-1.4718e-05
0.00017496
7.62354e-06
-1.01015e-05
0.000173471
-3.40072e-07
-4.61389e-06
0.000177197
-8.38159e-07
-2.18644e-06
3.18871e-06
-3.22152e-06
0.000209179
6.51142e-07
1.01619e-05
0.000224375
-3.86157e-06
5.86053e-06
0.000227788
-9.38465e-06
-7.05525e-06
0.000215059
-2.01604e-05
-2.67058e-05
0.000197931
-3.71697e-05
-4.7379e-05
0.000188848
-5.02013e-05
-6.20109e-05
0.000190355
-6.0326e-05
-6.31016e-05
0.000200882
-7.12694e-05
-4.99829e-05
0.000219716
-7.55361e-05
-2.79671e-05
0.000238638
-6.29961e-05
-1.40435e-06
0.000244203
-3.85291e-05
1.9054e-05
0.000236171
-2.30279e-05
2.35046e-05
0.000230552
-2.4834e-05
1.68663e-05
0.000236562
-2.89021e-05
1.31175e-05
0.000243569
-1.7891e-05
1.63426e-05
0.000240643
6.2261e-07
1.86999e-05
0.000234458
4.89108e-06
1.56856e-05
0.000237335
-8.92614e-06
1.16571e-05
0.000247477
-2.39754e-05
1.3338e-05
0.000249471
-2.38945e-05
1.95981e-05
0.000234084
-1.01691e-05
2.36055e-05
0.000208478
5.1611e-06
2.41698e-05
0.000186938
1.50605e-05
2.50691e-05
0.000177864
1.49024e-05
2.71456e-05
0.000180675
8.96605e-07
2.69766e-05
0.000190652
-2.51194e-05
2.15373e-05
0.000203158
-5.07414e-05
1.12775e-05
0.000213415
-6.34409e-05
1.29774e-06
0.000215804
-6.32969e-05
2.43085e-06
0.000207862
-5.8771e-05
1.93236e-05
0.000195736
-6.07078e-05
4.05652e-05
0.000193781
-7.223e-05
4.65589e-05
0.000207054
-7.4635e-05
3.02795e-05
0.000220386
-4.88619e-05
7.09436e-06
0.00021799
-5.39068e-06
-9.73989e-06
0.000202915
2.20762e-05
-1.5299e-05
0.000189516
1.97749e-05
-1.19492e-05
0.000185147
5.53604e-06
-3.21931e-06
0.00018791
2.0298e-07
4.46411e-06
1.83044e-06
9.10055e-06
0.000221027
4.99897e-08
1.85838e-05
0.000241281
-8.782e-06
2.20235e-05
0.000258803
-8.25116e-06
1.30407e-05
0.000256993
-4.07612e-06
-1.05691e-05
0.000239505
-1.42711e-05
-3.79461e-05
0.000223382
-3.32236e-05
-6.13523e-05
0.000219567
-5.04722e-05
-7.31441e-05
0.000226069
-6.43593e-05
-6.84238e-05
0.000238897
-7.63019e-05
-4.94458e-05
0.000257281
-7.98967e-05
-2.17331e-05
0.000273245
-6.53678e-05
5.75519e-06
0.000274387
-3.9914e-05
1.95203e-05
0.000263272
-2.58563e-05
1.6216e-05
0.000257328
-2.73843e-05
8.6623e-06
0.000264077
-2.50902e-05
8.9599e-06
0.000271942
-8.67056e-06
1.45292e-05
0.00027042
5.35474e-06
1.65818e-05
0.000265208
-1.18091e-06
1.30505e-05
0.000268838
-2.5801e-05
1.10106e-05
0.000280236
-4.37618e-05
1.59657e-05
0.000282034
-3.20163e-05
2.12965e-05
0.000264669
1.89732e-07
2.20349e-05
0.000239889
2.43748e-05
2.41589e-05
0.00022311
2.55834e-05
3.08596e-05
0.000218399
6.82183e-06
3.32678e-05
0.000222964
-2.4728e-05
2.36512e-05
0.000234844
-5.54088e-05
5.51202e-06
0.000249999
-7.07829e-05
-9.63331e-06
0.000258137
-6.3634e-05
-1.42278e-05
0.000252074
-4.7491e-05
1.46058e-06
0.000235678
-4.00574e-05
3.09927e-05
0.000223086
-5.22063e-05
4.87596e-05
0.000225344
-6.74246e-05
3.95631e-05
0.00023486
-5.28813e-05
1.56831e-05
0.000236985
-8.28499e-06
-4.2253e-06
0.000229507
2.59877e-05
-1.48726e-05
0.000219852
2.8688e-05
-1.70978e-05
0.000213277
1.45611e-05
-1.07255e-05
0.000210389
7.22732e-06
-3.67223e-08
6.68831e-06
9.83947e-06
0.00024322
4.76647e-06
7.92996e-06
0.000259443
-1.34589e-05
1.95919e-05
0.000284003
-1.48936e-05
2.11577e-05
0.000295829
1.25812e-06
4.40007e-06
0.000286403
6.08496e-06
-2.60871e-05
0.000267401
-1.14544e-05
-5.40014e-05
0.000256352
-3.48078e-05
-7.39469e-05
0.00025906
-5.28091e-05
-8.00201e-05
0.000269207
-6.82661e-05
-6.91402e-05
0.000282404
-8.33657e-05
-4.41351e-05
0.00029739
-8.47655e-05
-1.32541e-05
0.000305387
-6.23693e-05
9.97635e-06
0.000299507
-3.28294e-05
1.32841e-05
0.000288424
-2.093e-05
5.92294e-06
0.000286931
-2.23168e-05
3.83173e-06
0.000296449
-1.73967e-05
1.0949e-05
0.00030518
-4.90521e-06
1.82492e-05
0.000304825
-9.9353e-07
1.76665e-05
0.000300035
-1.77713e-05
1.20359e-05
0.000302291
-4.51459e-05
1.11177e-05
0.000310978
-5.05662e-05
1.53394e-05
0.000311032
-2.09312e-05
1.83696e-05
0.000296399
1.54992e-05
2.35177e-05
0.000277584
2.90853e-05
3.38931e-05
0.000264001
1.95807e-05
3.72936e-05
0.000257432
-6.60885e-06
2.23943e-05
0.000261078
-4.23255e-05
-1.51293e-06
0.00027782
-7.18535e-05
-1.92269e-05
0.000295649
-7.28329e-05
-2.46266e-05
0.000297168
-4.86266e-05
-1.31462e-05
0.00028073
-2.81723e-05
1.85648e-05
0.000260714
-2.98308e-05
4.68591e-05
0.000251778
-4.7222e-05
4.82416e-05
0.000254333
-4.38026e-05
2.69226e-05
0.000258201
-7.93038e-06
3.56894e-06
0.000259017
2.55514e-05
-1.29167e-05
0.000257619
3.07894e-05
-2.16292e-05
0.000253783
2.05328e-05
-2.05837e-05
0.000247403
1.60325e-05
-1.21399e-05
1.59029e-05
-2.52238e-06
0.000285058
1.21604e-05
-1.20228e-05
0.000291378
-1.13625e-05
1.24083e-06
0.000312526
-2.15956e-05
1.18748e-05
0.000333894
-4.24917e-06
6.22213e-06
0.000336678
1.41655e-05
-1.75125e-05
0.000320231
7.24556e-06
-4.54957e-05
0.00030247
-1.44679e-05
-6.99435e-05
0.000298648
-3.51993e-05
-8.43364e-05
0.00030753
-5.43903e-05
-8.30746e-05
0.000319
-7.66029e-05
-6.47767e-05
0.000328915
-9.15891e-05
-3.39337e-05
0.000335493
-7.86573e-05
-5.2767e-06
0.000333436
-4.33856e-05
7.47312e-06
0.000324266
-1.64892e-05
3.60348e-06
0.000318581
-1.28808e-05
-5.01361e-08
0.000323694
-1.67247e-05
6.62389e-06
0.000335433
-1.33318e-05
1.87541e-05
0.000344164
-7.86311e-06
2.43679e-05
0.000343413
-1.36638e-05
1.84746e-05
0.000335999
-3.32193e-05
9.57341e-06
0.000331595
-4.78194e-05
8.79744e-06
0.000330972
-3.64966e-05
1.62664e-05
0.000325496
-6.57144e-06
2.79673e-05
0.000313887
1.75567e-05
3.79872e-05
0.000303574
2.51975e-05
3.52475e-05
0.000296766
1.28057e-05
1.48316e-05
0.000294651
-1.87935e-05
-1.09504e-05
0.000306174
-5.88006e-05
-2.8092e-05
0.000328477
-7.80452e-05
-2.97381e-05
0.000339574
-6.00861e-05
-1.78208e-05
0.000327461
-2.90399e-05
9.81743e-06
0.000303937
-1.66168e-05
4.22663e-05
0.000286963
-2.42794e-05
5.46252e-05
0.000282735
-2.36295e-05
3.93173e-05
0.000285791
1.50419e-06
1.42587e-05
0.000291432
2.66005e-05
-7.92249e-06
0.000297717
2.84002e-05
-2.27313e-05
0.000300666
1.92815e-05
-2.77451e-05
0.000297338
1.88004e-05
-2.4508e-05
2.29458e-05
-1.93611e-05
0.000339273
1.46516e-05
-2.61058e-05
0.000335062
-3.274e-06
-1.31367e-05
0.000344016
-1.7389e-05
-1.24439e-06
0.000366316
-8.60108e-06
-4.95285e-07
0.000382282
1.2003e-05
-1.51594e-05
0.000376269
1.73384e-05
-3.8129e-05
0.000357623
5.66391e-06
-6.30719e-05
0.000347381
-1.15562e-05
-8.33314e-05
0.000353301
-3.30211e-05
-9.09899e-05
0.000365636
-6.20628e-05
-8.1305e-05
0.000373469
-8.74837e-05
-5.54497e-05
0.000375319
-8.5441e-05
-2.35589e-05
0.000371889
-5.15908e-05
-3.37628e-06
0.000363862
-1.48785e-05
-3.5461e-09
0.000357009
-2.08996e-06
-2.19913e-06
0.000358252
-7.59759e-06
3.14086e-06
0.000368386
-1.33976e-05
1.77606e-05
0.000381247
-1.39105e-05
2.96756e-05
0.000385938
-1.52201e-05
2.74676e-05
0.000375613
-2.26706e-05
1.49632e-05
0.000356535
-3.18963e-05
7.98012e-06
0.000341158
-3.11872e-05
1.38527e-05
0.000334405
-1.72044e-05
2.40013e-05
0.000334538
1.32305e-06
2.69835e-05
0.000339199
1.6349e-05
1.80586e-05
0.000342382
1.89694e-05
-1.20193e-06
0.000341441
4.21413e-07
-2.23625e-05
0.000346823
-3.8343e-05
-3.53798e-05
0.000365537
-7.29485e-05
-3.32934e-05
0.000381421
-7.04526e-05
-1.83888e-05
0.000374105
-3.78218e-05
7.17811e-06
0.000348979
-1.31668e-05
3.78352e-05
0.000327349
-8.46821e-06
5.53588e-05
0.000319852
-4.07263e-06
4.67635e-05
0.000322555
1.51335e-05
2.33895e-05
0.000327591
3.34174e-05
7.08341e-07
0.000332565
3.17285e-05
-1.63049e-05
0.00033804
1.78413e-05
-2.69303e-05
0.000342877
1.26356e-05
-3.16364e-05
1.78611e-05
-3.1886e-05
0.000382035
4.8092e-06
-2.22609e-05
0.000375639
5.65462e-07
-9.41429e-06
0.000373401
-5.29235e-06
-1.04857e-06
0.000388648
-1.49085e-06
-2.31715e-06
0.000412921
1.14063e-05
-1.34532e-05
0.000423376
2.18897e-05
-3.1985e-05
0.000414201
2.13292e-05
-5.47313e-05
0.000404019
1.27705e-05
-7.74531e-05
0.00040816
-6.60991e-06
-9.22633e-05
0.000420944
-4.0019e-05
-9.2323e-05
0.00042843
-7.4408e-05
-7.52601e-05
0.000426384
-8.2714e-05
-4.59187e-05
0.000418925
-5.49853e-05
-1.91353e-05
0.000409644
-1.5367e-05
-6.05164e-06
0.000402383
5.97209e-06
-2.52457e-06
0.000401277
4.31678e-06
2.42301e-06
0.000407202
-4.88535e-06
1.37054e-05
0.000416682
-1.19304e-05
2.72735e-05
0.000421772
-1.65153e-05
3.26588e-05
0.000414422
-1.91864e-05
2.39748e-05
0.000395028
-1.80984e-05
9.82615e-06
0.000374559
-1.42638e-05
3.57076e-06
0.000365261
-1.11283e-05
6.02971e-06
0.00037041
-9.3068e-06
8.12889e-06
0.000382901
-2.22148e-06
3.55814e-06
0.000390177
8.75521e-06
-7.31267e-06
0.000388887
9.21794e-06
-2.09779e-05
0.000390368
-1.76819e-05
-2.92654e-05
0.000404329
-5.94215e-05
-2.71551e-05
0.000421089
-7.49514e-05
-1.40738e-05
0.000419861
-4.95263e-05
7.87011e-06
0.000398485
-1.72842e-05
3.56636e-05
0.00037539
-3.99221e-07
5.46044e-05
0.000363432
1.18803e-05
4.90873e-05
0.000359962
3.08221e-05
2.86821e-05
0.000357431
4.44812e-05
1.23509e-05
0.000355068
3.74522e-05
1.87422e-06
0.000357852
1.63136e-05
-1.03003e-05
0.000367649
1.14832e-06
-2.3127e-05
1.34858e-06
-2.86694e-05
0.0004185
-8.08574e-06
-1.40204e-05
0.000415244
-1.11182e-06
-2.71924e-06
0.000408924
7.14869e-06
8.66401e-06
0.000414414
1.66447e-05
8.24268e-06
0.000435788
2.47765e-05
-5.51559e-06
0.000458631
2.8264e-05
-2.51374e-05
0.000468443
2.97255e-05
-4.38811e-05
0.000469735
2.92571e-05
-6.35144e-05
0.000476675
1.88068e-05
-8.27106e-05
0.000489347
-1.22875e-05
-9.4152e-05
0.00049497
-5.13882e-05
-8.94076e-05
0.00048824
-6.82029e-05
-6.73472e-05
0.000475062
-4.7992e-05
-3.91295e-05
0.000461447
-1.15568e-05
-1.81957e-05
0.000452007
1.03342e-05
-6.10062e-06
0.00044951
1.091e-05
2.83323e-06
0.000452192
3.88975e-06
1.22968e-05
0.000454768
-3.38407e-06
2.39601e-05
0.000453306
-1.05735e-05
3.20483e-05
0.000445967
-1.46418e-05
2.72333e-05
0.000433952
-9.77461e-06
1.06055e-05
0.000422978
-1.74319e-06
-4.24622e-06
0.00041977
-3.66492e-06
-7.00219e-06
0.000425937
-1.63619e-05
-1.12879e-06
0.000434432
-2.12686e-05
3.69263e-06
0.000435581
-6.69609e-06
5.49025e-07
0.000430023
9.88823e-06
-6.76527e-06
0.00042911
-3.0809e-07
-1.29713e-05
0.000440282
-3.86827e-05
-1.35668e-05
0.000457776
-6.95898e-05
-4.7727e-06
0.000465445
-6.04626e-05
1.27065e-05
0.000454411
-2.59874e-05
3.47326e-05
0.000433212
5.14234e-06
5.1047e-05
0.000413368
2.62285e-05
4.98693e-05
0.000397801
4.41132e-05
3.4904e-05
0.000385935
5.42553e-05
2.05435e-05
0.000380248
4.4981e-05
1.33424e-05
0.000383303
1.93059e-05
7.58412e-06
0.000394816
-4.80702e-06
-3.20157e-06
-1.26556e-05
-1.37264e-05
0.000455948
-3.81335e-06
1.70744e-06
0.000454286
5.12145e-06
6.4342e-06
0.000448919
1.97719e-05
1.5447e-05
0.000450844
3.59132e-05
1.8699e-05
0.000465205
4.47122e-05
1.21182e-05
0.000487026
4.12389e-05
-4.06383e-06
0.000507911
3.18422e-05
-2.28244e-05
0.000526779
2.66002e-05
-4.21173e-05
0.000547125
2.30353e-05
-6.19205e-05
0.000564291
6.17992e-06
-8.07553e-05
0.000568706
-2.43652e-05
-9.02179e-05
0.000557719
-4.38767e-05
-8.07881e-05
0.000539242
-3.31375e-05
-5.55067e-05
0.000521211
-5.43257e-06
-2.9451e-05
0.000507251
1.31756e-05
-1.23206e-05
0.000499354
1.56411e-05
-1.38238e-06
0.000495913
1.15926e-05
9.58861e-06
0.000492786
6.38595e-06
2.16741e-05
0.000487115
-4.55132e-07
2.99001e-05
0.00047979
-4.65977e-06
2.49675e-05
0.0004758
-5.30671e-07
6.38842e-06
0.000480432
4.88016e-06
-1.17814e-05
0.00049102
-2.47974e-06
-1.37421e-05
0.000497388
-2.32039e-05
-2.64892e-07
0.000492379
-3.55535e-05
1.35937e-05
0.00047964
-2.12162e-05
1.71437e-05
0.000470746
5.52669e-06
1.56739e-05
0.000473544
1.25156e-05
1.39911e-05
0.000487088
-1.34362e-05
8.55038e-06
0.000504108
-4.98763e-05
4.50485e-06
0.000514747
-5.8948e-05
1.31149e-05
0.000509615
-3.05187e-05
3.28246e-05
0.000490448
9.34117e-06
4.81896e-05
0.000464467
3.8449e-05
4.50675e-05
0.000438812
5.43067e-05
3.0648e-05
0.000421253
5.93304e-05
2.31501e-05
0.000416603
5.09015e-05
2.65288e-05
0.000423007
3.07208e-05
2.80408e-05
0.000435436
8.54464e-06
1.91857e-05
-4.26302e-06
6.95181e-06
0.00050935
1.45579e-05
6.10228e-06
0.000514134
1.87466e-05
6.47205e-06
0.000510703
2.82915e-05
1.93551e-05
0.000508259
4.27528e-05
3.26311e-05
0.000514288
5.51937e-05
3.34925e-05
0.000527851
5.41643e-05
1.87369e-05
0.000545589
3.66307e-05
-1.98902e-06
0.000568684
1.45816e-05
-1.76568e-05
0.000597453
1.69438e-06
-3.11846e-05
0.000622977
-3.6497e-06
-5.16982e-05
0.000631797
-1.08376e-05
-7.49457e-05
0.000623292
-1.89361e-05
-8.45504e-05
0.000609163
-1.50059e-05
-7.34506e-05
0.000597382
1.05118e-07
-5.01681e-05
0.000585943
1.20636e-05
-2.66393e-05
0.000571688
1.67414e-05
-8.95986e-06
0.000556355
1.84761e-05
3.07888e-06
0.000542359
1.65162e-05
1.27213e-05
0.000532103
8.27555e-06
2.24955e-05
0.000528351
-1.55754e-06
2.81329e-05
0.000535437
-7.60123e-06
2.28591e-05
0.000554886
-1.32755e-05
8.82919e-06
0.000577355
-2.43546e-05
-1.20767e-06
0.0005851
-3.97627e-05
6.10995e-06
0.000570445
-4.66319e-05
2.86916e-05
0.000545652
-3.04461e-05
4.97753e-05
0.000529992
4.09135e-06
5.59772e-05
0.000531056
3.00745e-05
4.38475e-05
0.00054283
2.29141e-05
1.90502e-05
0.000556969
-1.30145e-05
5.22706e-07
0.000566268
-4.17796e-05
1.74426e-06
0.000560838
-3.09629e-05
1.9117e-05
0.000538336
8.9702e-06
3.72808e-05
0.000506514
4.64583e-05
4.08092e-05
0.000477636
6.65494e-05
3.11174e-05
0.000461506
7.25026e-05
2.47722e-05
0.000459849
6.6758e-05
2.91422e-05
0.000467791
5.0587e-05
3.49096e-05
0.00048054
3.11353e-05
3.13788e-05
1.78432e-05
1.80614e-05
0.000568431
2.56559e-05
1.28118e-05
0.000571324
2.65497e-05
1.87914e-05
0.000567272
3.08134e-05
2.733e-05
0.000563318
3.75094e-05
3.70294e-05
0.000567291
4.2448e-05
4.35365e-05
0.000579947
3.81819e-05
4.03613e-05
0.000596884
2.13428e-05
2.37452e-05
0.000615549
-1.5751e-07
-4.949e-07
0.000638235
-1.53501e-05
-2.34485e-05
0.000665778
-2.07568e-05
-4.1775e-05
0.000688243
-1.83e-05
-5.75275e-05
0.000693652
-1.07608e-05
-7.00262e-05
0.000683638
1.84856e-06
-7.37966e-05
0.000670186
1.55147e-05
-6.62124e-05
0.000660231
2.18402e-05
-5.02445e-05
0.000651962
2.1015e-05
-3.17208e-05
0.00064145
1.88464e-05
-1.65669e-05
0.00062677
1.60492e-05
-6.84733e-06
0.00061039
1.05761e-05
2.2369e-06
0.000600192
2.05981e-06
1.50842e-05
0.000603809
-1.11757e-05
2.70874e-05
0.000621013
-3.13903e-05
3.02997e-05
0.000640506
-5.21178e-05
2.42792e-05
0.000647591
-6.16175e-05
2.05663e-05
0.00063634
-5.32695e-05
3.26176e-05
0.000615416
-2.77226e-05
5.50882e-05
0.000597529
9.59007e-06
6.42007e-05
0.000587996
3.92841e-05
4.62312e-05
0.000586975
3.89478e-05
1.09399e-05
0.000594715
5.89954e-06
-1.62192e-05
0.000606152
-3.33129e-05
-1.73071e-05
0.000608585
-3.97251e-05
2.72012e-06
0.000592501
-5.77116e-06
2.626e-05
0.000565078
4.08988e-05
3.89138e-05
0.000542171
7.45436e-05
3.60066e-05
0.000533083
9.08485e-05
2.43369e-05
0.00053529
8.97332e-05
1.28947e-05
0.000541823
7.26068e-05
6.39177e-06