/*--------------------------------*- C++ -*----------------------------------*\
| =========                 |                                                 |
| \\      /  F ield         | OpenFOAM: The Open Source CFD Toolbox           |
|  \\    /   O peration     | Version:  2306                                  |
|   \\  /    A nd           | Website:  www.openfoam.com                      |
|    \\/     M anipulation  |                                                 |
\*---------------------------------------------------------------------------*/
FoamFile
{
    version     2.0;
    format      ascii;
    arch        "LSB;label=32;scalar=64";
    class       volScalarField;
    location    "7.5";
    object      pPrime2Mean;
}
// * * * * * * * * * * * * * * * * * * * * * * * * * * * * * * * * * * * * * //

dimensions      [0 4 -4 0 0 0 0];

internalField   nonuniform List<scalar> 
60000
(
4.46075e-09
8.65159e-09
1.7503e-08
2.645e-08
3.23098e-08
3.43136e-08
3.2843e-08
2.89609e-08
2.44336e-08
2.2738e-08
2.70003e-08
3.54284e-08
4.24582e-08
4.33316e-08
3.65849e-08
2.49183e-08
1.41455e-08
8.14034e-09
5.97791e-09
5.22389e-09
6.62185e-09
1.38296e-08
2.72972e-08
4.18571e-08
5.04601e-08
4.85137e-08
3.73371e-08
2.52577e-08
2.13847e-08
2.66502e-08
3.40949e-08
3.7048e-08
3.35669e-08
2.58459e-08
1.78276e-08
1.2812e-08
1.14723e-08
1.18758e-08
1.03263e-08
6.31567e-09
4.2576e-09
8.30703e-09
1.71817e-08
2.62746e-08
3.22677e-08
3.43127e-08
3.27895e-08
2.88189e-08
2.4221e-08
2.24952e-08
2.68203e-08
3.53819e-08
4.253e-08
4.34859e-08
3.67908e-08
2.51265e-08
1.43045e-08
8.2304e-09
6.01162e-09
5.20828e-09
6.55365e-09
1.37215e-08
2.71786e-08
4.17404e-08
5.03676e-08
4.84695e-08
3.73361e-08
2.52501e-08
2.13625e-08
2.66755e-08
3.42497e-08
3.73654e-08
3.4003e-08
2.62816e-08
1.81515e-08
1.2996e-08
1.15644e-08
1.19457e-08
1.03984e-08
6.29933e-09
3.98039e-09
7.9607e-09
1.69858e-08
2.6348e-08
3.25749e-08
3.47208e-08
3.31232e-08
2.89504e-08
2.41228e-08
2.21898e-08
2.64849e-08
3.52311e-08
4.26321e-08
4.38092e-08
3.72372e-08
2.55355e-08
1.45536e-08
8.31065e-09
5.98645e-09
5.12134e-09
6.42772e-09
1.36137e-08
2.71484e-08
4.17926e-08
5.04717e-08
4.85467e-08
3.72825e-08
2.50415e-08
2.11281e-08
2.65866e-08
3.44093e-08
3.77954e-08
3.46163e-08
2.68854e-08
1.85537e-08
1.3155e-08
1.15697e-08
1.19399e-08
1.042e-08
6.21492e-09
3.62396e-09
7.61715e-09
1.69448e-08
2.67236e-08
3.33037e-08
3.56446e-08
3.3972e-08
2.94792e-08
2.42423e-08
2.18899e-08
2.60012e-08
3.49471e-08
4.27391e-08
4.42942e-08
3.79406e-08
2.6178e-08
1.49192e-08
8.38865e-09
5.89116e-09
4.94293e-09
6.25119e-09
1.3558e-08
2.72914e-08
4.21039e-08
5.08316e-08
4.87539e-08
3.7151e-08
2.45883e-08
2.0689e-08
2.64486e-08
3.46428e-08
3.8364e-08
3.54088e-08
2.76539e-08
1.90423e-08
1.33007e-08
1.14909e-08
1.18618e-08
1.03974e-08
6.06189e-09
3.20239e-09
7.20185e-09
1.69073e-08
2.72158e-08
3.42809e-08
3.69604e-08
3.53285e-08
3.05088e-08
2.47672e-08
2.1806e-08
2.54654e-08
3.4446e-08
4.26529e-08
4.47206e-08
3.87509e-08
2.70231e-08
1.54504e-08
8.51457e-09
5.75324e-09
4.68393e-09
6.00537e-09
1.34968e-08
2.74849e-08
4.25202e-08
5.13985e-08
4.92707e-08
3.72776e-08
2.42872e-08
2.03597e-08
2.64896e-08
3.50834e-08
3.91036e-08
3.63355e-08
2.8553e-08
1.96652e-08
1.35671e-08
1.14749e-08
1.18274e-08
1.04131e-08
5.90197e-09
2.73447e-09
6.68839e-09
1.67826e-08
2.76963e-08
3.53551e-08
3.84921e-08
3.70183e-08
3.19726e-08
2.57717e-08
2.21881e-08
2.51975e-08
3.38841e-08
4.22932e-08
4.48417e-08
3.93877e-08
2.79018e-08
1.61378e-08
8.75632e-09
5.60304e-09
4.3019e-09
5.59727e-09
1.32969e-08
2.74906e-08
4.25639e-08
5.1563e-08
4.97002e-08
3.77849e-08
2.46558e-08
2.08104e-08
2.73058e-08
3.61775e-08
4.02659e-08
3.74981e-08
2.95758e-08
2.04147e-08
1.40368e-08
1.17126e-08
1.20777e-08
1.06774e-08
5.84189e-09
2.40501e-09
5.775e-09
1.61119e-08
2.78184e-08
3.64977e-08
4.06744e-08
3.94992e-08
3.38388e-08
2.70222e-08
2.30099e-08
2.5512e-08
3.37138e-08
4.19592e-08
4.46856e-08
3.96648e-08
2.8577e-08
1.68541e-08
9.12144e-09
5.49851e-09
3.79954e-09
4.90119e-09
1.28311e-08
2.74699e-08
4.26965e-08
5.1491e-08
4.95365e-08
3.77333e-08
2.49026e-08
2.18531e-08
2.9363e-08
3.88566e-08
4.28078e-08
3.94542e-08
3.08546e-08
2.11804e-08
1.4603e-08
1.22231e-08
1.27656e-08
1.16881e-08
6.48022e-09
2.52925e-09
4.56229e-09
1.46931e-08
2.72024e-08
3.70679e-08
4.27787e-08
4.27859e-08
3.6931e-08
2.88759e-08
2.37861e-08
2.61315e-08
3.44083e-08
4.24282e-08
4.48336e-08
3.97652e-08
2.8935e-08
1.74243e-08
9.52861e-09
5.46893e-09
3.25657e-09
4.0372e-09
1.23787e-08
2.79722e-08
4.36833e-08
5.18596e-08
4.86099e-08
3.5819e-08
2.30519e-08
2.14679e-08
3.09903e-08
4.19947e-08
4.67213e-08
4.31924e-08
3.33998e-08
2.22719e-08
1.48509e-08
1.2354e-08
1.34291e-08
1.32689e-08
8.01952e-09
3.28703e-09
3.35199e-09
1.28165e-08
2.61241e-08
3.73369e-08
4.4658e-08
4.6409e-08
4.09911e-08
3.18678e-08
2.49975e-08
2.61306e-08
3.46764e-08
4.35428e-08
4.61408e-08
4.06955e-08
2.94675e-08
1.78026e-08
9.81029e-09
5.42686e-09
2.77132e-09
3.41412e-09
1.26429e-08
2.99692e-08
4.65529e-08
5.34712e-08
4.72664e-08
3.16493e-08
1.81512e-08
1.85489e-08
3.12058e-08
4.47253e-08
5.06786e-08
4.71929e-08
3.61292e-08
2.34399e-08
1.52393e-08
1.25875e-08
1.40625e-08
1.50099e-08
1.02571e-08
4.85602e-09
2.33575e-09
1.04722e-08
2.4411e-08
3.71902e-08
4.62035e-08
5.01102e-08
4.5958e-08
3.59072e-08
2.68852e-08
2.58535e-08
3.34139e-08
4.27156e-08
4.64162e-08
4.18928e-08
3.11103e-08
1.91612e-08
1.04313e-08
5.34802e-09
2.30107e-09
3.21358e-09
1.4252e-08
3.45959e-08
5.29829e-08
5.86026e-08
4.82592e-08
2.79243e-08
1.20371e-08
1.37166e-08
2.9591e-08
4.60579e-08
5.42506e-08
5.17679e-08
3.96409e-08
2.48668e-08
1.56067e-08
1.29219e-08
1.48586e-08
1.69248e-08
1.30628e-08
7.08774e-09
1.8318e-09
7.58802e-09
2.12371e-08
3.55534e-08
4.65459e-08
5.30435e-08
5.13737e-08
4.13986e-08
2.99261e-08
2.56266e-08
3.1099e-08
3.97848e-08
4.40486e-08
4.09133e-08
3.19283e-08
2.12888e-08
1.23501e-08
5.94527e-09
1.95898e-09
3.36192e-09
1.70889e-08
4.20525e-08
6.40158e-08
6.93963e-08
5.49141e-08
2.89829e-08
8.58836e-09
8.77469e-09
2.57021e-08
4.4008e-08
5.48684e-08
5.54297e-08
4.45938e-08
2.85991e-08
1.77019e-08
1.39232e-08
1.55483e-08
1.82622e-08
1.5641e-08
8.66399e-09
1.86684e-09
4.63458e-09
1.65259e-08
3.12987e-08
4.41257e-08
5.33572e-08
5.53118e-08
4.73692e-08
3.45829e-08
2.68008e-08
2.91121e-08
3.59053e-08
3.9419e-08
3.67718e-08
2.97586e-08
2.1632e-08
1.41837e-08
7.60917e-09
2.66797e-09
4.00452e-09
1.97263e-08
4.89767e-08
7.50955e-08
8.17242e-08
6.5142e-08
3.53541e-08
9.99891e-09
4.95884e-09
1.93287e-08
3.75666e-08
5.05906e-08
5.58241e-08
4.92249e-08
3.44195e-08
2.22637e-08
1.65704e-08
1.65523e-08
1.8507e-08
1.65914e-08
9.20755e-09
2.15356e-09
2.30785e-09
1.12481e-08
2.47942e-08
3.83938e-08
4.97922e-08
5.54724e-08
5.10847e-08
3.92002e-08
2.91354e-08
2.84531e-08
3.31807e-08
3.51749e-08
3.15458e-08
2.50453e-08
1.91126e-08
1.41733e-08
9.37407e-09
5.29135e-09
6.476e-09
2.10473e-08
5.00292e-08
7.77654e-08
8.62296e-08
7.12268e-08
4.2092e-08
1.46102e-08
3.30863e-09
1.15784e-08
2.78831e-08
4.19878e-08
5.13937e-08
5.10454e-08
4.01979e-08
2.80755e-08
2.07526e-08
1.86027e-08
1.86672e-08
1.62891e-08
9.06176e-09
2.63826e-09
1.20668e-09
6.76549e-09
1.75898e-08
3.05966e-08
4.29758e-08
5.11399e-08
5.03135e-08
4.12232e-08
3.12932e-08
2.85213e-08
3.22011e-08
3.38185e-08
2.94676e-08
2.23985e-08
1.67121e-08
1.31386e-08
1.02887e-08
8.19194e-09
9.93039e-09
2.17207e-08
4.62175e-08
7.2827e-08
8.3619e-08
7.23966e-08
4.69113e-08
2.00526e-08
4.47429e-09
5.68673e-09
1.81115e-08
3.23009e-08
4.42669e-08
4.88146e-08
4.30929e-08
3.31635e-08
2.48517e-08
2.04934e-08
1.86387e-08
1.54818e-08
9.41521e-09
4.2355e-09
1.87179e-09
4.05109e-09
1.13733e-08
2.27488e-08
3.47778e-08
4.37696e-08
4.54791e-08
3.96792e-08
3.1775e-08
2.86497e-08
3.16599e-08
3.42854e-08
3.12717e-08
2.42914e-08
1.7721e-08
1.33526e-08
1.02608e-08
8.75128e-09
1.08574e-08
2.01968e-08
3.95808e-08
6.34866e-08
7.68232e-08
7.05432e-08
4.95678e-08
2.51616e-08
7.73807e-09
3.45012e-09
1.1497e-08
2.44616e-08
3.68746e-08
4.4555e-08
4.35089e-08
3.65566e-08
2.82121e-08
2.21414e-08
1.86512e-08
1.49587e-08
1.03093e-08
6.71361e-09
4.27845e-09
3.8277e-09
7.45705e-09
1.60659e-08
2.67099e-08
3.49239e-08
3.76397e-08
3.46537e-08
2.99716e-08
2.835e-08
3.12372e-08
3.43809e-08
3.30411e-08
2.72704e-08
2.04773e-08
1.49767e-08
1.05907e-08
8.49808e-09
1.11608e-08
1.93069e-08
3.37092e-08
5.24421e-08
6.55569e-08
6.37234e-08
4.85436e-08
2.86947e-08
1.2055e-08
4.18698e-09
7.84076e-09
1.84528e-08
3.01043e-08
3.91746e-08
4.23893e-08
3.92816e-08
3.19958e-08
2.42909e-08
1.90177e-08
1.48078e-08
1.12745e-08
9.03016e-09
7.22676e-09
5.85677e-09
7.05513e-09
1.23256e-08
1.99834e-08
2.61185e-08
2.85684e-08
2.74319e-08
2.58844e-08
2.69069e-08
3.10395e-08
3.49465e-08
3.42985e-08
2.90263e-08
2.22197e-08
1.65001e-08
1.17415e-08
9.60167e-09
1.31068e-08
2.09243e-08
3.08656e-08
4.28789e-08
5.25825e-08
5.32306e-08
4.32741e-08
2.87687e-08
1.53071e-08
6.80441e-09
6.69201e-09
1.45756e-08
2.53749e-08
3.46906e-08
3.9836e-08
3.95404e-08
3.40646e-08
2.65884e-08
2.0289e-08
1.52667e-08
1.06432e-08
1.0299e-08
1.04867e-08
9.79889e-09
9.60413e-09
1.14694e-08
1.50844e-08
1.79772e-08
1.90344e-08
1.92839e-08
2.08753e-08
2.51262e-08
3.12608e-08
3.59142e-08
3.58235e-08
3.06603e-08
2.36853e-08
1.74146e-08
1.22559e-08
1.02453e-08
1.42544e-08
2.21264e-08
3.01876e-08
3.81741e-08
4.48321e-08
4.55971e-08
3.86059e-08
2.67542e-08
1.57632e-08
8.83732e-09
8.37076e-09
1.48724e-08
2.50242e-08
3.46655e-08
4.03554e-08
3.96473e-08
3.29484e-08
2.41965e-08
1.75462e-08
1.32004e-08
9.43564e-09
1.09661e-08
1.28557e-08
1.37339e-08
1.42735e-08
1.47683e-08
1.49775e-08
1.42167e-08
1.24837e-08
1.17437e-08
1.42077e-08
2.0411e-08
2.89753e-08
3.61571e-08
3.81204e-08
3.4719e-08
2.86838e-08
2.25724e-08
1.66859e-08
1.28254e-08
1.41357e-08
1.94766e-08
2.53841e-08
3.19138e-08
3.85509e-08
4.08974e-08
3.57821e-08
2.57501e-08
1.56862e-08
9.47141e-09
9.13439e-09
1.5134e-08
2.51888e-08
3.51477e-08
4.07427e-08
3.93161e-08
3.17505e-08
2.20676e-08
1.44186e-08
1.03362e-08
8.93677e-09
1.08154e-08
1.35199e-08
1.56198e-08
1.6983e-08
1.76332e-08
1.71553e-08
1.54936e-08
1.31573e-08
1.13013e-08
1.15261e-08
1.44687e-08
2.01168e-08
2.69071e-08
3.18315e-08
3.27817e-08
3.09919e-08
2.8902e-08
2.60853e-08
2.16109e-08
1.83276e-08
1.81847e-08
2.01107e-08
2.51344e-08
3.28221e-08
3.77404e-08
3.53134e-08
2.7064e-08
1.73294e-08
1.02586e-08
8.58119e-09
1.33429e-08
2.31828e-08
3.34927e-08
3.97181e-08
3.86945e-08
3.12885e-08
2.1683e-08
1.38141e-08
9.54898e-09
7.21821e-09
8.2648e-09
1.16978e-08
1.59888e-08
2.01167e-08
2.26259e-08
2.19698e-08
1.8778e-08
1.50082e-08
1.21475e-08
1.13763e-08
1.28904e-08
1.60995e-08
2.05291e-08
2.53457e-08
2.87088e-08
2.99255e-08
3.03899e-08
3.0011e-08
2.70337e-08
2.25571e-08
1.95152e-08
1.93692e-08
2.33816e-08
3.15288e-08
3.8219e-08
3.69034e-08
2.79513e-08
1.63349e-08
7.60465e-09
6.0057e-09
1.27457e-08
2.53744e-08
3.80792e-08
4.62334e-08
4.62262e-08
3.83909e-08
2.6968e-08
1.68152e-08
1.00701e-08
1.1594e-08
1.02933e-08
1.04771e-08
1.19534e-08
1.45758e-08
1.75167e-08
1.91533e-08
1.84676e-08
1.62293e-08
1.38924e-08
1.27101e-08
1.34001e-08
1.56408e-08
1.84325e-08
2.13686e-08
2.43415e-08
2.6815e-08
2.91366e-08
3.0763e-08
2.97975e-08
2.62681e-08
2.26433e-08
2.0865e-08
2.26878e-08
2.88133e-08
3.57429e-08
3.70172e-08
3.0262e-08
1.85092e-08
7.73997e-09
4.10627e-09
1.0589e-08
2.50297e-08
4.08974e-08
5.21065e-08
5.45816e-08
4.73375e-08
3.43857e-08
2.27748e-08
1.52754e-08
1.49272e-08
1.30887e-08
1.23542e-08
1.21503e-08
1.21344e-08
1.29737e-08
1.44234e-08
1.54203e-08
1.56367e-08
1.55779e-08
1.57415e-08
1.66032e-08
1.81452e-08
2.00237e-08
2.17831e-08
2.34236e-08
2.5046e-08
2.6478e-08
2.73986e-08
2.70276e-08
2.51219e-08
2.27477e-08
2.13267e-08
2.18114e-08
2.50829e-08
2.96845e-08
3.09845e-08
2.62534e-08
1.7591e-08
9.44852e-09
5.73616e-09
8.98507e-09
1.8987e-08
3.13378e-08
4.09035e-08
4.44712e-08
4.13564e-08
3.42954e-08
2.60111e-08
1.91122e-08
1.72225e-08
1.2521e-08
9.6201e-09
8.68865e-09
9.75645e-09
1.27336e-08
1.67502e-08
2.03173e-08
2.21631e-08
2.22515e-08
2.1422e-08
1.99634e-08
1.83444e-08
1.75703e-08
1.86057e-08
2.12431e-08
2.46563e-08
2.78409e-08
2.9646e-08
2.93105e-08
2.63052e-08
2.22526e-08
1.90675e-08
1.76419e-08
1.88647e-08
2.26623e-08
2.59495e-08
2.50515e-08
2.00636e-08
1.39666e-08
9.97881e-09
1.03615e-08
1.60069e-08
2.49332e-08
3.30772e-08
3.75386e-08
3.76387e-08
3.44334e-08
2.93993e-08
2.32667e-08
1.9591e-08
1.37974e-08
9.52383e-09
7.56612e-09
8.42651e-09
1.17612e-08
1.67542e-08
2.15832e-08
2.44842e-08
2.5376e-08
2.49254e-08
2.35818e-08
2.24019e-08
2.1628e-08
2.12735e-08
2.23297e-08
2.53404e-08
2.90267e-08
3.1692e-08
3.15832e-08
2.79034e-08
2.21396e-08
1.64634e-08
1.21789e-08
1.14852e-08
1.54025e-08
2.13105e-08
2.50777e-08
2.46881e-08
2.12271e-08
1.7329e-08
1.52353e-08
1.67138e-08
2.18556e-08
2.82229e-08
3.31967e-08
3.55719e-08
3.47832e-08
3.11835e-08
2.57167e-08
4.10103e-09
3.51777e-15
4.23859e-09
1.46097e-08
2.70607e-08
3.77253e-08
4.2608e-08
4.00431e-08
3.27763e-08
2.74331e-08
2.91475e-08
3.57598e-08
4.0572e-08
3.93186e-08
3.21585e-08
2.24304e-08
1.46456e-08
1.09622e-08
9.69631e-09
8.32666e-09
8.03918e-09
1.39147e-08
2.89933e-08
4.94004e-08
6.61944e-08
7.0299e-08
5.84974e-08
3.81012e-08
2.31776e-08
1.98635e-08
2.26657e-08
2.61938e-08
2.75192e-08
2.50589e-08
1.93722e-08
1.4349e-08
1.39035e-08
1.68771e-08
1.78033e-08
1.25565e-08
4.29141e-09
3.86711e-12
4.01503e-09
1.4203e-08
2.65643e-08
3.72674e-08
4.2276e-08
3.9827e-08
3.26134e-08
2.72824e-08
2.90405e-08
3.57537e-08
4.06671e-08
3.94683e-08
3.23192e-08
2.25696e-08
1.47519e-08
1.10331e-08
9.74218e-09
8.33932e-09
7.95436e-09
1.36324e-08
2.84636e-08
4.86988e-08
6.55468e-08
6.99793e-08
5.86038e-08
3.84521e-08
2.35007e-08
2.0088e-08
2.28303e-08
2.63681e-08
2.77913e-08
2.54563e-08
1.98072e-08
1.47046e-08
1.4147e-08
1.70837e-08
1.80462e-08
1.28203e-08
4.55876e-09
2.41086e-11
3.87044e-09
1.39963e-08
2.64202e-08
3.73142e-08
4.24956e-08
4.0058e-08
3.26822e-08
2.71547e-08
2.8874e-08
3.57218e-08
4.08027e-08
3.9698e-08
3.25618e-08
2.27711e-08
1.48884e-08
1.11169e-08
9.79837e-09
8.3479e-09
7.84451e-09
1.33512e-08
2.8039e-08
4.82389e-08
6.52297e-08
6.99749e-08
5.88949e-08
3.88138e-08
2.37217e-08
2.01861e-08
2.28347e-08
2.63755e-08
2.79774e-08
2.58902e-08
2.03428e-08
1.5119e-08
1.43949e-08
1.73367e-08
1.8437e-08
1.32568e-08
4.91665e-09
9.1836e-11
3.90454e-09
1.4136e-08
2.67822e-08
3.803e-08
4.34619e-08
4.09223e-08
3.31159e-08
2.71045e-08
2.86094e-08
3.55909e-08
4.09211e-08
3.9972e-08
3.2861e-08
2.30072e-08
1.50295e-08
1.11905e-08
9.84912e-09
8.34793e-09
7.7369e-09
1.31822e-08
2.7941e-08
4.83067e-08
6.54848e-08
7.03692e-08
5.92784e-08
3.89978e-08
2.3687e-08
2.01088e-08
2.26961e-08
2.6208e-08
2.79896e-08
2.62348e-08
2.08781e-08
1.55649e-08
1.46835e-08
1.77065e-08
1.9064e-08
1.39157e-08
5.47831e-09
2.76895e-10
4.15624e-09
1.46285e-08
2.76063e-08
3.938e-08
4.52322e-08
4.25716e-08
3.41331e-08
2.7334e-08
2.83337e-08
3.52946e-08
4.08676e-08
4.01272e-08
3.30909e-08
2.32028e-08
1.51511e-08
1.1252e-08
9.87949e-09
8.31913e-09
7.61985e-09
1.31151e-08
2.81341e-08
4.88389e-08
6.62545e-08
7.11733e-08
5.99323e-08
3.9257e-08
2.36149e-08
2.00391e-08
2.2617e-08
2.59938e-08
2.7768e-08
2.62659e-08
2.11687e-08
1.59336e-08
1.50719e-08
1.83432e-08
2.00908e-08
1.49588e-08
6.47165e-09
6.86483e-10
4.6295e-09
1.52842e-08
2.86266e-08
4.10795e-08
4.76341e-08
4.50008e-08
3.58723e-08
2.81606e-08
2.84115e-08
3.50236e-08
4.06232e-08
4.00276e-08
3.30814e-08
2.32323e-08
1.52014e-08
1.13081e-08
9.91803e-09
8.25269e-09
7.3962e-09
1.2896e-08
2.81408e-08
4.91434e-08
6.68824e-08
7.22371e-08
6.13897e-08
4.05443e-08
2.43867e-08
2.06237e-08
2.3133e-08
2.61664e-08
2.75184e-08
2.58921e-08
2.09521e-08
1.60187e-08
1.55798e-08
1.9447e-08
2.18068e-08
1.66836e-08
8.38847e-09
1.50206e-09
5.31662e-09
1.60621e-08
2.94448e-08
4.25837e-08
5.01952e-08
4.79057e-08
3.81203e-08
2.95432e-08
2.91377e-08
3.52553e-08
4.05766e-08
3.98477e-08
3.28314e-08
2.30024e-08
1.50855e-08
1.1321e-08
9.97496e-09
8.13378e-09
6.85858e-09
1.20517e-08
2.73906e-08
4.87573e-08
6.69962e-08
7.31606e-08
6.33752e-08
4.29965e-08
2.65193e-08
2.2661e-08
2.52317e-08
2.77362e-08
2.80409e-08
2.55682e-08
2.02561e-08
1.56161e-08
1.61106e-08
2.11957e-08
2.46086e-08
1.96423e-08
1.14787e-08
2.83771e-09
5.90173e-09
1.65313e-08
2.96808e-08
4.33305e-08
5.24391e-08
5.11958e-08
4.0925e-08
3.1013e-08
2.96262e-08
3.54694e-08
4.08544e-08
4.01187e-08
3.28418e-08
2.27446e-08
1.47704e-08
1.11671e-08
9.9734e-09
7.95476e-09
5.96075e-09
1.0412e-08
2.57505e-08
4.78229e-08
6.70038e-08
7.41856e-08
6.51992e-08
4.53093e-08
2.88925e-08
2.54358e-08
2.87109e-08
3.11144e-08
3.02369e-08
2.63971e-08
2.00435e-08
1.50955e-08
1.64923e-08
2.32373e-08
2.82322e-08
2.37626e-08
1.53337e-08
4.77095e-09
6.37195e-09
1.65442e-08
2.90759e-08
4.28821e-08
5.37656e-08
5.45343e-08
4.45831e-08
3.3184e-08
2.98855e-08
3.45963e-08
3.99266e-08
3.98665e-08
3.31976e-08
2.31777e-08
1.48419e-08
1.09245e-08
9.75997e-09
7.69508e-09
5.04765e-09
8.52147e-09
2.35014e-08
4.57969e-08
6.5244e-08
7.25535e-08
6.35693e-08
4.43348e-08
2.94954e-08
2.78017e-08
3.2547e-08
3.52801e-08
3.32926e-08
2.80793e-08
2.08385e-08
1.54748e-08
1.7239e-08
2.49787e-08
3.14868e-08
2.81165e-08
1.93639e-08
7.34545e-09
6.94188e-09
1.64186e-08
2.832e-08
4.15973e-08
5.3908e-08
5.73302e-08
4.88553e-08
3.62231e-08
3.06826e-08
3.35354e-08
3.80932e-08
3.83484e-08
3.27485e-08
2.38111e-08
1.5734e-08
1.12403e-08
9.5454e-09
7.39115e-09
4.56425e-09
7.47015e-09
2.20779e-08
4.41563e-08
6.26932e-08
6.85343e-08
5.79658e-08
3.85987e-08
2.65437e-08
2.85996e-08
3.62704e-08
4.05046e-08
3.80803e-08
3.11151e-08
2.23492e-08
1.62389e-08
1.8346e-08
2.66877e-08
3.40298e-08
3.1948e-08
2.30376e-08
1.02378e-08
7.39435e-09
1.55647e-08
2.73929e-08
4.02629e-08
5.32553e-08
5.91759e-08
5.295e-08
4.00301e-08
3.19725e-08
3.25623e-08
3.58404e-08
3.58276e-08
3.09926e-08
2.35408e-08
1.66049e-08
1.20951e-08
9.773e-09
7.27736e-09
4.64159e-09
7.89032e-09
2.28825e-08
4.49101e-08
6.1876e-08
6.48257e-08
5.14961e-08
3.11281e-08
2.10569e-08
2.68169e-08
3.83165e-08
4.55087e-08
4.44737e-08
3.70712e-08
2.66573e-08
1.85049e-08
1.9444e-08
2.73828e-08
3.48323e-08
3.42389e-08
2.50472e-08
1.23911e-08
7.03108e-09
1.28637e-08
2.45674e-08
3.78718e-08
5.12538e-08
5.94842e-08
5.57892e-08
4.3667e-08
3.37803e-08
3.1929e-08
3.38759e-08
3.3331e-08
2.86582e-08
2.23168e-08
1.67665e-08
1.29013e-08
1.03886e-08
7.72483e-09
5.6224e-09
9.96173e-09
2.60807e-08
4.87785e-08
6.45175e-08
6.46452e-08
4.88024e-08
2.68287e-08
1.62402e-08
2.24117e-08
3.61383e-08
4.66074e-08
4.88116e-08
4.33706e-08
3.30258e-08
2.34515e-08
2.25064e-08
2.87404e-08
3.46551e-08
3.44164e-08
2.49025e-08
1.31901e-08
5.93477e-09
8.83249e-09
1.94887e-08
3.31408e-08
4.65054e-08
5.61758e-08
5.58028e-08
4.61624e-08
3.62928e-08
3.27244e-08
3.34607e-08
3.21456e-08
2.6798e-08
2.06332e-08
1.62269e-08
1.34593e-08
1.13043e-08
8.93702e-09
7.75323e-09
1.28839e-08
2.9143e-08
5.17945e-08
6.71305e-08
6.59882e-08
4.91148e-08
2.7228e-08
1.4882e-08
1.7588e-08
2.96688e-08
4.18238e-08
4.78528e-08
4.65553e-08
3.9203e-08
3.00251e-08
2.6987e-08
3.05425e-08
3.38542e-08
3.27237e-08
2.294e-08
1.26718e-08
4.51848e-09
4.4939e-09
1.31774e-08
2.64172e-08
3.96246e-08
4.99518e-08
5.22766e-08
4.61865e-08
3.86845e-08
3.50372e-08
3.46683e-08
3.28371e-08
2.69636e-08
2.03279e-08
1.60955e-08
1.39453e-08
1.23368e-08
1.05946e-08
1.00814e-08
1.44849e-08
2.8093e-08
4.83683e-08
6.36243e-08
6.37168e-08
4.85043e-08
2.90652e-08
1.61731e-08
1.47243e-08
2.24082e-08
3.31257e-08
4.1144e-08
4.42491e-08
4.20488e-08
3.58127e-08
3.14386e-08
3.15603e-08
3.18857e-08
2.95226e-08
2.04504e-08
1.18658e-08
3.75752e-09
1.25201e-09
7.15234e-09
1.91198e-08
3.1889e-08
4.25779e-08
4.69377e-08
4.42484e-08
3.98631e-08
3.70202e-08
3.61984e-08
3.47163e-08
2.98279e-08
2.3289e-08
1.7704e-08
1.38182e-08
1.12095e-08
9.76712e-09
1.03783e-08
1.46484e-08
2.55004e-08
4.3046e-08
5.83662e-08
6.08266e-08
4.8322e-08
3.04583e-08
1.75413e-08
1.32689e-08
1.70302e-08
2.55209e-08
3.38738e-08
3.95778e-08
4.13528e-08
3.82915e-08
3.38356e-08
3.14103e-08
2.97028e-08
2.64785e-08
1.72741e-08
1.09312e-08
4.21906e-09
1.56443e-10
2.5109e-09
1.16017e-08
2.30732e-08
3.33255e-08
3.92062e-08
3.96934e-08
3.85668e-08
3.80096e-08
3.78007e-08
3.68435e-08
3.26765e-08
2.62535e-08
1.94219e-08
1.34634e-08
9.53555e-09
8.30156e-09
1.06409e-08
1.62684e-08
2.56569e-08
3.991e-08
5.4189e-08
5.82571e-08
4.79025e-08
3.16161e-08
1.88885e-08
1.26474e-08
1.36675e-08
2.06341e-08
2.91888e-08
3.66026e-08
4.10972e-08
4.04435e-08
3.53526e-08
3.02004e-08
2.65535e-08
2.25592e-08
1.53329e-08
1.07761e-08
5.77826e-09
2.00788e-09
2.25272e-09
6.99455e-09
1.40312e-08
2.10041e-08
2.63891e-08
2.95581e-08
3.28821e-08
3.73071e-08
4.05023e-08
4.03293e-08
3.58481e-08
2.85221e-08
2.06478e-08
1.41848e-08
9.75472e-09
8.2638e-09
1.12912e-08
1.81371e-08
2.68327e-08
3.75418e-08
4.85997e-08
5.25939e-08
4.42695e-08
3.02853e-08
1.90803e-08
1.28237e-08
1.22138e-08
1.78439e-08
2.63561e-08
3.44645e-08
4.01611e-08
4.09846e-08
3.63016e-08
2.97127e-08
2.4375e-08
1.98413e-08
1.40935e-08
1.20337e-08
9.40398e-09
6.94794e-09
6.55302e-09
8.28468e-09
1.06333e-08
1.25471e-08
1.4332e-08
1.75319e-08
2.4e-08
3.35743e-08
4.18416e-08
4.41468e-08
4.00891e-08
3.1504e-08
2.1784e-08
1.43761e-08
1.02677e-08
9.02198e-09
1.20286e-08
1.89595e-08
2.73032e-08
3.63338e-08
4.51351e-08
4.84215e-08
4.17045e-08
2.89846e-08
1.80845e-08
1.19968e-08
1.1454e-08
1.66462e-08
2.49744e-08
3.3152e-08
3.89047e-08
3.9778e-08
3.47467e-08
2.70559e-08
2.06574e-08
1.66086e-08
1.31853e-08
1.37138e-08
1.36039e-08
1.31735e-08
1.36335e-08
1.42765e-08
1.31832e-08
1.0476e-08
8.05474e-09
8.35333e-09
1.33053e-08
2.27537e-08
3.43104e-08
4.2328e-08
4.25271e-08
3.59933e-08
2.66946e-08
1.88026e-08
1.35251e-08
1.08094e-08
1.21328e-08
1.7652e-08
2.51024e-08
3.32878e-08
4.14791e-08
4.52753e-08
4.02505e-08
2.89971e-08
1.79583e-08
1.16621e-08
1.0838e-08
1.5507e-08
2.36336e-08
3.20508e-08
3.73824e-08
3.73868e-08
3.22301e-08
2.43387e-08
1.74237e-08
1.37987e-08
1.24519e-08
1.42464e-08
1.60052e-08
1.67373e-08
1.66908e-08
1.6087e-08
1.44807e-08
1.1845e-08
9.07338e-09
7.53324e-09
8.79787e-09
1.36785e-08
2.167e-08
2.99459e-08
3.49088e-08
3.45888e-08
3.05202e-08
2.586e-08
2.183e-08
1.74644e-08
1.43935e-08
1.49529e-08
1.92553e-08
2.66443e-08
3.5769e-08
4.18228e-08
3.96406e-08
3.04485e-08
1.99309e-08
1.28089e-08
1.13434e-08
1.56079e-08
2.32816e-08
3.08896e-08
3.50503e-08
3.39629e-08
2.85815e-08
2.12773e-08
1.5055e-08
1.22406e-08
1.04084e-08
1.21498e-08
1.48789e-08
1.75543e-08
1.98482e-08
2.08386e-08
1.89162e-08
1.48364e-08
1.07128e-08
8.02925e-09
7.55089e-09
9.76613e-09
1.42812e-08
2.03902e-08
2.63329e-08
3.02907e-08
3.18042e-08
3.16521e-08
2.97827e-08
2.52793e-08
1.98857e-08
1.74639e-08
1.94647e-08
2.50825e-08
3.2879e-08
3.83401e-08
3.62911e-08
2.74247e-08
1.7162e-08
1.03514e-08
9.98001e-09
1.61004e-08
2.56252e-08
3.43149e-08
3.85171e-08
3.68813e-08
3.07754e-08
2.28038e-08
1.55367e-08
1.11701e-08
1.37316e-08
1.37849e-08
1.42745e-08
1.51237e-08
1.63186e-08
1.7338e-08
1.70868e-08
1.49631e-08
1.22409e-08
1.02303e-08
9.65968e-09
1.06589e-08
1.27904e-08
1.54536e-08
1.86493e-08
2.21921e-08
2.58432e-08
2.91779e-08
3.14927e-08
3.13341e-08
2.86979e-08
2.61739e-08
2.56125e-08
2.68301e-08
3.03482e-08
3.36963e-08
3.26732e-08
2.60037e-08
1.66008e-08
9.12768e-09
7.63696e-09
1.35515e-08
2.40891e-08
3.46936e-08
4.11062e-08
4.07092e-08
3.47681e-08
2.67581e-08
1.94761e-08
1.50671e-08
1.55746e-08
1.46489e-08
1.46516e-08
1.4546e-08
1.44256e-08
1.45801e-08
1.45651e-08
1.39382e-08
1.27602e-08
1.21234e-08
1.28746e-08
1.49431e-08
1.74457e-08
1.92851e-08
1.99438e-08
1.99946e-08
2.04487e-08
2.16954e-08
2.3414e-08
2.45073e-08
2.42928e-08
2.35319e-08
2.37373e-08
2.52976e-08
2.81541e-08
3.11908e-08
3.12872e-08
2.62696e-08
1.80694e-08
1.0962e-08
8.49428e-09
1.20426e-08
2.03046e-08
2.98295e-08
3.64556e-08
3.79411e-08
3.48347e-08
2.95615e-08
2.36748e-08
1.8623e-08
1.73622e-08
1.40895e-08
1.20546e-08
1.0968e-08
1.10116e-08
1.22124e-08
1.43597e-08
1.65629e-08
1.79542e-08
1.84309e-08
1.84175e-08
1.82346e-08
1.82085e-08
1.84662e-08
1.94363e-08
2.11057e-08
2.32006e-08
2.50779e-08
2.59483e-08
2.53657e-08
2.32726e-08
2.08116e-08
1.94974e-08
1.97383e-08
2.13093e-08
2.38802e-08
2.57256e-08
2.41962e-08
1.93427e-08
1.40744e-08
1.14111e-08
1.27545e-08
1.81174e-08
2.57177e-08
3.21982e-08
3.51284e-08
3.43958e-08
3.13379e-08
2.70679e-08
2.20679e-08
1.96856e-08
1.41347e-08
9.75671e-09
7.47206e-09
7.91709e-09
1.07175e-08
1.51555e-08
1.97777e-08
2.29511e-08
2.42209e-08
2.41776e-08
2.35253e-08
2.2794e-08
2.21793e-08
2.17351e-08
2.23362e-08
2.45704e-08
2.73607e-08
2.91999e-08
2.89102e-08
2.58443e-08
2.09153e-08
1.62888e-08
1.35087e-08
1.35242e-08
1.67793e-08
2.13235e-08
2.37877e-08
2.30153e-08
2.0313e-08
1.76941e-08
1.65305e-08
1.78894e-08
2.18119e-08
2.65095e-08
3.01895e-08
3.20686e-08
3.19514e-08
2.96182e-08
2.5268e-08
5.3483e-09
2.55672e-09
2.01312e-09
5.12352e-09
1.2144e-08
2.17111e-08
3.00853e-08
3.32057e-08
2.99793e-08
2.44668e-08
2.27524e-08
2.63327e-08
3.09434e-08
3.18839e-08
2.79626e-08
2.14116e-08
1.60618e-08
1.36063e-08
1.25033e-08
1.13551e-08
1.14328e-08
1.62775e-08
2.80452e-08
4.36954e-08
5.67384e-08
6.18068e-08
5.71094e-08
4.47806e-08
3.15603e-08
2.48409e-08
2.50977e-08
2.84658e-08
3.05144e-08
2.89244e-08
2.40328e-08
1.81609e-08
1.42457e-08
1.26248e-08
1.0972e-08
8.41764e-09
5.43073e-09
2.54929e-09
1.92049e-09
4.95651e-09
1.19121e-08
2.14535e-08
2.98803e-08
3.31134e-08
2.99955e-08
2.45342e-08
2.28193e-08
2.63859e-08
3.09984e-08
3.19451e-08
2.80154e-08
2.14491e-08
1.60769e-08
1.36127e-08
1.25055e-08
1.13369e-08
1.13681e-08
1.61332e-08
2.78008e-08
4.33407e-08
5.63105e-08
6.13874e-08
5.67699e-08
4.45215e-08
3.13113e-08
2.45426e-08
2.48124e-08
2.83698e-08
3.07512e-08
2.94547e-08
2.46862e-08
1.87581e-08
1.46951e-08
1.29536e-08
1.1217e-08
8.57808e-09
5.43112e-09
2.47429e-09
1.78853e-09
4.79871e-09
1.17574e-08
2.13676e-08
2.9935e-08
3.3301e-08
3.02108e-08
2.46627e-08
2.28378e-08
2.63724e-08
3.10295e-08
3.20345e-08
2.81308e-08
2.15418e-08
1.61347e-08
1.3655e-08
1.25343e-08
1.13232e-08
1.12768e-08
1.59471e-08
2.75593e-08
4.31039e-08
5.61126e-08
6.12639e-08
5.67153e-08
4.44533e-08
3.10641e-08
2.40597e-08
2.42193e-08
2.79769e-08
3.08797e-08
3.01158e-08
2.56442e-08
1.96786e-08
1.53498e-08
1.33478e-08
1.14305e-08
8.65886e-09
5.32844e-09
2.31625e-09
1.61286e-09
4.65621e-09
1.16997e-08
2.14997e-08
3.03163e-08
3.38209e-08
3.06265e-08
2.47955e-08
2.2729e-08
2.62275e-08
3.10021e-08
3.21409e-08
2.83175e-08
2.17374e-08
1.62934e-08
1.37899e-08
1.26294e-08
1.13384e-08
1.11978e-08
1.58121e-08
2.74895e-08
4.32045e-08
5.63651e-08
6.1608e-08
5.70392e-08
4.46248e-08
3.08741e-08
2.34725e-08
2.336e-08
2.72168e-08
3.07456e-08
3.07416e-08
2.67911e-08
2.09117e-08
1.62855e-08
1.38947e-08
1.1656e-08
8.65363e-09
5.15432e-09
2.10689e-09
1.41612e-09
4.52072e-09
1.16949e-08
2.17844e-08
3.09665e-08
3.4625e-08
3.11988e-08
2.4879e-08
2.2414e-08
2.58312e-08
3.07666e-08
3.21071e-08
2.848e-08
2.19912e-08
1.65867e-08
1.40829e-08
1.28451e-08
1.14046e-08
1.11365e-08
1.57656e-08
2.76903e-08
4.37759e-08
5.72342e-08
6.25674e-08
5.78594e-08
4.51524e-08
3.0922e-08
2.30503e-08
2.24916e-08
2.61922e-08
3.02331e-08
3.10857e-08
2.78861e-08
2.23668e-08
1.75991e-08
1.47639e-08
1.20221e-08
8.6209e-09
4.97069e-09
1.90092e-09
1.23523e-09
4.38014e-09
1.16748e-08
2.21287e-08
3.18105e-08
3.56877e-08
3.19483e-08
2.49631e-08
2.19101e-08
2.50866e-08
3.00994e-08
3.16692e-08
2.8294e-08
2.21134e-08
1.69713e-08
1.45715e-08
1.32337e-08
1.15475e-08
1.10101e-08
1.55298e-08
2.77395e-08
4.44793e-08
5.86356e-08
6.43587e-08
5.96657e-08
4.65729e-08
3.16965e-08
2.32714e-08
2.21288e-08
2.52957e-08
2.94623e-08
3.10068e-08
2.86675e-08
2.38755e-08
1.93445e-08
1.61739e-08
1.27504e-08
8.6897e-09
4.89892e-09
1.7782e-09
1.12995e-09
4.24336e-09
1.15006e-08
2.22499e-08
3.26077e-08
3.69294e-08
3.29742e-08
2.52676e-08
2.14775e-08
2.41451e-08
2.89074e-08
3.04513e-08
2.73829e-08
2.1821e-08
1.72985e-08
1.52174e-08
1.38234e-08
1.18058e-08
1.07448e-08
1.46896e-08
2.67243e-08
4.40227e-08
5.94716e-08
6.67052e-08
6.30013e-08
4.98752e-08
3.41369e-08
2.49379e-08
2.3083e-08
2.53256e-08
2.90432e-08
3.0787e-08
2.90965e-08
2.53188e-08
2.16026e-08
1.84106e-08
1.419e-08
9.12662e-09
5.1952e-09
1.86895e-09
1.17544e-09
4.16168e-09
1.11244e-08
2.18126e-08
3.27841e-08
3.78136e-08
3.40519e-08
2.59534e-08
2.14336e-08
2.33766e-08
2.76147e-08
2.89287e-08
2.60309e-08
2.13109e-08
1.77176e-08
1.60572e-08
1.4574e-08
1.21502e-08
1.03059e-08
1.31141e-08
2.43813e-08
4.19909e-08
5.90109e-08
6.86751e-08
6.70961e-08
5.46959e-08
3.82755e-08
2.795e-08
2.53119e-08
2.66401e-08
2.97522e-08
3.14546e-08
3.00328e-08
2.71224e-08
2.4509e-08
2.17407e-08
1.67917e-08
1.03747e-08
6.24102e-09
2.22878e-09
1.39763e-09
4.2069e-09
1.07194e-08
2.09581e-08
3.21889e-08
3.79199e-08
3.46508e-08
2.65664e-08
2.1546e-08
2.25227e-08
2.58693e-08
2.68722e-08
2.45005e-08
2.11176e-08
1.90686e-08
1.79627e-08
1.60529e-08
1.28313e-08
9.85231e-09
1.10198e-08
2.10121e-08
3.86762e-08
5.71396e-08
6.89839e-08
6.93649e-08
5.81893e-08
4.22776e-08
3.13812e-08
2.75686e-08
2.76812e-08
3.03733e-08
3.27352e-08
3.22582e-08
3.05779e-08
2.90609e-08
2.64312e-08
2.07861e-08
1.28923e-08
8.37914e-09
2.992e-09
1.52542e-09
4.25767e-09
1.04129e-08
1.99263e-08
3.10286e-08
3.7253e-08
3.44619e-08
2.65901e-08
2.13197e-08
2.12667e-08
2.343e-08
2.39779e-08
2.23669e-08
2.10933e-08
2.12539e-08
2.10829e-08
1.87717e-08
1.45794e-08
1.02668e-08
9.41745e-09
1.73915e-08
3.43215e-08
5.3507e-08
6.68102e-08
6.8368e-08
5.80136e-08
4.33546e-08
3.34069e-08
2.92375e-08
2.78818e-08
2.98581e-08
3.29932e-08
3.42719e-08
3.49214e-08
3.5585e-08
3.30892e-08
2.61282e-08
1.66534e-08
1.1464e-08
4.45422e-09
1.42149e-09
3.77308e-09
1.00527e-08
1.93101e-08
3.02617e-08
3.65802e-08
3.37537e-08
2.57164e-08
2.01533e-08
1.95895e-08
2.129e-08
2.1839e-08
2.09487e-08
2.10843e-08
2.28602e-08
2.35802e-08
2.14053e-08
1.69102e-08
1.19202e-08
9.44434e-09
1.49177e-08
2.99399e-08
4.8606e-08
6.24777e-08
6.4594e-08
5.48357e-08
4.1486e-08
3.29817e-08
2.9619e-08
2.75171e-08
2.82902e-08
3.18722e-08
3.47758e-08
3.78232e-08
4.13486e-08
3.99047e-08
3.20075e-08
2.11103e-08
1.45611e-08
6.41148e-09
1.59495e-09
2.28442e-09
8.58672e-09
1.83593e-08
2.99652e-08