/*--------------------------------*- C++ -*----------------------------------*\
| =========                 |                                                 |
| \\      /  F ield         | OpenFOAM: The Open Source CFD Toolbox           |
|  \\    /   O peration     | Version:  2306                                  |
|   \\  /    A nd           | Website:  www.openfoam.com                      |
|    \\/     M anipulation  |                                                 |
\*---------------------------------------------------------------------------*/
FoamFile
{
    version     2.0;
    format      ascii;
    arch        "LSB;label=32;scalar=64";
    class       volVectorField;
    location    "7.5";
    object      U;
}
// * * * * * * * * * * * * * * * * * * * * * * * * * * * * * * * * * * * * * //

dimensions      [0 1 -1 0 0 0 0];

internalField   nonuniform List<vector> 
60000
(
(0.00700339 3.39701e-05 -1.37803e-05)
(0.00751147 3.29085e-05 0.000187075)
(0.00814045 2.69288e-05 0.00048734)
(0.00877435 2.84148e-05 0.00100843)
(0.00920909 3.44355e-05 0.00167128)
(0.00925565 3.8254e-05 0.00229188)
(0.00892923 3.47417e-05 0.00267112)
(0.0084856 2.40981e-05 0.00270471)
(0.00814848 1.56485e-05 0.00243621)
(0.00793199 1.1193e-05 0.00199911)
(0.00776975 7.65312e-06 0.00155631)
(0.00757905 1.95858e-06 0.0012524)
(0.00727828 -4.49444e-06 0.00112612)
(0.00680897 -8.93825e-06 0.00112017)
(0.00620901 -6.41343e-06 0.0011601)
(0.0056662 -2.05879e-06 0.00117884)
(0.0053641 6.63594e-07 0.00113225)
(0.00532612 -1.96871e-06 0.000959498)
(0.00545184 -9.41156e-06 0.000668498)
(0.00562091 -1.58789e-05 0.000370889)
(0.0058017 -1.41518e-05 0.000144558)
(0.00605242 -7.84084e-06 -4.6135e-05)
(0.00637897 6.68681e-07 -0.000204388)
(0.00671383 1.71512e-05 -0.000277642)
(0.00701097 2.74916e-05 -0.000300324)
(0.00726922 2.59985e-05 -0.000407538)
(0.00753412 1.13398e-05 -0.000749292)
(0.00787378 -1.29585e-05 -0.00136863)
(0.0082709 -3.13647e-05 -0.00202992)
(0.00852354 -3.14675e-05 -0.00239585)
(0.00844321 -2.10541e-05 -0.00244533)
(0.0080369 -6.9824e-06 -0.00243121)
(0.00742259 9.45173e-06 -0.00242996)
(0.00675334 1.59501e-05 -0.00231189)
(0.0061946 9.84299e-06 -0.00212573)
(0.00588028 3.6591e-06 -0.00195889)
(0.00586049 3.42928e-06 -0.00172623)
(0.00606661 4.37529e-06 -0.00132434)
(0.00635001 1.52638e-05 -0.000799801)
(0.0066406 2.47825e-05 -0.000321643)
(0.0210267 0.00015328 -5.76335e-05)
(0.0227144 0.000122322 0.000536927)
(0.0246285 0.00010353 0.00146834)
(0.0264795 0.000142274 0.00293399)
(0.0278191 0.000213539 0.00466852)
(0.0281551 0.000262516 0.00618021)
(0.0273797 0.000248931 0.00701745)
(0.0260822 0.000179636 0.0069867)
(0.0249811 0.000111861 0.00623663)
(0.024275 7.06699e-05 0.00512579)
(0.0238073 4.80679e-05 0.00404621)
(0.0232791 2.62771e-05 0.00329099)
(0.0223881 1.49702e-06 0.00293332)
(0.020993 -1.9149e-05 0.00288944)
(0.0192859 -4.16687e-05 0.00300473)
(0.0177619 -8.04781e-05 0.00306851)
(0.0168279 -0.000123984 0.00290156)
(0.0165262 -0.000158627 0.00240645)
(0.0166396 -0.000173507 0.00169386)
(0.0169279 -0.000161161 0.00100704)
(0.0173512 -0.000119899 0.000458461)
(0.0180036 -5.87295e-05 -1.32162e-05)
(0.0188573 1.28442e-05 -0.000390654)
(0.0197961 8.36484e-05 -0.00058833)
(0.0207853 9.63072e-05 -0.000715514)
(0.0218551 2.61857e-05 -0.00108846)
(0.0230802 -0.000117297 -0.00204461)
(0.0244792 -0.000267328 -0.00360988)
(0.0257805 -0.00031596 -0.0052132)
(0.0263862 -0.000220803 -0.00614009)
(0.025922 -6.69229e-05 -0.00637403)
(0.0245918 6.56487e-05 -0.00635761)
(0.0228654 0.000132783 -0.00618689)
(0.021138 0.000104339 -0.00581759)
(0.0196115 1.59777e-05 -0.0054825)
(0.0184746 -4.35775e-05 -0.00518529)
(0.0179745 -4.42073e-05 -0.00455547)
(0.0181609 3.29985e-07 -0.00340938)
(0.0188025 7.95789e-05 -0.00201366)
(0.0197341 0.000136596 -0.000821799)
(0.0348466 0.000297585 -0.000638865)
(0.0377657 0.000206291 0.000262347)
(0.0410386 0.000161447 0.00170037)
(0.0442603 0.000256509 0.00396489)
(0.0468522 0.000414251 0.00662913)
(0.0480127 0.000521021 0.00894502)
(0.0472276 0.000503689 0.0102862)
(0.0451205 0.000375389 0.010381)
(0.0430101 0.00023793 0.00940617)
(0.0415974 0.00014384 0.00787637)
(0.0407681 8.91604e-05 0.00635535)
(0.0399888 4.21748e-05 0.00520237)
(0.0386907 -8.96633e-06 0.00450574)
(0.0366059 -5.32199e-05 0.00425982)
(0.0339784 -0.000120468 0.00437874)
(0.0314391 -0.000234322 0.00455396)
(0.0295608 -0.000356555 0.0043911)
(0.0285445 -0.000441285 0.00371041)
(0.0282474 -0.000459616 0.00272471)
(0.0284012 -0.00040563 0.00178536)
(0.028922 -0.000291916 0.00102276)
(0.0298641 -0.000128654 0.000352408)
(0.0311565 5.17024e-05 -0.000187657)
(0.0326829 0.000179217 -0.000469435)
(0.0344536 0.000139429 -0.000609708)
(0.0365095 -0.000105843 -0.00103961)
(0.0389022 -0.000503703 -0.00228387)
(0.0415823 -0.000866708 -0.00448144)
(0.0440356 -0.000939918 -0.0069296)
(0.0452401 -0.000651355 -0.00859947)
(0.0446083 -0.000224561 -0.00929495)
(0.0425568 0.000124732 -0.00940848)
(0.0399365 0.000268681 -0.00905591)
(0.0373536 0.000177764 -0.00842858)
(0.0349073 -2.78095e-05 -0.00804086)
(0.0326563 -0.000144483 -0.00785564)
(0.0310308 -0.00012512 -0.00716383)
(0.0305259 -2.35521e-06 -0.00557819)
(0.031143 0.000174082 -0.00353059)
(0.0326074 0.00029306 -0.00176857)
(0.0476228 0.000381404 -0.00230915)
(0.0516467 0.000168754 -0.00132111)
(0.0562896 4.53872e-05 0.000353474)
(0.0610612 0.000214105 0.00320776)
(0.0653749 0.000485636 0.00675538)
(0.0681459 0.000678025 0.0100138)
(0.068171 0.000700379 0.0121669)
(0.0656024 0.000560621 0.0128027)
(0.0622683 0.000377066 0.0119956)
(0.0598043 0.000222719 0.0103448)
(0.0584646 0.000119474 0.00860863)
(0.0575304 3.98707e-05 0.00718545)
(0.0561188 -2.99806e-05 0.006084)
(0.053755 -8.97628e-05 0.00539294)
(0.0505848 -0.000198524 0.00530202)
(0.0471389 -0.000398849 0.00560156)
(0.0439766 -0.000628077 0.00564435)
(0.0415664 -0.000800491 0.00497942)
(0.0401776 -0.000852552 0.00385394)
(0.0397375 -0.000766604 0.00278289)
(0.0400879 -0.000564681 0.00193942)
(0.0411376 -0.000260808 0.00119036)
(0.0427405 7.03093e-05 0.000579087)
(0.0447791 0.000259411 0.000319391)
(0.0473053 0.000101062 0.000379082)
(0.0503192 -0.000427065 0.000283358)
(0.0537832 -0.00123666 -0.000698168)
(0.0576997 -0.00193732 -0.00305675)
(0.0616047 -0.00204626 -0.00629995)
(0.0640489 -0.00145943 -0.00911112)
(0.0639541 -0.000613035 -0.0108168)
(0.0617589 8.35292e-05 -0.0115146)
(0.0586599 0.000380263 -0.0112192)
(0.0555177 0.000233307 -0.0103117)
(0.0523599 -0.000113662 -0.00977048)
(0.0489571 -0.000301359 -0.00981408)
(0.0456237 -0.000263995 -0.00949713)
(0.0434174 -6.34182e-05 -0.00802818)
(0.0431535 0.000222484 -0.00574152)
(0.04468 0.000413278 -0.00363753)
(0.0585054 0.000297736 -0.00545836)
(0.0630383 -0.000125583 -0.00480868)
(0.0687143 -0.00047088 -0.00336097)
(0.0750357 -0.000324659 -0.000330773)
(0.0814755 0.000200713 0.00398372)
(0.0868126 0.00056727 0.00847274)
(0.0889622 0.000707566 0.0119945)
(0.086946 0.000646097 0.0138361)
(0.0825536 0.000490578 0.0137719)
(0.0786629 0.000295823 0.0123477)
(0.076514 0.000130709 0.0106424)
(0.0754341 6.70066e-06 0.00924075)
(0.0741927 -7.97587e-05 0.00792393)
(0.0720217 -0.000132474 0.00664007)
(0.0688644 -0.000243448 0.00596733)
(0.0649812 -0.000487662 0.00617816)
(0.0605946 -0.000803358 0.0065516)
(0.056208 -0.00109572 0.00614545)
(0.0527529 -0.001265 0.00501218)
(0.0508562 -0.00123118 0.00389339)
(0.0504869 -0.000976326 0.00311175)
(0.0513202 -0.000509801 0.00246286)
(0.0530138 2.84864e-05 0.00194306)
(0.0553581 0.000302036 0.00187518)
(0.058391 -2.02937e-05 0.00238793)
(0.0619845 -0.000973733 0.00304578)
(0.0658327 -0.00241577 0.00302395)
(0.0701516 -0.00372452 0.00140552)
(0.0754775 -0.0040018 -0.00210103)
(0.0803362 -0.00294208 -0.00640837)
(0.0823 -0.00142269 -0.0100462)
(0.0812028 -0.000202195 -0.0122894)
(0.0784339 0.000396817 -0.0127327)
(0.0751918 0.000262655 -0.0117219)
(0.071672 -0.000214573 -0.0108275)
(0.0674947 -0.000480463 -0.0109421)
(0.0625145 -0.000430355 -0.0111762)
(0.0578267 -0.000185735 -0.0103508)
(0.0553215 0.000165821 -0.00847454)
(0.0557078 0.000407051 -0.00656346)
(0.0679689 1.27636e-05 -0.00956039)
(0.0714436 -0.000764798 -0.00993486)
(0.076773 -0.00157956 -0.00941444)
(0.0835091 -0.0017482 -0.00710368)
(0.0915699 -0.0011268 -0.00294515)
(0.100359 -0.000306848 0.00263784)
(0.106677 0.00029208 0.00831689)
(0.107311 0.000501156 0.0124689)
(0.102994 0.000508832 0.0141484)
(0.0976337 0.000340701 0.0135111)
(0.0942943 0.000112601 0.0120295)
(0.0929533 -7.67337e-05 0.0109655)
(0.0920478 -0.00018918 0.00998165)
(0.090427 -0.000216876 0.00837804)
(0.0878415 -0.000272378 0.00680327)
(0.0843271 -0.000471336 0.00641572)
(0.0795428 -0.00077678 0.00695973)
(0.073391 -0.00114064 0.00700795)
(0.0670822 -0.0014971 0.00603984)
(0.0624082 -0.00168141 0.0048949)
(0.0602109 -0.00150907 0.0042293)
(0.0601668 -0.000906543 0.00384087)
(0.0615539 -9.80246e-05 0.0036029)
(0.063841 0.000330621 0.00388918)
(0.0669492 -0.000181523 0.0049642)
(0.0706472 -0.00174267 0.00644751)
(0.074069 -0.00404606 0.00764018)
(0.0768915 -0.00627782 0.00771682)
(0.0814257 -0.0071382 0.00565434)
(0.0890107 -0.00586321 0.000976498)
(0.095809 -0.00328794 -0.00521423)
(0.0984412 -0.00101041 -0.0105281)
(0.097687 0.00017831 -0.0130805)
(0.0952307 0.000220071 -0.0127325)
(0.0917933 -0.000308875 -0.0115331)
(0.0874053 -0.000632373 -0.011416)
(0.0816003 -0.000555876 -0.011981)
(0.0748209 -0.000275584 -0.0118448)
(0.0693138 6.93078e-05 -0.0107736)
(0.0669986 0.000277769 -0.00971779)
(0.0795151 -0.000333617 -0.0125235)
(0.0801872 -0.00170473 -0.0145439)
(0.0827478 -0.00321701 -0.015704)
(0.0871423 -0.00391677 -0.0149443)
(0.0933247 -0.00358411 -0.0124642)
(0.102819 -0.00264357 -0.00785615)
(0.114786 -0.00148215 -0.000766482)
(0.122216 -0.000382943 0.00684211)
(0.121131 0.000225763 0.0119431)
(0.115381 0.000297534 0.0132946)
(0.110701 6.52656e-05 0.0123255)
(0.108978 -0.000222032 0.011599)
(0.108538 -0.000404953 0.011527)
(0.107604 -0.000402273 0.0105134)
(0.105844 -0.000355191 0.00828199)
(0.103445 -0.000424855 0.00673803)
(0.0996864 -0.000588707 0.00689031)
(0.0932851 -0.000868198 0.00733507)
(0.0846128 -0.00132726 0.00674551)
(0.0761725 -0.00184027 0.00564333)
(0.0704813 -0.0019806 0.00502359)
(0.0682701 -0.00137759 0.00488152)
(0.0686676 -0.000277293 0.00495109)
(0.0705529 0.000381294 0.00553855)
(0.0735692 -0.000335717 0.00697254)
(0.077516 -0.00255327 0.00887508)
(0.0812046 -0.00568191 0.0106073)
(0.0826993 -0.00879339 0.0119583)
(0.083164 -0.0105723 0.0125907)
(0.0882389 -0.00983588 0.010646)
(0.0987484 -0.00679501 0.00448006)
(0.108514 -0.00314106 -0.00419045)
(0.11323 -0.000672857 -0.010706)
(0.11349 -1.60075e-05 -0.0126884)
(0.110786 -0.000406046 -0.0119889)
(0.106551 -0.000700368 -0.0115801)
(0.100957 -0.000573959 -0.0120976)
(0.0936138 -0.000275397 -0.0122876)
(0.086185 7.23766e-05 -0.0117365)
(0.0812296 0.000208694 -0.011465)
(0.0955309 -0.000333669 -0.0124356)
(0.0940597 -0.00233457 -0.0158344)
(0.0923153 -0.00477864 -0.0193315)
(0.0918803 -0.00621118 -0.0207648)
(0.0936365 -0.00628665 -0.0200546)
(0.0987 -0.00573879 -0.0173888)
(0.110182 -0.00473048 -0.0118245)
(0.12481 -0.00287448 -0.00303092)
(0.131818 -0.00107022 0.0059634)
(0.128856 -0.000254047 0.0109332)
(0.123529 -0.000163929 0.0113286)
(0.121578 -0.000406003 0.0105898)
(0.122152 -0.000720332 0.0112766)
(0.122181 -0.000794964 0.0118766)
(0.120971 -0.000613101 0.0102241)
(0.119715 -0.000442924 0.00761611)
(0.11822 -0.000400619 0.00666941)
(0.114026 -0.000465079 0.00705192)
(0.105412 -0.000787826 0.00689028)
(0.0940477 -0.00148692 0.00603503)
(0.0837209 -0.00207243 0.00549417)
(0.0774643 -0.00171983 0.00550757)
(0.075675 -0.000433269 0.0057405)
(0.0768543 0.000529334 0.0064092)
(0.0798879 -0.000183265 0.00794825)
(0.0843346 -0.00276202 0.00999077)
(0.0893015 -0.00635817 0.0115821)
(0.0922878 -0.00988455 0.0126809)
(0.090762 -0.0124806 0.0146355)
(0.089 -0.0129598 0.0166803)
(0.0951423 -0.0106037 0.0144674)
(0.108135 -0.00651419 0.00618652)
(0.120468 -0.0026437 -0.00392013)
(0.12661 -0.000806928 -0.010033)
(0.126051 -0.000741559 -0.0115843)
(0.122049 -0.000876838 -0.0114808)
(0.117198 -0.000508221 -0.0116638)
(0.110959 1.07387e-05 -0.0117535)
(0.103775 0.00038215 -0.0112317)
(0.098206 0.000447448 -0.0109997)
(0.112114 0.000277267 -0.00901161)
(0.111867 -0.00186698 -0.0126412)
(0.107971 -0.00502678 -0.0181924)
(0.101858 -0.00749437 -0.0226671)
(0.0982988 -0.00821749 -0.0242512)
(0.0983778 -0.00823099 -0.0229308)
(0.104226 -0.00813472 -0.018772)
(0.118155 -0.00666686 -0.0115493)
(0.132651 -0.00377173 -0.00174546)
(0.135947 -0.00162548 0.00651911)
(0.130701 -0.00106515 0.00927817)
(0.127699 -0.00109856 0.00833337)
(0.130182 -0.00118118 0.00859272)
(0.132802 -0.0012215 0.0106775)
(0.131893 -0.00112064 0.011059)
(0.13018 -0.000869605 0.00870516)
(0.130789 -0.000517539 0.00660601)
(0.131205 -0.000169913 0.00634316)
(0.126572 -0.000193711 0.00636636)
(0.115709 -0.000748325 0.00584515)
(0.101876 -0.00157667 0.00556978)
(0.090245 -0.00164696 0.00586722)
(0.0843421 -0.000445608 0.0063256)
(0.0837639 0.000750127 0.00704223)
(0.0865325 0.000199383 0.00839076)
(0.0913745 -0.0024663 0.00999708)
(0.0972374 -0.00623532 0.0110098)
(0.102278 -0.00965481 0.0113533)
(0.102967 -0.0121715 0.0130031)
(0.0982911 -0.0136739 0.0172666)
(0.0962103 -0.0130689 0.0197943)
(0.10451 -0.00994409 0.0152399)
(0.119976 -0.00571348 0.00507188)
(0.132715 -0.0023593 -0.00448983)
(0.134144 -0.000938043 -0.00950049)
(0.126953 -0.00066871 -0.0105138)
(0.120519 -0.000557319 -0.0099139)
(0.117602 -9.9517e-05 -0.00925112)
(0.115116 0.000527373 -0.00858919)
(0.11267 0.000893062 -0.00810662)
(0.120217 0.000678179 -0.00208492)
(0.125427 -0.000741565 -0.00540231)
(0.124905 -0.00358569 -0.0123513)
(0.116525 -0.00675621 -0.0199319)
(0.107408 -0.00847367 -0.0248826)
(0.103381 -0.00898313 -0.0258911)
(0.104534 -0.00987017 -0.0228391)
(0.112237 -0.0100571 -0.0167354)
(0.126879 -0.00767307 -0.00813512)
(0.138548 -0.00386287 0.00122322)
(0.13785 -0.00199922 0.00658312)
(0.131418 -0.00228563 0.00620415)
(0.131102 -0.0026741 0.00490798)
(0.137255 -0.0020275 0.0068246)
(0.139838 -0.00104271 0.00929158)
(0.135887 -0.000803254 0.0087027)
(0.133233 -0.00116364 0.00650554)
(0.136806 -0.00109679 0.00553459)
(0.140565 -0.000477244 0.00550016)
(0.136457 -0.000208581 0.00520317)
(0.123804 -0.000668033 0.00508865)
(0.108097 -0.000896299 0.00580046)
(0.0964935 -4.79211e-05 0.00693436)
(0.0922618 0.00100271 0.00801187)
(0.0939618 0.000419968 0.00883327)
(0.0992404 -0.00237156 0.00899608)
(0.105971 -0.00610024 0.00848129)
(0.11211 -0.00916914 0.00784593)
(0.1148 -0.0109222 0.00908041)
(0.111468 -0.0120776 0.0142823)
(0.104914 -0.0130116 0.0202795)
(0.105141 -0.0122777 0.0198756)
(0.116954 -0.00914015 0.0114306)
(0.131289 -0.0045159 0.000449496)
(0.13412 -0.000698135 -0.00720837)
(0.124364 0.000771289 -0.00930534)
(0.11404 0.000285413 -0.00738772)
(0.110588 -0.000287659 -0.00461344)
(0.112131 5.7185e-05 -0.00282518)
(0.11534 0.000716916 -0.00187646)
(0.116671 0.000300459 0.00632936)
(0.126758 -0.000296932 0.00442765)
(0.134512 -0.00178069 -0.00322831)
(0.130854 -0.00435172 -0.0135402)
(0.119316 -0.00694058 -0.0218825)
(0.110596 -0.00831225 -0.026329)
(0.109007 -0.00956163 -0.025839)
(0.112604 -0.0111478 -0.0209993)
(0.121308 -0.0110369 -0.0135045)
(0.134498 -0.00781398 -0.00458558)
(0.143261 -0.00380416 0.00269821)
(0.140862 -0.0025958 0.00469906)
(0.133939 -0.00382778 0.00301569)
(0.134333 -0.00409336 0.00315593)
(0.140984 -0.00179033 0.00589375)
(0.14256 0.00050814 0.00725546)
(0.137589 5.82316e-05 0.00614786)
(0.135304 -0.00213425 0.00493006)
(0.1409 -0.00301939 0.00485503)
(0.147038 -0.00182643 0.00487764)
(0.143248 -0.000357848 0.00460524)
(0.129144 0.000524308 0.0051351)
(0.11329 0.00125552 0.0070991)
(0.104002 0.00149979 0.00937204)
(0.102926 6.22477e-05 0.0100948)
(0.107466 -0.00330937 0.00834136)
(0.114682 -0.00685385 0.00535274)
(0.122179 -0.00899388 0.00290825)
(0.126495 -0.00960266 0.00302589)
(0.124502 -0.00963219 0.00841221)
(0.116841 -0.0104961 0.0170919)
(0.110507 -0.0120305 0.0209684)
(0.115 -0.0113116 0.0151968)
(0.126393 -0.00669577 0.00419096)
(0.130617 -0.000649065 -0.00493253)
(0.123072 0.00264758 -0.00838631)
(0.112845 0.00205137 -0.0065884)
(0.107608 0.000215419 -0.00229078)
(0.10778 -0.000302285 0.00173722)
(0.110771 0.000209316 0.00462697)
(0.112268 -5.91656e-05 0.00950934)
(0.120593 -0.000705436 0.0111361)
(0.133841 -0.000819517 0.00562274)
(0.13928 -0.00145839 -0.0056537)
(0.131738 -0.00382173 -0.0162662)
(0.120351 -0.00636578 -0.0233552)
(0.11486 -0.00836195 -0.0261718)
(0.11662 -0.0103203 -0.0241617)
(0.121826 -0.0119491 -0.0184219)
(0.130213 -0.0114719 -0.0104678)
(0.141166 -0.00801754 -0.00230138)
(0.146879 -0.00431038 0.00244846)
(0.142317 -0.00350018 0.00251093)
(0.135167 -0.00453054 0.00160912)
(0.136109 -0.00364814 0.00313719)
(0.142362 -0.00037728 0.00536203)
(0.144393 0.00146919 0.00578209)
(0.140743 -0.000658138 0.00469646)
(0.138829 -0.0045922 0.00399672)
(0.144498 -0.00590503 0.00443908)
(0.150927 -0.00292983 0.00457502)
(0.14636 0.00120253 0.00438802)
(0.132495 0.00346149 0.00633501)
(0.120212 0.00305197 0.0102949)
(0.11499 9.0337e-05 0.0119304)
(0.115479 -0.00447551 0.00828068)
(0.119876 -0.00863697 0.00243674)
(0.128103 -0.010242 -0.00159322)
(0.13582 -0.00918251 -0.00274414)
(0.136275 -0.00742112 0.00127761)
(0.12889 -0.0070777 0.01112)
(0.119016 -0.00930781 0.0192361)
(0.116113 -0.0111641 0.0175115)
(0.12192 -0.00807867 0.00798567)
(0.126248 -0.00108614 -0.00168629)
(0.123632 0.00382786 -0.00710606)
(0.118111 0.00384908 -0.00786826)
(0.113617 0.00149617 -0.0049088)
(0.111222 0.000376836 1.83693e-05)
(0.110494 0.000444416 0.005045)
(0.114227 0.000127623 0.00466988)
(0.117837 -0.00179523 0.00916053)
(0.129896 -0.00147846 0.00823438)
(0.141492 0.000353091 -0.000166305)
(0.141316 -0.000208191 -0.0104634)
(0.131912 -0.00325247 -0.0184381)
(0.123126 -0.00643363 -0.0233737)
(0.121603 -0.00879657 -0.0246087)
(0.125857 -0.0110025 -0.0219049)
(0.131417 -0.0128338 -0.0158426)
(0.138542 -0.0119556 -0.00755477)
(0.145553 -0.00790337 -0.00046446)
(0.146051 -0.00423286 0.00203596)
(0.139896 -0.00354349 0.00134484)
(0.135499 -0.0038274 0.00165111)
(0.13856 -0.00226326 0.00398461)
(0.144608 0.00012509 0.00604965)
(0.146886 0.000253096 0.0058969)
(0.144203 -0.00327178 0.00405863)
(0.142193 -0.00762965 0.00318027)
(0.146382 -0.00724938 0.0036985)
(0.150617 -0.00156549 0.00380968)
(0.146332 0.00367467 0.00535942)
(0.136634 0.00475155 0.0100442)
(0.128524 0.00214454 0.0126875)
(0.123821 -0.00258606 0.00782788)
(0.122285 -0.00803006 -0.000592352)
(0.127342 -0.0114546 -0.00530932)
(0.138297 -0.0104645 -0.00597873)
(0.144167 -0.0068521 -0.00369155)
(0.139164 -0.00445492 0.00436144)
(0.128352 -0.00555719 0.015014)
(0.120447 -0.00852122 0.018222)
(0.120403 -0.00759663 0.0115803)
(0.123034 -0.00152143 0.00205036)
(0.123708 0.00392222 -0.00492986)
(0.123496 0.00481746 -0.00837819)
(0.122501 0.0029632 -0.00832925)
(0.119903 0.00180507 -0.00524104)
(0.116368 0.00150403 -0.00063633)
(0.123672 0.00130184 -0.00309095)
(0.122761 -0.0023141 0.00207944)
(0.129148 -0.00310612 0.00464781)
(0.141324 -1.53495e-06 0.00116947)
(0.147908 0.00205958 -0.00609647)
(0.143249 4.09976e-05 -0.01365)
(0.133474 -0.00358582 -0.0197293)
(0.128022 -0.00661991 -0.0229903)
(0.130336 -0.00920037 -0.0229776)
(0.135844 -0.0121756 -0.0197317)
(0.140416 -0.0137231 -0.0126987)
(0.144396 -0.0109615 -0.00416227)
(0.145846 -0.00571382 0.000817219)
(0.142526 -0.00271769 0.00122986)
(0.13791 -0.00282128 0.000947663)
(0.137717 -0.00296707 0.00310927)
(0.142414 -0.00162435 0.00667565)
(0.147803 -0.000451729 0.00823725)
(0.149926 -0.00188709 0.00593804)
(0.147062 -0.0058103 0.0024418)
(0.143427 -0.00805831 0.00175721)
(0.143393 -0.0049726 0.00371269)
(0.143033 0.000539259 0.00689186)
(0.138537 0.00386285 0.0106974)
(0.133092 0.00375924 0.0114041)
(0.129758 0.000686453 0.00554737)
(0.127168 -0.00476624 -0.00318636)
(0.127955 -0.0103296 -0.00739184)
(0.137117 -0.0118134 -0.00625418)
(0.147199 -0.00820742 -0.00405487)
(0.146364 -0.00394274 0.000513797)
(0.136395 -0.00290993 0.00987579)
(0.126308 -0.00490096 0.0167191)
(0.122224 -0.00501828 0.0142466)
(0.122808 -0.000652199 0.00604906)
(0.124633 0.00376974 -0.0016658)
(0.127453 0.00442835 -0.00686359)
(0.130098 0.00326283 -0.00955604)
(0.130069 0.00309715 -0.00960439)
(0.127185 0.00330525 -0.00730514)
(0.13438 0.00234653 -0.00713053)
(0.131368 -0.00128404 -0.00207792)
(0.131028 -0.00352394 0.00151723)
(0.138629 -0.00141025 0.00110831)
(0.14882 0.00210637 -0.00304995)
(0.150852 0.00224114 -0.00947449)
(0.14373 -0.000369349 -0.0161822)
(0.136315 -0.00343567 -0.0207532)
(0.135882 -0.0066482 -0.0222181)
(0.14108 -0.0105386 -0.0211965)
(0.145723 -0.0137482 -0.0167846)
(0.147309 -0.0127761 -0.00878282)
(0.146948 -0.00729066 -0.00184734)
(0.144411 -0.00216096 0.000509501)
(0.140656 -0.00100653 0.000731152)
(0.139134 -0.00210502 0.00279983)
(0.141721 -0.00249638 0.00706728)
(0.147082 -0.0018943 0.00985799)
(0.151693 -0.00193415 0.00786806)
(0.150669 -0.00364288 0.00310737)
(0.1435 -0.00577939 0.00119279)
(0.135854 -0.00567602 0.00373385)
(0.131623 -0.00260731 0.00706689)
(0.130453 0.00125987 0.00831128)
(0.131845 0.00372433 0.00641139)
(0.134226 0.00323878 0.000998025)
(0.134292 -0.000941362 -0.00563712)
(0.133428 -0.00744112 -0.0084883)
(0.13843 -0.0118178 -0.00593539)
(0.14819 -0.0101079 -0.00222672)
(0.150676 -0.00504866 0.00088814)
(0.142122 -0.00205397 0.00712829)
(0.131189 -0.00206527 0.013811)
(0.125485 -0.00168724 0.0140276)
(0.125479 0.00138648 0.00802952)
(0.127491 0.00433349 0.0013396)
(0.129314 0.00415478 -0.00335436)
(0.131283 0.00247669 -0.00701335)
(0.13365 0.00240475 -0.00983689)
(0.135172 0.00344968 -0.010181)
(0.136174 0.00210577 -0.00364827)
(0.134906 0.000278912 0.000283356)
(0.131599 -0.00169449 0.00249619)
(0.13354 -0.00115941 0.00219254)
(0.142681 0.0013703 -0.00055983)
(0.150673 0.00290245 -0.00593904)
(0.1497 0.00224899 -0.0127369)
(0.144072 0.000353422 -0.0180661)
(0.142702 -0.00284907 -0.0203214)
(0.147145 -0.00772715 -0.0205753)
(0.151908 -0.0123142 -0.0188434)
(0.152593 -0.0129364 -0.0133105)
(0.150305 -0.00836472 -0.00603005)
(0.147067 -0.0023799 -0.00120201)
(0.143714 0.000484227 0.000977139)
(0.14197 -4.06063e-05 0.00302646)
(0.142991 -0.00149592 0.00620722)
(0.146214 -0.00232968 0.00911937)
(0.149626 -0.00261289 0.00898109)
(0.14971 -0.00295708 0.00520654)
(0.144343 -0.00335961 0.00138864)
(0.136069 -0.00331116 0.000977198)
(0.129953 -0.00244451 0.0026644)
(0.129381 -0.000907628 0.00347691)
(0.133714 0.00105986 0.00203804)
(0.138369 0.002418 -0.00182234)
(0.138906 0.00113575 -0.00617116)
(0.137281 -0.00401699 -0.00761792)
(0.139746 -0.0103437 -0.00512204)
(0.147409 -0.0114812 -0.00134038)
(0.151646 -0.00665183 0.00177553)
(0.146198 -0.00209134 0.00652928)
(0.136533 -0.000568917 0.0118135)
(0.130057 0.000522515 0.0122808)
(0.128169 0.00333664 0.00787751)
(0.127566 0.00580152 0.00349285)
(0.12626 0.00524471 0.0008847)
(0.125805 0.00273798 -0.001933)
(0.128254 0.0013519 -0.00519031)
(0.132921 0.00194638 -0.00621638)
(0.134166 -0.000873029 -0.000251831)
(0.134836 -0.000165816 0.00234319)
(0.132057 0.000150516 0.00430809)
(0.130944 0.000777547 0.00431669)
(0.135872 0.00209142 0.00191121)
(0.144591 0.00346571 -0.0027707)
(0.150305 0.00407673 -0.00861185)
(0.150747 0.00358375 -0.0134129)
(0.151259 0.00116241 -0.0161208)
(0.155378 -0.00393506 -0.01783)
(0.159494 -0.00971405 -0.0186766)
(0.159126 -0.0116484 -0.0161836)
(0.155128 -0.00802328 -0.00995391)
(0.150412 -0.00221324 -0.00371458)
(0.146369 0.00128176 0.000349679)
(0.144367 0.00137062 0.00305009)
(0.144821 8.21711e-05 0.00536584)
(0.146093 -0.0012219 0.00750092)
(0.146418 -0.00241468 0.00836346)
(0.145002 -0.0029877 0.00626322)
(0.141687 -0.00226592 0.00213339)
(0.137454 -0.0010047 -0.000565078)
(0.1347 -0.000883429 -0.000307677)
(0.135341 -0.00191072 0.00119264)
(0.138654 -0.00182136 0.00130915)
(0.140937 0.000248041 -0.000939946)
(0.139513 0.00162569 -0.00357344)
(0.137194 -0.00103013 -0.00358114)
(0.138611 -0.0072903 -0.00125286)
(0.14452 -0.0111437 0.00132441)
(0.150058 -0.00848021 0.00341135)
(0.149259 -0.00317509 0.00661581)
(0.142872 0.000544755 0.0102307)
(0.135746 0.00324874 0.0105115)
(0.130234 0.00608831 0.00730484)
(0.125766 0.00770734 0.00435086)
(0.122563 0.00609118 0.00337202)
(0.121968 0.00210205 0.00247503)
(0.124557 -0.00116227 0.000414629)
(0.129591 -0.00181735 -0.00111812)
(0.132502 -0.0016482 0.00378623)
(0.133128 -0.000127746 0.00452109)
(0.13132 0.00213708 0.0055588)
(0.13022 0.00433763 0.00602646)
(0.132705 0.00530984 0.00501458)
(0.138577 0.00488524 0.00176252)
(0.145138 0.00456778 -0.00330108)
(0.150644 0.00511588 -0.00804084)
(0.156264 0.00465553 -0.010988)
(0.162488 0.000694743 -0.0131399)
(0.16637 -0.00551574 -0.0156233)
(0.165139 -0.00886833 -0.0163779)
(0.16007 -0.00640665 -0.0128709)
(0.1543 -0.00119363 -0.00685871)
(0.149404 0.00198583 -0.00165434)
(0.146189 0.00209852 0.00190084)
(0.144809 0.00117743 0.00433927)
(0.144183 0.000413731 0.00605538)
(0.142995 -0.000483448 0.00697906)
(0.14077 -0.0010836 0.0059457)
(0.138625 -0.000448223 0.00269806)
(0.138601 0.000579393 -0.000348826)
(0.141452 -0.000351617 -0.000791954)
(0.144774 -0.00331993 0.000776744)
(0.145086 -0.00487825 0.0016863)
(0.141883 -0.0024911 0.000958763)
(0.137878 0.00114918 0.000960487)
(0.136588 0.00111034 0.00306726)
(0.139215 -0.00385698 0.00495683)
(0.144394 -0.0093903 0.00524093)
(0.149426 -0.00966582 0.00517212)
(0.150537 -0.00474601 0.00659933)
(0.146424 0.000738414 0.00878045)
(0.139317 0.00457511 0.00846041)
(0.13134 0.00722473 0.005769)
(0.124478 0.00859061 0.00453099)
(0.121105 0.007375 0.0061091)
(0.12165 0.00378633 0.00752737)
(0.124777 2.28652e-05 0.00651193)
(0.129057 -0.00189608 0.00452823)
(0.133082 0.000703938 0.00500403)
(0.135725 0.00182139 0.0047083)
(0.13545 0.00380422 0.00542872)
(0.134043 0.0063677 0.0065924)
(0.134453 0.00815128 0.00685445)
(0.137294 0.00763062 0.00470082)
(0.141381 0.0050532 0.000504163)
(0.14647 0.00263163 -0.00348578)
(0.153599 0.0018319 -0.0060719)
(0.161845 0.00119073 -0.00841357)
(0.167011 -0.00104081 -0.0116158)
(0.166484 -0.00351333 -0.0142591)
(0.162641 -0.00320748 -0.0138282)
(0.159127 -0.000524837 -0.0101097)
(0.156381 0.00164979 -0.00545083)
(0.152972 0.00235787 -0.00164672)
(0.148838 0.00221024 0.000935989)
(0.144824 0.00147107 0.00248866)
(0.141532 0.000343834 0.00370522)
(0.139386 -0.000238797 0.00468146)
(0.139412 0.000350025 0.00461009)
(0.143132 0.00104579 0.00294312)
(0.149851 -0.000134749 0.000730834)
(0.155033 -0.00339363 0.00033876)
(0.15392 -0.00561066 0.00269485)
(0.147304 -0.00374214 0.00580862)
(0.14091 0.000571236 0.00779778)
(0.139047 0.00277887 0.00785409)
(0.141245 0.000346519 0.00592603)
(0.145089 -0.00502704 0.004138)
(0.148952 -0.00762707 0.00349643)
(0.150063 -0.00425392 0.00362693)
(0.146021 0.00202157 0.00485201)
(0.138055 0.00680648 0.00565496)
(0.129333 0.00899497 0.0050872)
(0.122993 0.00937561 0.00517357)
(0.120781 0.00820044 0.00687158)
(0.121951 0.00564156 0.00832908)
(0.124898 0.00272631 0.00801076)
(0.12885 0.000871553 0.00640003)
(0.135067 0.0034887 0.00350676)
(0.136734 0.00346045 0.00402152)
(0.136344 0.004319 0.00437695)
(0.134863 0.00621137 0.00505388)
(0.134641 0.00819948 0.00593115)
(0.136811 0.00839806 0.00594314)
(0.140622 0.00578915 0.0038672)
(0.144818 0.00169521 -1.49376e-06)
(0.149472 -0.00145036 -0.00392182)
(0.15574 -0.00256024 -0.00681612)
(0.162629 -0.00263524 -0.00899485)
(0.166478 -0.0024384 -0.0108902)
(0.165322 -0.00127412 -0.0117751)
(0.161747 0.000828558 -0.0106702)
(0.158884 0.00234358 -0.00790381)
(0.156943 0.00290339 -0.00475967)
(0.154865 0.00343303 -0.00245888)
(0.151891 0.00356153 -0.0013598)
(0.147874 0.00220522 -0.000447418)
(0.144097 -0.00042989 0.00144466)
(0.142902 -0.0031868 0.00381813)
(0.145794 -0.00556055 0.00498382)
(0.151234 -0.0073955 0.00401247)
(0.155199 -0.00856134 0.00258253)
(0.154563 -0.00840581 0.00364582)
(0.149847 -0.00542514 0.00682281)
(0.144582 0.000646789 0.00823311)
(0.141233 0.00633296 0.0054825)
(0.139909 0.00669564 0.000561586)
(0.140731 0.00108036 -0.00214583)
(0.143719 -0.00494923 -0.00111029)
(0.146326 -0.00507817 0.000974588)
(0.144681 0.000892067 0.00251185)
(0.138523 0.007497 0.00376568)
(0.131701 0.0114534 0.00436525)
(0.127775 0.0128618 0.00416866)
(0.127337 0.0122192 0.00335065)
(0.128696 0.00978851 0.00235858)
(0.130368 0.00675124 0.00203954)
(0.132488 0.00449848 0.00264538)
(0.142056 0.0045328 -0.00413619)
(0.1413 0.00495099 -9.45975e-06)
(0.138576 0.00533871 0.00356334)
(0.135144 0.0052283 0.0065063)
(0.133566 0.00442135 0.00905088)
(0.135344 0.00265316 0.0108526)
(0.14026 0.000209106 0.0107649)
(0.146741 -0.00221277 0.00792586)
(0.15275 -0.00383742 0.00288963)
(0.156782 -0.00402794 -0.00283584)
(0.158073 -0.00280869 -0.00774767)
(0.156775 -0.000637197 -0.0103942)
(0.153765 0.00186887 -0.0103736)
(0.150265 0.00373356 -0.008979)
(0.147412 0.00416778 -0.00763826)
(0.14613 0.00344442 -0.00651471)
(0.147053 0.00226598 -0.00524585)
(0.149738 0.00125772 -0.00415953)
(0.152428 0.00098075 -0.00367736)
(0.153664 0.00114015 -0.00298417)
(0.153607 -0.000156108 -0.000890487)
(0.153443 -0.00408706 0.00226539)
(0.153786 -0.00866613 0.00520906)
(0.154191 -0.0102569 0.00713671)
(0.15356 -0.00767711 0.00818125)
(0.150828 -0.00284486 0.00850218)
(0.146576 0.00207783 0.00704037)
(0.142756 0.00526146 0.00302851)
(0.140848 0.00488623 -0.00189981)
(0.141353 0.000707131 -0.00426408)
(0.143474 -0.00469768 -0.00214844)
(0.145421 -0.00672235 0.00216437)
(0.145015 -0.00287267 0.00535419)
(0.142016 0.00409268 0.0065723)
(0.139189 0.0102354 0.00589652)
(0.138959 0.013753 0.0030742)
(0.140685 0.0142212 -0.00144102)
(0.142041 0.0117884 -0.00590028)
(0.142113 0.00804839 -0.00829198)
(0.141914 0.00527705 -0.00749447)
(0.151895 0.00368536 -0.00989605)
(0.149149 0.00527609 -0.00731445)
(0.147066 0.00656618 -0.00429167)
(0.146692 0.00608133 -0.00097536)
(0.148003 0.00376625 0.00280604)
(0.149883 0.00057681 0.0069075)
(0.151098 -0.00228795 0.0109252)
(0.151868 -0.00406773 0.0133088)
(0.1538 -0.00446017 0.0123071)