/*--------------------------------*- C++ -*----------------------------------*\
| =========                 |                                                 |
| \\      /  F ield         | OpenFOAM: The Open Source CFD Toolbox           |
|  \\    /   O peration     | Version:  2306                                  |
|   \\  /    A nd           | Website:  www.openfoam.com                      |
|    \\/     M anipulation  |                                                 |
\*---------------------------------------------------------------------------*/
FoamFile
{
    version     2.0;
    format      ascii;
    arch        "LSB;label=32;scalar=64";
    class       volVectorField;
    location    "7.5";
    object      U_0;
}
// * * * * * * * * * * * * * * * * * * * * * * * * * * * * * * * * * * * * * //

dimensions      [0 1 -1 0 0 0 0];

internalField   nonuniform List<vector> 
60000
(
(0.00705547 3.45667e-05 1.58645e-05)
(0.00758234 3.26079e-05 0.000218371)
(0.00822304 2.72553e-05 0.000534428)
(0.00884965 2.98826e-05 0.00107372)
(0.00925284 3.60257e-05 0.00174167)
(0.00925793 3.87344e-05 0.00234685)
(0.00890865 3.33187e-05 0.00269236)
(0.00847073 2.26551e-05 0.00269271)
(0.00814806 1.4385e-05 0.00240014)
(0.00794055 1.03408e-05 0.00195348)
(0.00778029 6.88214e-06 0.00151582)
(0.00758432 1.10013e-06 0.0012258)
(0.00726848 -5.50877e-06 0.00111269)
(0.00677795 -9.06971e-06 0.00111582)
(0.00616642 -6.13325e-06 0.00115836)
(0.00563388 -1.67841e-06 0.00117433)
(0.00535452 7.29553e-07 0.00112122)
(0.00533655 -2.72808e-06 0.000938232)
(0.00547298 -1.06977e-05 0.000643313)
(0.00564459 -1.64273e-05 0.000352389)
(0.00582753 -1.36264e-05 0.000130112)
(0.00608239 -7.15228e-06 -5.90416e-05)
(0.00641181 2.754e-06 -0.000212051)
(0.00674539 1.86074e-05 -0.000280717)
(0.00703743 2.81321e-05 -0.000310209)
(0.00729193 2.53424e-05 -0.000439239)
(0.0075632 9.1767e-06 -0.000809922)
(0.00791718 -1.50014e-05 -0.00144375)
(0.00831557 -3.17841e-05 -0.00208678)
(0.00854659 -3.04521e-05 -0.00241389)
(0.00843268 -1.90753e-05 -0.00244421)
(0.00799758 -5.31573e-06 -0.00243695)
(0.00736606 1.08957e-05 -0.00242748)
(0.00669639 1.575e-05 -0.00229257)
(0.00615654 8.99375e-06 -0.00210638)
(0.0058708 3.36642e-06 -0.00194277)
(0.00587677 3.56722e-06 -0.00170172)
(0.00609586 5.6041e-06 -0.00128532)
(0.00638173 1.62286e-05 -0.000754276)
(0.00667722 2.57307e-05 -0.000281307)
(0.0212014 0.000154187 2.30763e-05)
(0.0229323 0.000120535 0.000630665)
(0.0248656 0.000107916 0.0016076)
(0.0266948 0.000153336 0.00311405)
(0.02796 0.000224763 0.00485048)
(0.0281894 0.000265132 0.0063113)
(0.0273385 0.000239404 0.00705844)
(0.0260396 0.000167577 0.0069415)
(0.0249771 0.000101716 0.006137)
(0.0243035 6.44885e-05 0.00501137)
(0.0238451 4.416e-05 0.00394867)
(0.023297 2.29905e-05 0.00322506)
(0.0223569 -1.18687e-06 0.00289852)
(0.0209044 -2.07687e-05 0.00287956)
(0.0191715 -4.47458e-05 0.00300437)
(0.0176728 -8.50971e-05 0.00305944)
(0.0167925 -0.000128791 0.00287121)
(0.0165389 -0.000163369 0.00235397)
(0.0166784 -0.000176487 0.0016373)
(0.0169768 -0.000159539 0.000963833)
(0.0174121 -0.000114192 0.000422883)
(0.018081 -5.27833e-05 -4.43607e-05)
(0.0189469 2.18377e-05 -0.000411078)
(0.0198917 8.84709e-05 -0.000604456)
(0.0208845 9.40716e-05 -0.000754086)
(0.0219636 1.60804e-05 -0.00118126)
(0.0232107 -0.000132004 -0.00220525)
(0.0246292 -0.000275115 -0.00379956)
(0.0259035 -0.0003095 -0.00535608)
(0.0264299 -0.000205162 -0.00619766)
(0.025873 -5.07163e-05 -0.00638541)
(0.0244769 7.55176e-05 -0.00635888)
(0.0227228 0.000134115 -0.00615867)
(0.0209981 9.55844e-05 -0.00577238)
(0.0194967 5.84216e-06 -0.00545266)
(0.0184093 -4.71887e-05 -0.00515382)
(0.0179768 -4.23201e-05 -0.00448669)
(0.0182181 6.82569e-06 -0.00329978)
(0.0188935 8.6495e-05 -0.00189283)
(0.01986 0.000140651 -0.000719319)
(0.0351446 0.000298783 -0.000517932)
(0.0381333 0.000202127 0.000407741)
(0.0414364 0.000172867 0.00191827)
(0.0446354 0.000281416 0.00424624)
(0.047134 0.000438379 0.00691108)
(0.0481326 0.000525961 0.00915093)
(0.0471928 0.000483577 0.0103611)
(0.0450369 0.000349222 0.0103253)
(0.0429778 0.000214953 0.00926572)
(0.0416333 0.000129177 0.00771391)
(0.0408349 8.01508e-05 0.00621527)
(0.0400318 3.52333e-05 0.00509916)
(0.0386593 -1.36216e-05 0.00444044)
(0.0364857 -5.73334e-05 0.00423503)
(0.0338076 -0.000129212 0.004381)
(0.0312819 -0.00024743 0.0045507)
(0.0294649 -0.000369368 0.00435343)
(0.0285193 -0.000451629 0.00363876)
(0.0282725 -0.000463568 0.00264781)
(0.0284556 -0.000399343 0.00172584)
(0.0290054 -0.000277109 0.000973064)
(0.0299798 -0.000112174 0.00030903)
(0.0312988 6.89169e-05 -0.000216529)
(0.0328468 0.000184491 -0.000491464)
(0.034639 0.00012645 -0.000659897)
(0.0367218 -0.000136385 -0.0011644)
(0.0391522 -0.000540138 -0.00251182)
(0.0418574 -0.000881275 -0.00477091)
(0.0442561 -0.000918158 -0.00717425)
(0.0453225 -0.000607829 -0.00873044)
(0.0445395 -0.00018223 -0.00934429)
(0.0423897 0.000148189 -0.00940953)
(0.0397354 0.000268299 -0.00899909)
(0.0371494 0.000155791 -0.00836001)
(0.0347064 -4.97433e-05 -0.00801418)
(0.032486 -0.000150929 -0.00783541)
(0.03095 -0.000119519 -0.00708121)
(0.0305606 1.06726e-05 -0.00542291)
(0.0312722 0.000188839 -0.00335307)
(0.0328183 0.000300724 -0.00161787)
(0.0480206 0.00037883 -0.00217108)
(0.0521527 0.000159119 -0.00115061)
(0.0568523 5.9983e-05 0.000626073)
(0.0616255 0.00025114 0.00357995)
(0.0658586 0.000527375 0.0071443)
(0.0684332 0.000688738 0.0103209)
(0.0682 0.000672607 0.0123197)
(0.0654732 0.000522205 0.0127837)
(0.0621661 0.000339852 0.0118479)
(0.0598161 0.000196708 0.010155)
(0.0585536 0.000103235 0.0084409)
(0.0576132 2.91808e-05 0.00705019)
(0.0561194 -3.58806e-05 0.00597615)
(0.0536451 -9.49477e-05 0.00533151)
(0.0503903 -0.000212277 0.00529585)
(0.046911 -0.000421696 0.00561344)
(0.0437733 -0.000652239 0.00561751)
(0.0414365 -0.000820457 0.00490128)
(0.0401345 -0.000859997 0.003765)
(0.0397647 -0.000755638 0.00271626)
(0.0401742 -0.000537954 0.00188558)
(0.0412778 -0.000228825 0.00114397)
(0.0429259 9.70887e-05 0.000552738)
(0.0450062 0.00026136 0.00031131)
(0.0475729 7.0953e-05 0.00035314)
(0.0506247 -0.000490816 0.000179751)
(0.0541387 -0.00130778 -0.000938233)
(0.0581099 -0.00196226 -0.00342522)
(0.0619712 -0.00200005 -0.0066797)
(0.0642344 -0.00137317 -0.00937796)
(0.0639246 -0.000528891 -0.010963)
(0.0615884 0.000130889 -0.0115574)
(0.0584395 0.000381226 -0.0111491)
(0.0552794 0.000195556 -0.0102104)
(0.0520869 -0.000149573 -0.009739)
(0.0486546 -0.000311466 -0.0098248)
(0.0453768 -0.00025566 -0.00944802)
(0.043334 -4.40304e-05 -0.00787736)
(0.043257 0.00024478 -0.00554264)
(0.0449401 0.000423649 -0.00346277)
(0.0589233 0.000280718 -0.00535495)
(0.0636258 -0.000155252 -0.00466597)
(0.0694212 -0.000466872 -0.00308119)
(0.0758071 -0.000267491 0.000105835)
(0.0822289 0.000279762 0.00449295)
(0.0873782 0.000593221 0.00892766)
(0.0891689 0.000679244 0.0122937)
(0.0868145 0.000603729 0.0139287)
(0.0823418 0.000442657 0.0136692)
(0.0785941 0.000257407 0.0121547)
(0.0765969 0.000105656 0.0104659)
(0.0755601 -8.30225e-06 0.00909544)
(0.0742536 -8.56079e-05 0.007778)
(0.0719677 -0.000134969 0.00651707)
(0.0686991 -0.000256681 0.00592131)
(0.0647185 -0.000515088 0.00619796)
(0.0602652 -0.000838056 0.00655281)
(0.055895 -0.00113119 0.00607721)
(0.0525495 -0.00128503 0.004918)
(0.0507911 -0.00122151 0.00382781)
(0.0505393 -0.000937864 0.00306643)
(0.0514617 -0.00045873 0.00242708)
(0.0532222 6.68999e-05 0.00193482)
(0.0556249 0.000298115 0.00190534)
(0.0587055 -7.91176e-05 0.00242695)
(0.0623204 -0.00108882 0.00302943)
(0.0661999 -0.00254465 0.00286768)
(0.0706424 -0.00378172 0.0010453)
(0.076065 -0.0039246 -0.00261277)
(0.0807699 -0.00278213 -0.00689597)
(0.0824398 -0.00127381 -0.0103984)
(0.0811233 -0.000115391 -0.0124691)
(0.0782553 0.00040985 -0.0127029)
(0.0749598 0.000210996 -0.0115882)
(0.0713657 -0.000265677 -0.0107669)
(0.0670898 -0.000494528 -0.0109736)
(0.0620712 -0.000421203 -0.0111862)
(0.0575139 -0.000165785 -0.0102623)
(0.0552684 0.000190126 -0.00831858)
(0.0559118 0.000415536 -0.00642039)
(0.0682239 -3.10529e-05 -0.0095825)
(0.0719428 -0.00083866 -0.00991043)
(0.0774822 -0.00161444 -0.00922596)
(0.0843932 -0.00168875 -0.00671587)
(0.092607 -0.00101077 -0.00237845)
(0.101356 -0.000224885 0.00328015)
(0.107262 0.000289288 0.00886173)
(0.107325 0.000469703 0.0127888)
(0.102686 0.000459659 0.0141853)
(0.0974165 0.000291687 0.0133554)
(0.0943162 7.67241e-05 0.0118605)
(0.093104 -9.75764e-05 0.0108466)
(0.0921756 -0.000194244 0.00984008)
(0.0904567 -0.000212832 0.00819265)
(0.0877612 -0.000276701 0.00667309)
(0.0841121 -0.00049183 0.00640556)
(0.0791498 -0.000811679 0.00698867)
(0.0728698 -0.00119092 0.00696884)
(0.0666046 -0.00154242 0.00594933)
(0.0621261 -0.00168882 0.00483321)
(0.0601495 -0.00146557 0.00420131)
(0.0602668 -0.000832911 0.00382782)
(0.0617527 -4.05334e-05 0.00362403)
(0.064108 0.000322887 0.00396773)
(0.0672611 -0.000284561 0.00507719)
(0.0709405 -0.00193224 0.00653896)
(0.074284 -0.0042635 0.00764634)
(0.0771859 -0.0064093 0.00754494)
(0.0821007 -0.00707338 0.00520828)
(0.0898895 -0.005618 0.000296915)
(0.0964006 -0.00300941 -0.00590981)
(0.0986474 -0.000841325 -0.0110069)
(0.0976662 0.00022436 -0.0132125)
(0.0950631 0.000166149 -0.0126169)
(0.091497 -0.000372411 -0.0114322)
(0.0869674 -0.000648996 -0.0114368)
(0.0810302 -0.000544837 -0.0120276)
(0.0742685 -0.0002586 -0.0118269)
(0.0689873 8.61195e-05 -0.0107117)
(0.0669763 0.000274552 -0.00968721)
(0.0794609 -0.000423252 -0.0127372)
(0.0803396 -0.00184854 -0.0147484)
(0.0831676 -0.00331602 -0.0157212)
(0.0878031 -0.00389294 -0.0147473)
(0.0942658 -0.00347088 -0.012064)
(0.104157 -0.00251648 -0.00720224)
(0.116087 -0.00138441 5.65456e-05)
(0.122737 -0.000344746 0.00754595)
(0.120894 0.000205534 0.0122839)
(0.114989 0.000254356 0.0132695)
(0.110592 2.05935e-05 0.0121765)
(0.10912 -0.000252243 0.0115257)
(0.108716 -0.000410069 0.0114647)
(0.107705 -0.00038778 0.0103293)
(0.105869 -0.000344397 0.00804941)
(0.103367 -0.000426598 0.00663475)
(0.0993783 -0.000607162 0.00691038)
(0.0926674 -0.000916809 0.00733219)
(0.0838298 -0.0013974 0.00667565)
(0.0755165 -0.00188404 0.0055893)
(0.0701508 -0.00195044 0.00501308)
(0.0682433 -0.00128323 0.00489202)
(0.0688201 -0.00019195 0.00499347)
(0.0708069 0.000372009 0.00563983)
(0.0738941 -0.000487229 0.00711172)
(0.0778342 -0.00282407 0.00900171)
(0.0813424 -0.00599359 0.0107062)
(0.0826078 -0.00902996 0.0120369)
(0.0833405 -0.0105879 0.0125032)
(0.0891487 -0.00958993 0.0101496)
(0.0999612 -0.00640795 0.0035675)
(0.109372 -0.00281492 -0.00512003)
(0.11361 -0.000532572 -0.0111958)
(0.113491 -4.37969e-05 -0.0127304)
(0.110523 -0.000470662 -0.0118942)
(0.106132 -0.000715719 -0.0115712)
(0.100381 -0.000560254 -0.0121381)
(0.0929548 -0.000260198 -0.0122901)
(0.0856529 8.36574e-05 -0.0117317)
(0.080952 0.000188808 -0.011553)
(0.0953342 -0.000459912 -0.0127637)
(0.0938016 -0.0025683 -0.0163094)
(0.0921543 -0.00497986 -0.0196768)
(0.0920582 -0.00624433 -0.0208282)
(0.0941202 -0.00619454 -0.0198773)
(0.0997074 -0.00562997 -0.0169456)
(0.111866 -0.00457878 -0.0110328)
(0.126254 -0.00271825 -0.00201149)
(0.132084 -0.00099432 0.00675125)
(0.128405 -0.00025412 0.0112011)
(0.123234 -0.000195684 0.0112409)
(0.121692 -0.000441628 0.0105305)
(0.122387 -0.000735171 0.011333)
(0.122305 -0.000773187 0.0118183)
(0.121037 -0.00057821 0.00996147)
(0.119794 -0.000417941 0.00737774)
(0.11816 -0.000394997 0.00661051)
(0.113561 -0.000488261 0.00705737)
(0.104497 -0.000857651 0.00685141)
(0.0929784 -0.00156559 0.00600383)
(0.0829274 -0.00207883 0.00550877)
(0.0771479 -0.00162109 0.00554063)
(0.0757236 -0.000318671 0.00579115)
(0.0771129 0.00053085 0.00650631)
(0.0802845 -0.000355815 0.00807724)
(0.0847962 -0.00308311 0.0100925)
(0.0896386 -0.00672265 0.0116416)
(0.0921784 -0.0102034 0.0128271)
(0.0903029 -0.0126415 0.0149172)
(0.0891358 -0.0128277 0.0166977)
(0.0962693 -0.0102322 0.013812)
(0.10962 -0.00606318 0.00502659)
(0.121565 -0.00234763 -0.00488679)
(0.126993 -0.000761711 -0.0104363)
(0.125847 -0.000791212 -0.0116294)
(0.121634 -0.0008817 -0.0114602)
(0.116696 -0.000473714 -0.0116602)
(0.11036 2.92219e-05 -0.0117196)
(0.103238 0.000393474 -0.011198)
(0.0978861 0.000421702 -0.0110953)
(0.112146 0.000171383 -0.00930111)
(0.111581 -0.00214158 -0.0132658)
(0.107266 -0.00535289 -0.0188975)
(0.101354 -0.00764463 -0.0231009)
(0.0983024 -0.0081738 -0.0243062)
(0.0988513 -0.00818254 -0.0226248)
(0.105504 -0.00806463 -0.0181313)
(0.120081 -0.00645981 -0.0105643)
(0.133824 -0.00352672 -0.000671109)
(0.135739 -0.00153088 0.00715285)
(0.13014 -0.00107313 0.00932653)
(0.127725 -0.00111063 0.00822282)
(0.130604 -0.00117722 0.00869595)
(0.133001 -0.00119862 0.010819)
(0.131821 -0.00108274 0.0109249)
(0.130233 -0.000825647 0.0083902)
(0.131026 -0.000476641 0.00641676)
(0.131186 -0.00015732 0.00630044)
(0.125903 -0.000235276 0.00633907)
(0.114458 -0.000825702 0.00584675)
(0.100562 -0.00161766 0.00563351)
(0.0894252 -0.00157174 0.00594674)
(0.0841357 -0.00031799 0.00640139)
(0.0839783 0.000767967 0.00713792)
(0.0869979 2.74728e-05 0.00848555)
(0.0919676 -0.00281167 0.010041)
(0.0977969 -0.0066075 0.0110024)
(0.102479 -0.00996079 0.0114493)
(0.10249 -0.0124065 0.0134185)
(0.0976112 -0.0137493 0.0177608)
(0.0964997 -0.0128494 0.0196504)
(0.105917 -0.00951405 0.0142668)
(0.121693 -0.00529544 0.00383998)
(0.133574 -0.00214926 -0.00532831)
(0.133704 -0.000890959 -0.0098099)
(0.126044 -0.000678824 -0.0104883)
(0.119944 -0.000555832 -0.00978856)
(0.117315 -7.87106e-05 -0.00912511)
(0.114906 0.000568817 -0.00848388)
(0.112609 0.000900452 -0.00811452)
(0.120887 0.000658822 -0.00228544)
(0.125722 -0.000930952 -0.00608596)
(0.124259 -0.0039429 -0.0133231)
(0.115432 -0.00705737 -0.0207774)
(0.106849 -0.00852402 -0.0252996)
(0.103495 -0.00898538 -0.0257705)
(0.105235 -0.00994337 -0.0222675)
(0.113777 -0.00998878 -0.0158507)
(0.128735 -0.00733633 -0.00704044)
(0.139252 -0.00354724 0.00211967)
(0.137289 -0.00194567 0.00684709)
(0.130916 -0.00234531 0.0060291)
(0.131501 -0.00264462 0.00490397)
(0.137861 -0.00189343 0.00708545)
(0.139759 -0.000938304 0.00938479)
(0.13547 -0.000800627 0.00847283)
(0.133309 -0.00120212 0.00623958)
(0.137352 -0.00109028 0.0054243)
(0.140686 -0.000447004 0.0054605)
(0.135588 -0.000227376 0.00521055)
(0.122259 -0.000694552 0.00518985)
(0.106695 -0.000849138 0.00596464)
(0.0958078 5.12999e-05 0.0070917)
(0.092285 0.00101034 0.00812919)
(0.0944483 0.00021114 0.00885369)
(0.099955 -0.0027296 0.0089054)
(0.10669 -0.00645537 0.00836862)
(0.112533 -0.00941508 0.00790074)
(0.114584 -0.0110891 0.00955353)
(0.110611 -0.0122457 0.0150696)
(0.104302 -0.0130675 0.0206411)
(0.105854 -0.0120491 0.0192376)
(0.118619 -0.00870505 0.0101692)
(0.132362 -0.00405464 -0.000683849)
(0.133544 -0.000432133 -0.00775978)
(0.122988 0.000786217 -0.00925781)
(0.11314 0.000176702 -0.0070411)
(0.110419 -0.000343783 -0.00427712)
(0.112371 9.63587e-05 -0.00259611)
(0.115837 0.000773516 -0.00177595)
(0.117703 0.00032697 0.00633638)
(0.127978 -0.000335596 0.00377508)
(0.134737 -0.00198931 -0.00442777)
(0.129826 -0.00471028 -0.0147314)
(0.11819 -0.00713995 -0.0227051)
(0.110308 -0.00836776 -0.026582)
(0.109463 -0.00969909 -0.0254597)
(0.113571 -0.0113002 -0.0201878)
(0.122901 -0.0108992 -0.0124673)
(0.136082 -0.00737645 -0.00356467)
(0.143657 -0.00348705 0.003256)
(0.140154 -0.00261892 0.00465403)
(0.133443 -0.00392535 0.00285652)
(0.13482 -0.00393023 0.00331911)
(0.141532 -0.00144905 0.00613366)
(0.142328 0.000648762 0.00722011)
(0.137106 -0.000130869 0.0059306)
(0.135518 -0.00239251 0.00479519)
(0.141734 -0.00305112 0.00483329)
(0.147257 -0.00167727 0.00488301)
(0.142194 -0.000223898 0.00467295)
(0.127483 0.000621792 0.00534356)
(0.11205 0.00129814 0.00739789)
(0.10362 0.0014177 0.00958566)
(0.103249 -0.000253613 0.0100367)
(0.108194 -0.00369536 0.00802798)
(0.115569 -0.00714033 0.00502216)
(0.122862 -0.00911838 0.00282062)
(0.126513 -0.00965165 0.00347557)
(0.123734 -0.00972921 0.00941125)
(0.115755 -0.010713 0.0179229)
(0.110314 -0.0121229 0.0207711)
(0.116099 -0.0110099 0.0140629)
(0.127433 -0.00605624 0.00293854)
(0.1303 -0.00012795 -0.00566651)
(0.121867 0.00276347 -0.0084352)
(0.111868 0.0018504 -0.00617048)
(0.107267 3.72647e-05 -0.0017452)
(0.107922 -0.000326946 0.00219639)
(0.11128 0.000255602 0.00494893)
(0.112917 -9.10244e-05 0.00989219)
(0.122085 -0.000669696 0.0108515)
(0.135134 -0.000790783 0.00445242)
(0.139081 -0.00166289 -0.0070674)
(0.130563 -0.00412665 -0.0173558)
(0.119536 -0.00656894 -0.0239772)
(0.115048 -0.00853231 -0.0261859)
(0.117436 -0.010565 -0.0235901)
(0.122919 -0.0121007 -0.0174898)
(0.13167 -0.0112682 -0.00940806)
(0.142393 -0.00753924 -0.00147869)
(0.14692 -0.00401041 0.00270062)
(0.141435 -0.00352742 0.0023748)
(0.134722 -0.00453033 0.00160235)
(0.136612 -0.003338 0.00335772)
(0.142908 -1.60165e-05 0.00549575)
(0.144281 0.00143888 0.00568277)
(0.140339 -0.00112095 0.00451626)
(0.139072 -0.00501433 0.00395601)
(0.145378 -0.00581279 0.00450432)
(0.151074 -0.00247068 0.00460387)
(0.145221 0.00155166 0.00453226)
(0.131071 0.00353632 0.00674903)
(0.119394 0.00284712 0.0106941)
(0.114846 -0.000350824 0.0118122)
(0.11579 -0.00498269 0.00766107)
(0.120679 -0.00893362 0.00183809)
(0.129191 -0.0102118 -0.00185615)
(0.136309 -0.00900929 -0.00247749)
(0.135727 -0.00736398 0.00227512)
(0.12768 -0.00726293 0.0123387)
(0.118122 -0.00963643 0.0195861)
(0.116416 -0.0111174 0.0166899)
(0.122675 -0.00744411 0.00676211)
(0.126312 -0.000378399 -0.00257907)
(0.123063 0.00408419 -0.0074352)
(0.117472 0.00364934 -0.00770486)
(0.113158 0.00124994 -0.00440548)
(0.111012 0.000295864 0.000638352)
(0.110562 0.00041261 0.00562777)
(0.114348 -5.48132e-05 0.00528687)
(0.118891 -0.00183591 0.00938448)
(0.131569 -0.00125658 0.00755432)
(0.142241 0.000482338 -0.00141516)
(0.14067 -0.000461153 -0.0115917)
(0.130876 -0.00361377 -0.0192421)
(0.122825 -0.00672192 -0.0237492)
(0.122279 -0.00906523 -0.0244299)
(0.126868 -0.0113073 -0.0212431)
(0.132443 -0.0129551 -0.0148421)
(0.13964 -0.0116264 -0.00652481)
(0.146114 -0.00734721 0.000117991)
(0.145613 -0.00393743 0.00206336)
(0.139125 -0.00352709 0.00124965)
(0.135414 -0.00372828 0.00179657)
(0.139185 -0.00198277 0.0042471)
(0.145157 0.00028477 0.00613111)
(0.146829 -1.97249e-05 0.00569747)
(0.143811 -0.00389166 0.00381919)
(0.142324 -0.00794907 0.00316996)
(0.147008 -0.006833 0.00377378)
(0.150603 -0.000897896 0.00391745)
(0.145434 0.00399722 0.0057967)
(0.135607 0.00463844 0.0105823)
(0.127841 0.00174999 0.012532)
(0.123447 -0.00318926 0.00691349)
(0.122469 -0.00857725 -0.00144576)
(0.128484 -0.0115591 -0.00559505)
(0.139491 -0.0101209 -0.00584362)
(0.144149 -0.00653236 -0.00297921)
(0.138077 -0.00443777 0.00565198)
(0.127109 -0.00589935 0.0158912)
(0.120033 -0.00869383 0.0178815)
(0.120722 -0.00712988 0.0105014)
(0.123263 -0.000774126 0.00106104)
(0.123707 0.0042823 -0.00552221)
(0.12339 0.00470988 -0.00856021)
(0.122227 0.00273418 -0.00812527)
(0.119501 0.00169772 -0.00477144)
(0.11605 0.00140031 -3.89594e-05)
(0.123439 0.00096226 -0.00249544)
(0.123128 -0.00256724 0.00259181)
(0.130465 -0.00289718 0.00455055)
(0.14265 0.000391961 0.000419372)
(0.148002 0.00202442 -0.00704546)
(0.142358 -0.000337215 -0.0145319)
(0.132762 -0.0039941 -0.020328)
(0.128312 -0.00696175 -0.0231175)
(0.131356 -0.00956035 -0.0226573)
(0.1368 -0.0125069 -0.0189739)
(0.141111 -0.0136421 -0.0116036)
(0.144837 -0.0103702 -0.00327612)
(0.145708 -0.00512963 0.00108905)
(0.141945 -0.00253155 0.0011635)
(0.137563 -0.00285067 0.00103983)
(0.138032 -0.00288646 0.0034683)
(0.143104 -0.00145767 0.00697418)
(0.148307 -0.00049647 0.00811143)
(0.149824 -0.00232379 0.00545743)
(0.146516 -0.00630466 0.00213455)
(0.14317 -0.00801891 0.00187931)
(0.14337 -0.00440233 0.00406092)
(0.142593 0.00106398 0.00737112)
(0.13777 0.00405154 0.0110313)
(0.132557 0.00361759 0.0110339)
(0.129421 0.000208298 0.00453205)
(0.126946 -0.00548281 -0.00405535)
(0.128558 -0.0107938 -0.00754719)
(0.138516 -0.0116259 -0.00600365)
(0.147824 -0.00769839 -0.00363267)
(0.14557 -0.0036899 0.00147296)
(0.135059 -0.00306433 0.010965)
(0.125449 -0.00509507 0.0169125)
(0.122142 -0.00472398 0.0134704)
(0.123038 -3.11864e-05 0.00505686)
(0.124937 0.00408509 -0.00242023)
(0.127782 0.00436822 -0.00732486)
(0.130216 0.00314832 -0.00972767)
(0.129849 0.00307097 -0.00947756)
(0.126813 0.00319183 -0.00691847)
(0.134164 0.00204908 -0.00658127)
(0.13117 -0.00166075 -0.00150032)
(0.131567 -0.00352422 0.00171837)
(0.139915 -0.0010156 0.000786074)
(0.149642 0.00233224 -0.00375124)
(0.150494 0.00202624 -0.0103602)
(0.142938 -0.000762556 -0.0169345)
(0.136212 -0.00384979 -0.0210704)
(0.136721 -0.00710016 -0.0221243)
(0.142151 -0.0110014 -0.0207509)
(0.146321 -0.0138854 -0.0158737)
(0.147457 -0.0122857 -0.00773383)
(0.146768 -0.00652106 -0.00127903)
(0.143957 -0.00173408 0.000605789)
(0.140271 -0.00102155 0.000859215)
(0.139195 -0.00222262 0.00321023)
(0.142267 -0.00248722 0.00749822)
(0.147789 -0.00187064 0.00982775)
(0.151933 -0.00209795 0.00731136)
(0.150016 -0.00396077 0.00261178)
(0.142407 -0.00595041 0.00126161)
(0.135023 -0.00546706 0.00413843)
(0.131176 -0.002159 0.00735497)
(0.130362 0.00167013 0.00824595)
(0.132068 0.0038901 0.00588886)
(0.134381 0.00300028 0.000142048)
(0.134139 -0.00161667 -0.00629905)
(0.1336 -0.00817858 -0.00848427)
(0.139496 -0.0119819 -0.00546366)
(0.149104 -0.00963621 -0.00178435)
(0.150208 -0.00460681 0.00150688)
(0.140788 -0.00196209 0.00802932)
(0.130137 -0.00210669 0.0142345)
(0.125207 -0.00145598 0.0135643)
(0.125692 0.00182527 0.00718487)
(0.127767 0.00452879 0.000647471)
(0.129532 0.00401924 -0.00384452)
(0.131508 0.00234063 -0.00741176)
(0.133843 0.00244227 -0.0100348)
(0.135204 0.00343284 -0.00999983)
(0.136287 0.00199895 -0.00318507)
(0.134604 1.44823e-05 0.000727288)
(0.131536 -0.00181194 0.00264892)
(0.134341 -0.000961587 0.00199788)
(0.143857 0.00163116 -0.0011033)
(0.151095 0.00289232 -0.00677402)
(0.149293 0.00202146 -0.0135498)
(0.143887 -2.09119e-05 -0.0184973)
(0.143365 -0.00338917 -0.0203593)
(0.148215 -0.00834181 -0.0203799)
(0.152551 -0.012625 -0.0182793)
(0.152589 -0.0126028 -0.0123693)
(0.149963 -0.00758051 -0.00522197)
(0.146612 -0.00175918 -0.000789479)
(0.143348 0.00062759 0.00125027)
(0.141901 -0.000195932 0.00337298)
(0.143266 -0.00166062 0.00658672)
(0.146676 -0.00240897 0.00924647)
(0.149882 -0.00267543 0.00865144)
(0.149312 -0.00303886 0.00465644)
(0.143347 -0.00340843 0.00110829)
(0.135063 -0.0032639 0.00107201)
(0.129487 -0.00229445 0.00280398)
(0.129598 -0.000667175 0.0033939)
(0.134275 0.00132342 0.00164654)
(0.138655 0.00248356 -0.00242503)
(0.138763 0.000746927 -0.00659972)
(0.137318 -0.00479089 -0.00757582)
(0.140516 -0.0108631 -0.00470549)
(0.148357 -0.0112 -0.000900976)
(0.151557 -0.00605402 0.00227416)
(0.145124 -0.00178114 0.00723935)
(0.135467 -0.000459971 0.0122116)
(0.129566 0.000771841 0.0119688)
(0.128069 0.0037086 0.00727159)
(0.127451 0.00593627 0.0030597)
(0.126117 0.00503194 0.000586543)
(0.12589 0.00246766 -0.00228585)
(0.128663 0.00127733 -0.0054379)
(0.133395 0.00198919 -0.0060826)
(0.134503 -0.000768447 -2.38059e-06)
(0.13469 -0.000101288 0.00268689)
(0.131828 0.000189931 0.00448414)
(0.131255 0.000882632 0.00416602)
(0.13682 0.00225033 0.00142141)
(0.145538 0.00354947 -0.00350546)
(0.150663 0.00400109 -0.00931533)
(0.150871 0.00331886 -0.0138532)
(0.151846 0.00062781 -0.0163033)
(0.156306 -0.0046686 -0.0178986)
(0.160027 -0.010188 -0.018491)
(0.158965 -0.0114384 -0.0155075)
(0.154589 -0.0072971 -0.00907005)
(0.149819 -0.00154449 -0.00305744)
(0.145941 0.00151541 0.000777735)
(0.144246 0.00128546 0.00338335)
(0.144921 -9.98514e-05 0.00565017)
(0.14619 -0.00139799 0.00767009)
(0.146343 -0.00255295 0.00825155)
(0.144671 -0.00299237 0.00582757)
(0.141146 -0.00214251 0.0016743)
(0.136963 -0.000922653 -0.000723253)
(0.134541 -0.000965054 -0.000199089)
(0.135567 -0.00196434 0.0012771)
(0.138984 -0.00161285 0.00112215)
(0.140934 0.000541653 -0.00131919)
(0.139231 0.00156792 -0.00377481)
(0.137173 -0.00163975 -0.00345669)
(0.139176 -0.00800443 -0.000989773)
(0.145406 -0.0111998 0.00158384)
(0.150407 -0.00792098 0.00373735)
(0.148713 -0.0026098 0.00709391)
(0.141943 0.000934517 0.0105126)
(0.134953 0.00360053 0.0103117)
(0.129631 0.00637441 0.00690563)
(0.125279 0.00769604 0.00413796)
(0.122328 0.00571481 0.00331205)
(0.122101 0.00162694 0.00232808)
(0.125041 -0.00141983 0.000207251)
(0.130219 -0.00179969 -0.00114273)
(0.132781 -0.00152211 0.00380072)
(0.133063 0.000135129 0.00467283)
(0.131166 0.00241979 0.00571243)
(0.130392 0.00452139 0.0060183)
(0.133343 0.00531349 0.00471227)
(0.139445 0.00480651 0.00117081)
(0.145925 0.00452254 -0.00397858)
(0.151363 0.00505528 -0.008538)
(0.157124 0.0042738 -0.011271)
(0.163318 -6.01084e-05 -0.0133757)
(0.166685 -0.00616194 -0.0157809)
(0.164787 -0.00882735 -0.0161246)
(0.159375 -0.00576182 -0.0121646)
(0.153586 -0.000580667 -0.00610606)
(0.148848 0.00220223 -0.00109935)
(0.145856 0.00203213 0.0022807)
(0.144646 0.00106051 0.00460118)
(0.144045 0.000296894 0.00621423)
(0.142749 -0.000607531 0.00697115)
(0.140457 -0.00110439 0.00565923)
(0.138473 -0.000339637 0.00228066)
(0.138804 0.000581653 -0.000574886)
(0.141866 -0.000629406 -0.000714772)
(0.144941 -0.00362352 0.000931272)
(0.144777 -0.0047612 0.00165892)
(0.141332 -0.00201727 0.000867769)
(0.137535 0.00141057 0.00110258)
(0.136733 0.000747241 0.00330137)
(0.139773 -0.00460843 0.00502199)
(0.14512 -0.00979806 0.0052239)
(0.149852 -0.00931149 0.00526899)
(0.150261 -0.00401307 0.00687949)
(0.1456 0.00136653 0.00892821)
(0.138305 0.00499116 0.00826298)
(0.13037 0.00745333 0.00553574)
(0.123827 0.00855251 0.00462172)
(0.120952 0.00703021 0.00636435)
(0.121894 0.00330969 0.00756053)
(0.125244 -0.000322575 0.00630166)
(0.129559 -0.00198961 0.00435228)
(0.133537 0.000774951 0.00486931)
(0.135885 0.00202304 0.00474307)
(0.135355 0.00409847 0.00558467)
(0.134046 0.00663885 0.00672272)
(0.134774 0.00819922 0.00672728)
(0.137836 0.00736844 0.004237)
(0.142032 0.00463921 -7.71745e-05)
(0.147311 0.00236147 -0.00393445)
(0.154685 0.00169908 -0.00640549)
(0.162798 0.000961625 -0.00878534)
(0.167302 -0.0013915 -0.0119792)
(0.166151 -0.00363137 -0.014352)
(0.162162 -0.00291081 -0.0134851)
(0.158755 -0.000119713 -0.00951798)
(0.155985 0.00187671 -0.00489811)
(0.152432 0.0023997 -0.00124968)
(0.148246 0.00214631 0.00118744)
(0.144298 0.00132398 0.00267009)
(0.141144 0.000197801 0.00386698)
(0.139227 -0.000274678 0.00475888)
(0.139665 0.000406329 0.00449832)
(0.143887 0.000991747 0.00266951)
(0.150712 -0.000444421 0.000529572)
(0.155251 -0.00374981 0.000470449)
(0.153251 -0.00556472 0.00308811)
(0.146343 -0.00324545 0.00616476)
(0.140394 0.0010427 0.00793809)
(0.139143 0.00277233 0.00761597)
(0.141663 -0.000202785 0.00554565)
(0.14562 -0.00563079 0.00395525)
(0.14932 -0.00756216 0.00350344)
(0.149825 -0.00353821 0.00375389)
(0.145131 0.00281263 0.00503702)
(0.136903 0.00726456 0.00569238)
(0.128358 0.00913544 0.00509234)
(0.122499 0.00929211 0.00534343)
(0.120783 0.00794077 0.00707416)
(0.12225 0.00529238 0.00832965)
(0.125336 0.00243245 0.00779725)
(0.129368 0.000753303 0.00614632)
(0.135381 0.00341982 0.00356019)
(0.136832 0.00351404 0.00405617)
(0.136226 0.00449584 0.00445493)
(0.134779 0.00645236 0.00519721)
(0.134834 0.00829716 0.00603772)
(0.137286 0.0081571 0.00582468)
(0.141221 0.00523447 0.00344313)
(0.145447 0.00110965 -0.000565016)
(0.150248 -0.00178514 -0.00441602)
(0.156715 -0.00266243 -0.007162)
(0.163419 -0.00264351 -0.00924229)
(0.166604 -0.00233406 -0.0110402)
(0.164885 -0.000995116 -0.0117126)
(0.161239 0.00114733 -0.0103576)
(0.15853 0.00252145 -0.00747421)
(0.156649 0.00300449 -0.00439367)
(0.154495 0.00350154 -0.00225639)
(0.151382 0.00347131 -0.00122944)
(0.147305 0.00188553 -0.000235418)
(0.143723 -0.000867772 0.00177688)
(0.14299 -0.00361552 0.00407937)
(0.146363 -0.00589497 0.00499479)
(0.151904 -0.00760674 0.00380774)
(0.155428 -0.00858684 0.00251688)
(0.154148 -0.00812495 0.00393392)
(0.149141 -0.00474233 0.00714275)
(0.144048 0.0014866 0.0081028)
(0.140972 0.00673472 0.00486326)
(0.139874 0.00628767 -5.01215e-05)
(0.141002 0.000231325 -0.00225948)
(0.144157 -0.00537363 -0.000848327)
(0.146408 -0.00460881 0.00122667)
(0.144098 0.00177958 0.00271596)
(0.137633 0.00818825 0.00393243)
(0.131094 0.0117798 0.0044329)
(0.127685 0.0128955 0.00409881)
(0.127611 0.0119968 0.00316297)
(0.129056 0.00941066 0.00217629)
(0.130715 0.00639222 0.00198352)
(0.132855 0.00428124 0.00269282)
(0.142069 0.00451011 -0.00361817)
(0.14109 0.00500981 0.000506467)
(0.138183 0.00535531 0.00399897)
(0.134861 0.00516352 0.00690081)
(0.133665 0.00419971 0.00939784)
(0.135889 0.00230211 0.011012)
(0.141113 -0.000187613 0.010553)
(0.147662 -0.00255734 0.00730895)
(0.153485 -0.0039969 0.00204827)
(0.157142 -0.00394727 -0.00364539)
(0.157998 -0.00253371 -0.00827402)
(0.156355 -0.000249366 -0.0105132)
(0.153191 0.0022347 -0.0101972)
(0.149736 0.00392401 -0.00874628)
(0.147078 0.00415064 -0.00746594)
(0.146098 0.00330422 -0.00636611)
(0.147328 0.0021105 -0.00510284)
(0.15015 0.00117447 -0.00406799)
(0.152735 0.000985824 -0.00360537)
(0.15375 0.00104381 -0.00277641)
(0.153565 -0.00059218 -0.000491829)
(0.153405 -0.00476235 0.00274175)
(0.153787 -0.00913527 0.00558358)
(0.154155 -0.0101662 0.00733408)
(0.153306 -0.00712565 0.00822995)
(0.150319 -0.00215366 0.00836947)
(0.14603 0.00262828 0.00661242)
(0.142393 0.0054114 0.00237386)
(0.140765 0.00451723 -0.00242126)
(0.14153 1.76822e-05 -0.00426152)
(0.143753 -0.00521154 -0.00166724)
(0.145519 -0.0065368 0.00267071)
(0.144762 -0.00207834 0.00564222)
(0.141656 0.00498105 0.00663497)
(0.13913 0.0108277 0.00569118)
(0.139281 0.0139444 0.00256021)
(0.14108 0.014008 -0.00209615)
(0.142248 0.011299 -0.00640727)
(0.142172 0.0075514 -0.00841655)
(0.141973 0.00501264 -0.00720174)
(0.151561 0.00381229 -0.00961485)
(0.148818 0.0054808 -0.00691887)
(0.146934 0.00660255 -0.00384499)
(0.146812 0.00585018 -0.000459802)
(0.148282 0.00334519 0.00338544)
(0.15014 0.000128797 0.00752345)
(0.151228 -0.00260119 0.0114177)