/*--------------------------------*- C++ -*----------------------------------*\
| =========                 |                                                 |
| \\      /  F ield         | OpenFOAM: The Open Source CFD Toolbox           |
|  \\    /   O peration     | Version:  2306                                  |
|   \\  /    A nd           | Website:  www.openfoam.com                      |
|    \\/     M anipulation  |                                                 |
\*---------------------------------------------------------------------------*/
FoamFile
{
    version     2.0;
    format      ascii;
    arch        "LSB;label=32;scalar=64";
    class       volVectorField;
    location    "7.5";
    object      UMean;
}
// * * * * * * * * * * * * * * * * * * * * * * * * * * * * * * * * * * * * * //

dimensions      [0 1 -1 0 0 0 0];

internalField   nonuniform List<vector> 
60000
(
(0.00934043 3.25535e-05 0.0015188)
(0.0096155 2.41016e-05 0.00174437)
(0.00974634 1.75628e-05 0.00194166)
(0.00973206 1.2705e-05 0.00209304)
(0.00958818 8.01386e-06 0.00214481)
(0.0093229 3.6016e-06 0.00205448)
(0.00895581 5.27357e-07 0.00183899)
(0.00850835 -1.40432e-06 0.0015698)
(0.00800828 -3.88777e-06 0.0013291)
(0.00749997 -7.58172e-06 0.00117502)
(0.00701523 -1.16338e-05 0.00111817)
(0.00657592 -1.38995e-05 0.00111173)
(0.00621408 -1.41526e-05 0.00108644)
(0.00595778 -1.28039e-05 0.00100346)
(0.00583105 -1.04324e-05 0.000862881)
(0.00582961 -7.82725e-06 0.000677012)
(0.00593263 -4.26241e-06 0.000458982)
(0.00611746 -4.53648e-07 0.000218808)
(0.00635824 3.39146e-06 -3.33747e-05)
(0.00664243 7.1749e-06 -0.000296298)
(0.0069815 1.06937e-05 -0.000580181)
(0.00736952 1.25624e-05 -0.000881524)
(0.00776901 1.25054e-05 -0.00117527)
(0.00812841 9.42794e-06 -0.00144246)
(0.008385 3.86176e-06 -0.00168272)
(0.00848579 -1.90751e-06 -0.00190454)
(0.00842788 -7.17935e-06 -0.00210135)
(0.00822474 -1.02874e-05 -0.00224118)
(0.00788417 -9.15951e-06 -0.00229611)
(0.00744929 -4.3539e-06 -0.00227207)
(0.00702299 1.04871e-06 -0.00218897)
(0.00670719 5.67594e-06 -0.00202856)
(0.00655453 1.05328e-05 -0.00175456)
(0.00658112 1.53381e-05 -0.00138388)
(0.00677951 2.12487e-05 -0.000964709)
(0.00712154 2.74956e-05 -0.000514913)
(0.00755234 3.42786e-05 -4.08568e-05)
(0.00802204 4.00946e-05 0.000436384)
(0.00849918 4.24367e-05 0.000879527)
(0.00895184 3.95852e-05 0.00124176)
(0.0283808 0.000126578 0.00403605)
(0.0293127 8.61615e-05 0.0045935)
(0.0297829 6.11792e-05 0.00508257)
(0.0298026 4.57689e-05 0.00546347)
(0.029414 3.48551e-05 0.00560275)
(0.0286268 2.77375e-05 0.00538518)
(0.0275091 2.26096e-05 0.00484522)
(0.0261662 1.26641e-05 0.00416534)
(0.024703 -1.12074e-05 0.00355997)
(0.0232192 -4.83167e-05 0.00317194)
(0.0217685 -8.65119e-05 0.00301238)
(0.0204009 -0.000116697 0.00295524)
(0.0192225 -0.000137519 0.00284408)
(0.0183371 -0.000146356 0.00260464)
(0.0178259 -0.000140672 0.00223869)
(0.0176815 -0.000121274 0.00176308)
(0.0178582 -9.16631e-05 0.00120547)
(0.0183165 -5.92225e-05 0.000595332)
(0.0190038 -2.92655e-05 -5.21026e-05)
(0.0198831 -7.36946e-06 -0.000749877)
(0.0209646 5.12654e-06 -0.00152518)
(0.0222106 8.02731e-06 -0.00235805)
(0.0235152 -9.49946e-07 -0.00316799)
(0.0247349 -2.50861e-05 -0.0038863)
(0.0256777 -5.77836e-05 -0.00449411)
(0.0261601 -8.92314e-05 -0.0050152)
(0.0261256 -0.000110419 -0.00545687)
(0.0255636 -0.000108225 -0.0057685)
(0.0244963 -8.07304e-05 -0.00590011)
(0.0230953 -4.50464e-05 -0.0058647)
(0.0217091 -1.82942e-05 -0.00568016)
(0.020661 1.95985e-06 -0.00527219)
(0.0201003 2.61153e-05 -0.00455909)
(0.0200546 5.82391e-05 -0.00359339)
(0.0205001 0.000101171 -0.00247652)
(0.0213877 0.000149261 -0.00124808)
(0.0225997 0.000193119 4.46599e-05)
(0.0240217 0.000216424 0.00130881)
(0.0255595 0.00020878 0.00244316)
(0.027071 0.000173561 0.00334996)
(0.0478535 0.00019102 0.00576556)
(0.0496336 9.86615e-05 0.00660768)
(0.0506255 4.8667e-05 0.00733643)
(0.0508424 2.36368e-05 0.00793527)
(0.0503448 1.2618e-05 0.00823645)
(0.0491408 1.38368e-05 0.00805018)
(0.0473606 1.70664e-05 0.00736905)
(0.0452173 1.91347e-06 0.0064195)
(0.0428772 -5.15591e-05 0.00552106)
(0.0404472 -0.000138528 0.00490805)
(0.0379919 -0.00022677 0.0046148)
(0.0356012 -0.00029779 0.00447428)
(0.0334536 -0.000350566 0.00428299)
(0.0317236 -0.000376727 0.00394854)
(0.0305637 -0.000366832 0.00346503)
(0.0300038 -0.000320207 0.00283122)
(0.0300168 -0.000250345 0.00207223)
(0.030577 -0.000176391 0.00123607)
(0.0316173 -0.000111486 0.000340958)
(0.0330631 -7.03313e-05 -0.000648758)
(0.0349037 -5.65542e-05 -0.00178946)
(0.0370678 -6.71119e-05 -0.00306351)
(0.0393945 -0.000109227 -0.00434267)
(0.0416659 -0.000186763 -0.00548783)
(0.0435699 -0.000278571 -0.00642953)
(0.0447588 -0.000356901 -0.00719049)
(0.0450553 -0.000395253 -0.00781165)
(0.0443719 -0.00036376 -0.0082671)
(0.0427114 -0.000269775 -0.00851273)
(0.0403408 -0.000165661 -0.00856898)
(0.037847 -9.40002e-05 -0.00844068)
(0.0358178 -4.45401e-05 -0.00799314)
(0.0345603 1.30979e-05 -0.00708561)
(0.0341489 9.34352e-05 -0.00577035)
(0.0345574 0.00019918 -0.00417658)
(0.0357502 0.000315916 -0.00235924)
(0.037605 0.000415459 -0.000397887)
(0.039979 0.000454952 0.00153977)
(0.0426909 0.000414006 0.00328821)
(0.0454328 0.000311545 0.00470059)
(0.0668102 0.00013636 0.00626529)
(0.0696635 -1.77139e-05 0.00744973)
(0.0714388 -8.52803e-05 0.00843888)
(0.0721268 -0.000101529 0.0092903)
(0.071788 -9.14254e-05 0.00987455)
(0.0704171 -5.74132e-05 0.00994468)
(0.0681993 -2.05484e-05 0.00937924)
(0.0654785 -1.97731e-05 0.00834913)
(0.0624855 -9.166e-05 0.00724261)
(0.0592681 -0.000230357 0.00642118)
(0.0558516 -0.000380791 0.00598574)
(0.0523798 -0.000507012 0.00574657)
(0.0491127 -0.000607496 0.00547172)
(0.0462833 -0.000668076 0.0050824)
(0.0441178 -0.000668795 0.00458614)
(0.0427261 -0.000604107 0.00395227)
(0.0421617 -0.000497627 0.00317379)
(0.0424668 -0.000386835 0.00230968)
(0.0435962 -0.000294329 0.00139183)
(0.0454324 -0.000245885 0.000358)
(0.0479277 -0.000250134 -0.00090635)
(0.0509777 -0.000298815 -0.00243497)
(0.0543771 -0.000403177 -0.00409285)
(0.0578567 -0.000566222 -0.00566793)
(0.0610115 -0.000744368 -0.0069987)
(0.0633156 -0.00088111 -0.00805821)
(0.0644189 -0.000928952 -0.00890962)
(0.0641132 -0.0008325 -0.00957638)
(0.0623195 -0.000615643 -0.0100337)
(0.0592746 -0.000391598 -0.0103108)
(0.055692 -0.000249006 -0.0104255)
(0.0524311 -0.000170428 -0.0102109)
(0.0500649 -9.02414e-05 -0.00945077)
(0.0488312 3.16147e-05 -0.00815122)
(0.0487527 0.000203977 -0.00643689)
(0.0498343 0.000398527 -0.0043545)
(0.0519955 0.000565379 -0.00197624)
(0.0551412 0.000625096 0.000479774)
(0.0590181 0.000540461 0.00278631)
(0.0631016 0.000350623 0.00474138)
(0.083648 -0.000165727 0.00478781)
(0.0877493 -0.000373186 0.00652749)
(0.090598 -0.000436228 0.00794996)
(0.0921474 -0.000395968 0.00917682)
(0.0924193 -0.000313756 0.0102077)
(0.0913375 -0.000209877 0.0108095)
(0.0890852 -0.000107212 0.0107034)
(0.0861476 -5.9918e-05 0.00987503)
(0.0828851 -0.000118055 0.00870004)
(0.0792657 -0.000283579 0.00771293)
(0.0751501 -0.000489397 0.00717252)
(0.0706878 -0.00067791 0.00687218)
(0.0662549 -0.000837237 0.00650504)
(0.0621501 -0.000948087 0.0060281)
(0.0586527 -0.000982097 0.00553862)
(0.0559596 -0.000926634 0.00501524)
(0.0542409 -0.000811978 0.00439252)
(0.0536736 -0.000695871 0.00371533)
(0.054311 -0.00061077 0.00304998)
(0.0560356 -0.000592502 0.00233124)
(0.058774 -0.000660393 0.00136506)
(0.0624168 -0.000802264 -1.39129e-05)
(0.0667313 -0.00102041 -0.00177082)
(0.0714051 -0.00131046 -0.00368154)
(0.0759859 -0.00160321 -0.00547509)
(0.079789 -0.00180859 -0.0069975)
(0.0822711 -0.00185282 -0.00826737)
(0.0831063 -0.00164143 -0.00935453)
(0.0820971 -0.00120777 -0.010255)
(0.0792413 -0.000760976 -0.0109629)
(0.0751135 -0.000483657 -0.0115029)
(0.0707051 -0.000364073 -0.0117515)
(0.0668982 -0.000292503 -0.0114707)
(0.0642601 -0.000181484 -0.0106135)
(0.0630296 9.11266e-06 -0.0092682)
(0.0633392 0.000245701 -0.00742659)
(0.065174 0.00045829 -0.0050842)
(0.0685513 0.000534561 -0.00245723)
(0.073257 0.000410887 0.000197552)
(0.0785846 0.000136711 0.00266472)
(0.0961206 -0.000966767 0.000352253)
(0.101377 -0.00119134 0.00288611)
(0.1054 -0.00121773 0.00508372)
(0.108224 -0.00105791 0.00694124)
(0.109806 -0.000791781 0.00864224)
(0.109839 -0.000500994 0.0101195)
(0.108256 -0.000265452 0.0109488)
(0.105639 -0.000137572 0.010778)
(0.102629 -0.000140642 0.00979922)
(0.0992378 -0.000283145 0.00872128)
(0.0950617 -0.000505055 0.00811923)
(0.0900337 -0.000743734 0.00786472)
(0.0846275 -0.00096478 0.00747376)
(0.0792876 -0.00113136 0.00685359)
(0.0743485 -0.00121159 0.00626959)
(0.0700504 -0.00119102 0.00582623)
(0.0666411 -0.00110596 0.00541702)
(0.0644408 -0.00103255 0.00502802)
(0.0636815 -0.001018 0.00476897)
(0.0643337 -0.00110581 0.00464399)
(0.0663316 -0.00132991 0.00443523)
(0.069637 -0.00167936 0.00382252)
(0.0741227 -0.00214406 0.00260657)
(0.0795586 -0.00268369 0.000812273)
(0.0854835 -0.00316105 -0.00130378)
(0.0910205 -0.00344162 -0.00339532)
(0.0953766 -0.00344898 -0.00529432)
(0.0981378 -0.00306628 -0.00704463)
(0.0991415 -0.00230674 -0.00868773)
(0.0980441 -0.00145064 -0.0101775)
(0.094816 -0.000847902 -0.0114287)
(0.0902026 -0.000582468 -0.0123184)
(0.0852652 -0.000509982 -0.0127126)
(0.0809557 -0.000469018 -0.0126179)
(0.0778927 -0.000366043 -0.0121109)
(0.076532 -0.000198199 -0.0111095)
(0.0770051 -3.42438e-05 -0.00947223)
(0.079488 -1.74037e-05 -0.00733475)
(0.0840309 -0.000233847 -0.00491027)
(0.0899798 -0.000601225 -0.00230911)
(0.102967 -0.00247636 -0.00674921)
(0.108593 -0.00266507 -0.00363935)
(0.113054 -0.00259254 -0.00048507)
(0.116744 -0.0023131 0.00226655)
(0.120025 -0.00182808 0.00473209)
(0.122327 -0.0012107 0.00722533)
(0.122768 -0.000659265 0.00944008)
(0.121407 -0.000333481 0.0105867)
(0.119318 -0.000221301 0.0103148)
(0.116948 -0.000264861 0.00932489)
(0.11374 -0.000426479 0.00866512)
(0.109137 -0.000665866 0.00854754)
(0.103407 -0.000933363 0.00832568)
(0.0972091 -0.00114948 0.00764191)
(0.0910776 -0.00126955 0.0068615)
(0.0852968 -0.00128581 0.00634868)
(0.080095 -0.00124325 0.00604552)
(0.0758529 -0.00123736 0.00582913)
(0.0730067 -0.00134519 0.00579348)
(0.0717393 -0.00163062 0.00608218)
(0.0720587 -0.0021337 0.00661542)
(0.0740131 -0.00281706 0.00703473)
(0.0775754 -0.00365303 0.00693776)
(0.0826403 -0.00457746 0.00605769)
(0.0890274 -0.0053622 0.00433784)
(0.0958797 -0.00575407 0.00205008)
(0.101975 -0.00570236 -0.000394272)
(0.106652 -0.00515254 -0.00280504)
(0.109997 -0.00407991 -0.00518572)
(0.11184 -0.00273151 -0.00754979)
(0.111465 -0.00156738 -0.00976431)
(0.108625 -0.000885827 -0.011534)
(0.104003 -0.000643103 -0.0126974)
(0.0987677 -0.000628487 -0.0134572)
(0.093989 -0.000686207 -0.0140173)
(0.0905939 -0.000733511 -0.0142275)
(0.0889702 -0.000766514 -0.0137954)
(0.0893099 -0.000949185 -0.012768)
(0.0919594 -0.00140336 -0.0113097)
(0.0968732 -0.00200158 -0.0093535)
(0.107569 -0.00439923 -0.013445)
(0.112183 -0.00460009 -0.0105015)
(0.115845 -0.00436007 -0.00689152)
(0.118811 -0.00395196 -0.00332936)
(0.122194 -0.00338272 -0.000183095)
(0.126174 -0.00253025 0.00289064)
(0.129332 -0.00157174 0.00608644)
(0.13028 -0.000872156 0.00870556)
(0.129558 -0.000566745 0.00974575)
(0.128827 -0.0004775 0.00924734)
(0.127911 -0.0004498 0.00855415)
(0.125435 -0.000534713 0.00855294)
(0.120853 -0.000750086 0.00870474)
(0.114732 -0.000976388 0.00825412)
(0.108043 -0.00111538 0.00739702)
(0.10138 -0.00115697 0.00674821)
(0.0949439 -0.00115038 0.00643188)
(0.0890361 -0.00119698 0.0062268)
(0.0842381 -0.00141246 0.00613161)
(0.081055 -0.0018914 0.00640446)
(0.0796646 -0.00268126 0.00720791)
(0.0801118 -0.00370785 0.00835804)
(0.0823767 -0.00489168 0.00936852)
(0.0863397 -0.00617922 0.00972073)
(0.0919379 -0.00729627 0.00904828)
(0.0987012 -0.00787178 0.00729778)
(0.10527 -0.00781987 0.00482803)
(0.110397 -0.00721339 0.00211839)
(0.114208 -0.00605981 -0.000605815)
(0.117563 -0.00448194 -0.0034141)
(0.120332 -0.00286562 -0.00629283)
(0.121231 -0.00159052 -0.00890721)
(0.119353 -0.000854716 -0.0109008)
(0.115194 -0.00059736 -0.0124449)
(0.110077 -0.00067505 -0.0139776)
(0.105485 -0.000951303 -0.0154273)
(0.102282 -0.00127695 -0.0163261)
(0.100688 -0.0017561 -0.0165427)
(0.100917 -0.00257812 -0.0162373)
(0.103296 -0.0036183 -0.0153173)
(0.114385 -0.00592553 -0.0168023)
(0.117094 -0.00637587 -0.0146664)
(0.119264 -0.00606813 -0.011461)
(0.120787 -0.0055282 -0.00779962)
(0.122647 -0.00498391 -0.00432252)
(0.125955 -0.00417129 -0.00107192)
(0.1302 -0.00295699 0.00226439)
(0.133197 -0.00180284 0.00548685)
(0.133656 -0.00122353 0.00763812)
(0.133111 -0.00114199 0.00801785)
(0.133713 -0.00105667 0.00744878)
(0.134517 -0.000862659 0.00742664)
(0.133209 -0.000786051 0.00798565)
(0.129076 -0.000846514 0.00812466)
(0.123172 -0.000901848 0.00759696)
(0.116764 -0.000891046 0.0070328)
(0.110283 -0.00086939 0.00678617)
(0.103815 -0.000951434 0.00663914)
(0.0978787 -0.00124337 0.00646315)
(0.0932281 -0.0018345 0.00654556)
(0.090343 -0.00279465 0.00723535)
(0.0893953 -0.00405009 0.00857083)
(0.0903693 -0.00547016 0.0101638)
(0.0930463 -0.00701104 0.0113875)
(0.0973434 -0.00841035 0.0115924)
(0.103008 -0.00921898 0.0104921)
(0.108844 -0.00919554 0.00833313)
(0.113084 -0.00850115 0.00578653)
(0.115209 -0.00734545 0.00336828)
(0.116606 -0.00584405 0.00101463)
(0.118802 -0.00416466 -0.00159882)
(0.121581 -0.0025444 -0.00432927)
(0.123099 -0.0012491 -0.00673489)
(0.121953 -0.00048367 -0.00878978)
(0.118788 -0.000346894 -0.0109154)
(0.115468 -0.000766975 -0.0132333)
(0.113201 -0.00139607 -0.0153181)
(0.112025 -0.00211419 -0.0167934)
(0.111706 -0.00319986 -0.0176077)
(0.112396 -0.00465709 -0.0177105)
(0.122445 -0.00647528 -0.0164656)
(0.123772 -0.00732119 -0.0156632)
(0.124642 -0.0071788 -0.0136713)
(0.124967 -0.00661277 -0.0107392)
(0.125412 -0.00610902 -0.00748788)
(0.126991 -0.0055523 -0.00431504)
(0.130267 -0.00450475 -0.00115077)
(0.13415 -0.00304879 0.00203063)
(0.136311 -0.0019766 0.00467277)
(0.135995 -0.00180258 0.00588875)
(0.135494 -0.0020593 0.00575464)
(0.136903 -0.00199165 0.0056507)
(0.138626 -0.00158373 0.00636406)
(0.137743 -0.00120787 0.00711003)
(0.133787 -0.0010215 0.00719259)
(0.1285 -0.000923962 0.00699728)
(0.123237 -0.000825461 0.00702975)
(0.117962 -0.000807154 0.00717433)
(0.11246 -0.00104217 0.0071476)
(0.107281 -0.00164187 0.00709924)
(0.103219 -0.00266223 0.00747619)
(0.10085 -0.00403841 0.00854339)
(0.100471 -0.00561258 0.010071)
(0.101941 -0.00730046 0.0114311)
(0.104935 -0.00886673 0.0119123)
(0.109119 -0.009823 0.0111397)
(0.113471 -0.00977654 0.00930297)
(0.116329 -0.00888988 0.00710815)
(0.116855 -0.00757826 0.00523478)
(0.115913 -0.00617348 0.00373788)
(0.115487 -0.00476661 0.00207994)
(0.11684 -0.00321791 5.40524e-05)
(0.119008 -0.00157623 -0.00192455)
(0.119919 -0.00023804 -0.00367171)
(0.11908 0.000283762 -0.005557)
(0.117982 -0.00014567 -0.00787959)
(0.117919 -0.0010612 -0.0104533)
(0.11875 -0.00201917 -0.0128992)
(0.119954 -0.00321108 -0.0148739)
(0.121145 -0.00484423 -0.0161319)
(0.128463 -0.00614689 -0.013568)
(0.129855 -0.00734132 -0.014323)
(0.13032 -0.00753609 -0.0140713)
(0.129983 -0.00715073 -0.0125485)
(0.129677 -0.00672603 -0.0100632)
(0.130054 -0.00639465 -0.0072122)
(0.13169 -0.00573645 -0.00423034)
(0.134641 -0.00448319 -0.00116849)
(0.137817 -0.00307117 0.00167018)
(0.139264 -0.00237246 0.00356667)
(0.138724 -0.00262112 0.00413909)
(0.138539 -0.00305257 0.00420046)
(0.140257 -0.00287962 0.00484295)
(0.141971 -0.00214724 0.00587945)
(0.141045 -0.00143894 0.00650194)
(0.137461 -0.00112971 0.00672957)
(0.13306 -0.00109971 0.00706334)
(0.129025 -0.00111673 0.00755385)
(0.125216 -0.00120809 0.00784135)
(0.121209 -0.00159943 0.00778231)
(0.117157 -0.00249969 0.00775531)
(0.113845 -0.00391906 0.00827474)
(0.112149 -0.0056335 0.00935319)
(0.112347 -0.00741335 0.0103709)
(0.114016 -0.00898893 0.0106487)
(0.11661 -0.00985357 0.00991959)
(0.11925 -0.00958942 0.00839466)
(0.120696 -0.00840587 0.00663306)
(0.120103 -0.00686847 0.00528774)
(0.117984 -0.00544455 0.00450285)
(0.115816 -0.0043248 0.00371742)
(0.115178 -0.00316683 0.00247829)
(0.116309 -0.00159862 0.00110039)
(0.117674 7.64126e-05 9.13796e-06)
(0.11836 0.00100639 -0.00106382)
(0.119005 0.000727277 -0.00262964)
(0.120503 -0.000336979 -0.00478212)
(0.122594 -0.00146205 -0.00731716)
(0.124718 -0.00267446 -0.00989028)
(0.126659 -0.00431902 -0.0120588)
(0.13239 -0.00516665 -0.010268)
(0.134501 -0.00659777 -0.0119235)
(0.13552 -0.00718066 -0.0131073)
(0.135104 -0.00717212 -0.0131077)
(0.134245 -0.00701297 -0.0116908)
(0.133886 -0.00685629 -0.00939927)
(0.134318 -0.0065028 -0.00675561)
(0.135772 -0.00569433 -0.00386548)
(0.138214 -0.00451195 -0.000939627)
(0.140614 -0.00351617 0.00145296)
(0.141369 -0.00327427 0.00273888)
(0.140791 -0.00367672 0.00317775)
(0.141005 -0.00391213 0.00373226)
(0.142756 -0.00341365 0.00472397)
(0.14417 -0.00240755 0.00558423)
(0.14334 -0.00156599 0.00610067)
(0.140451 -0.00126991 0.0065976)
(0.136984 -0.00140938 0.00717219)
(0.134138 -0.00166718 0.00756061)
(0.132045 -0.00191004 0.0074739)
(0.129818 -0.0024003 0.00704364)
(0.127018 -0.00359393 0.0069165)
(0.124556 -0.00541042 0.00747089)
(0.123357 -0.00732776 0.00813668)
(0.123379 -0.00884819 0.00816664)
(0.124198 -0.00950636 0.00750805)
(0.125293 -0.00895732 0.00649032)
(0.125733 -0.00740769 0.00533082)
(0.12454 -0.00556991 0.00438094)
(0.12189 -0.00407872 0.00396292)
(0.119035 -0.00314595 0.00364384)
(0.117345 -0.00240947 0.00275385)
(0.117391 -0.00120711 0.00151487)
(0.11846 0.00044561 0.000623898)
(0.119845 0.001608 8.93035e-05)
(0.121663 0.00157173 -0.00068072)
(0.124013 0.000579068 -0.00197686)
(0.126461 -0.000548568 -0.00377935)
(0.128503 -0.00168295 -0.00600375)
(0.130322 -0.00327664 -0.00829612)
(0.136223 -0.00414432 -0.00879672)
(0.138731 -0.00567241 -0.0103738)
(0.140408 -0.00644547 -0.0119105)
(0.140173 -0.00675946 -0.0127556)
(0.138828 -0.00693142 -0.0121938)
(0.137707 -0.00696467 -0.0104884)
(0.137347 -0.00678805 -0.00827696)
(0.137768 -0.0063644 -0.00574861)
(0.139108 -0.00569326 -0.00290917)
(0.14101 -0.00489827 -0.000176541)
(0.142322 -0.00433047 0.00173277)
(0.142219 -0.0043474 0.0025642)
(0.141753 -0.00463969 0.00301369)
(0.142337 -0.00451636 0.00377135)
(0.143666 -0.00367696 0.00471194)
(0.144155 -0.00251764 0.0054705)
(0.142923 -0.00167234 0.00597432)
(0.140481 -0.00149549 0.00615321)
(0.137997 -0.00188258 0.00593825)
(0.136652 -0.00234361 0.00539608)
(0.136515 -0.00255919 0.00461687)
(0.13603 -0.00308648 0.00401703)
(0.134388 -0.00450049 0.00417174)
(0.132368 -0.00634338 0.00473497)
(0.130814 -0.00782439 0.00485357)
(0.129978 -0.00840321 0.0045232)
(0.129874 -0.00781255 0.00426372)
(0.129931 -0.00611554 0.00399933)
(0.128925 -0.00398866 0.0034562)
(0.126384 -0.00228773 0.00297355)
(0.123411 -0.00142277 0.00264794)
(0.121402 -0.00104676 0.00181114)
(0.120942 -0.000341073 0.000322333)
(0.121593 0.000915023 -0.000956493)
(0.12301 0.0019203 -0.0015458)
(0.125374 0.00194457 -0.00193277)
(0.128309 0.00115857 -0.00262104)
(0.130895 0.000210531 -0.00373276)
(0.132681 -0.000762558 -0.00528681)
(0.134183 -0.00225729 -0.00710053)
(0.141407 -0.00347235 -0.00911685)
(0.143679 -0.00490671 -0.0101735)
(0.145402 -0.0055825 -0.0114214)
(0.145323 -0.00590823 -0.0123803)
(0.143575 -0.00626413 -0.0122309)
(0.141564 -0.00648315 -0.0109215)
(0.140347 -0.00646374 -0.00905755)
(0.140147 -0.00630861 -0.00691059)
(0.14084 -0.00610727 -0.00432492)
(0.142075 -0.005683 -0.00142982)
(0.143166 -0.00504055 0.00100712)
(0.143314 -0.00462978 0.00225646)
(0.142527 -0.0047073 0.00266518)
(0.141716 -0.004782 0.00322943)
(0.141352 -0.00428369 0.0042975)
(0.14098 -0.00323469 0.00540732)
(0.140069 -0.00215958 0.00590566)
(0.138619 -0.00155112 0.00540047)
(0.136789 -0.00170309 0.00416293)
(0.135254 -0.00236251 0.00295652)
(0.135311 -0.0029054 0.00215413)
(0.136722 -0.00316642 0.0016293)
(0.137552 -0.00385385 0.0015318)
(0.136913 -0.00511972 0.00188704)
(0.135494 -0.00632658 0.00224907)
(0.134101 -0.00683373 0.00253397)
(0.133336 -0.00634725 0.00304359)
(0.133279 -0.00483908 0.00352577)
(0.132974 -0.00271504 0.00332565)
(0.131309 -0.00082487 0.00253668)
(0.128864 0.000173041 0.00173307)
(0.127151 0.000475102 0.000645011)
(0.126825 0.000856028 -0.00115027)
(0.127513 0.0016069 -0.00298064)
(0.128853 0.00206443 -0.00402121)
(0.131085 0.00172553 -0.00448809)
(0.13401 0.00100812 -0.00499364)
(0.136616 0.000385996 -0.00577395)
(0.138314 -0.000305331 -0.00683538)
(0.139634 -0.00164495 -0.00802912)
(0.14589 -0.00265672 -0.00872971)
(0.147767 -0.00387136 -0.00962545)
(0.149425 -0.00445207 -0.0108082)
(0.14987 -0.00474059 -0.0118409)
(0.148555 -0.00508625 -0.0119765)
(0.146229 -0.00536926 -0.0110192)
(0.144264 -0.00547194 -0.00940503)
(0.143413 -0.00558077 -0.0074862)
(0.143586 -0.00577371 -0.00515362)
(0.144231 -0.00572616 -0.0023622)
(0.144717 -0.00512963 0.000338166)
(0.144483 -0.00432483 0.00200346)
(0.143238 -0.00392107 0.00251318)
(0.141281 -0.00392592 0.00280917)
(0.139328 -0.00378568 0.0035618)
(0.137795 -0.00317804 0.00442151)
(0.136673 -0.00229927 0.00453761)
(0.135738 -0.00154386 0.0034751)
(0.134608 -0.00136386 0.00172876)
(0.133348 -0.00197439 0.000389112)
(0.133179 -0.00298828 -2.45491e-05)
(0.135096 -0.00366503 4.0404e-06)
(0.137884 -0.00398447 9.26851e-05)
(0.139507 -0.00446108 0.000495327)
(0.139343 -0.00510542 0.00124555)
(0.138047 -0.00545429 0.00212227)
(0.136704 -0.00510469 0.00307589)
(0.13599 -0.00391668 0.00388375)
(0.135499 -0.00204328 0.00400735)
(0.134129 -0.000148318 0.00332644)
(0.131945 0.000986923 0.00237071)
(0.130409 0.0013175 0.00118182)
(0.130429 0.00150016 -0.000574859)
(0.131602 0.00185065 -0.00241705)
(0.133162 0.00186339 -0.00359445)
(0.134966 0.00118876 -0.00423876)
(0.137287 0.000418491 -0.00497532)
(0.139953 6.10773e-05 -0.0059726)
(0.142345 -0.000222598 -0.00702839)
(0.144193 -0.00116418 -0.0079502)
(0.14626 -0.00159163 -0.00624859)
(0.148588 -0.00246138 -0.00769161)
(0.150856 -0.00298765 -0.00935967)
(0.152424 -0.00333898 -0.0108162)
(0.152426 -0.00363585 -0.0114632)
(0.150873 -0.00378628 -0.0109989)
(0.148881 -0.0038536 -0.00959757)
(0.147606 -0.00412521 -0.00769214)
(0.147184 -0.0046402 -0.0055224)
(0.147069 -0.00493006 -0.00306429)
(0.146721 -0.00451996 -0.000429025)
(0.145879 -0.00358008 0.00167945)
(0.144412 -0.00277848 0.0026289)
(0.142376 -0.00246351 0.00273715)
(0.140264 -0.002379 0.00269068)
(0.138626 -0.002189 0.00267679)
(0.137551 -0.00179875 0.00232564)
(0.136853 -0.0012982 0.00126344)
(0.136325 -0.000970454 -0.000376307)
(0.135914 -0.00134812 -0.00177562)
(0.136049 -0.00248085 -0.00215437)
(0.13756 -0.00373773 -0.00170631)
(0.140164 -0.00437972 -0.00106898)
(0.142256 -0.00452756 -0.000303977)
(0.14256 -0.00450083 0.000808764)
(0.141183 -0.00433418 0.0021679)
(0.1392 -0.00391879 0.00353229)
(0.137532 -0.00304025 0.0046269)
(0.136085 -0.00150049 0.00517683)
(0.134143 0.000334641 0.00512815)
(0.131657 0.00155967 0.00469683)
(0.129761 0.00188054 0.00386379)
(0.12939 0.00191091 0.0024719)
(0.13023 0.00205271 0.00110353)
(0.131444 0.00193784 0.00033234)
(0.132693 0.00123267 -0.000232083)
(0.134451 0.000387778 -0.00124288)
(0.137168 -3.53689e-05 -0.00262921)
(0.140544 -0.000194359 -0.00394176)
(0.143695 -0.00066466 -0.00507751)
(0.144855 -0.00043703 -0.00332729)
(0.147878 -0.000721674 -0.00499115)
(0.150901 -0.00105453 -0.0069712)
(0.153428 -0.00144836 -0.0088988)
(0.15471 -0.00177208 -0.0101506)
(0.154518 -0.0018619 -0.0102372)
(0.153364 -0.00187482 -0.00920722)
(0.152115 -0.00220335 -0.0075238)
(0.15115 -0.00294132 -0.00564046)
(0.150127 -0.00356121 -0.00361389)
(0.148687 -0.00347373 -0.00128356)
(0.146856 -0.00265946 0.000988603)
(0.144836 -0.00173362 0.00245198)
(0.142808 -0.00122758 0.00285387)
(0.141139 -0.00113303 0.00261205)
(0.140077 -0.00116271 0.00219427)
(0.139379 -0.00115452 0.00172575)
(0.138815 -0.00104754 0.000986067)
(0.138525 -0.000831861 -0.000223678)
(0.138656 -0.00088672 -0.00153369)
(0.139178 -0.00168321 -0.00208759)
(0.140346 -0.00304204 -0.00162557)
(0.142161 -0.00409809 -0.000648127)
(0.143694 -0.00428132 0.000454609)
(0.143891 -0.00374106 0.00168023)
(0.142622 -0.0029233 0.00303783)
(0.140675 -0.00224037 0.00444313)
(0.138773 -0.00162636 0.00568512)
(0.136945 -0.000689871 0.00642976)
(0.134864 0.000650452 0.00659556)
(0.132525 0.00170348 0.00636389)
(0.130494 0.00195559 0.00580165)
(0.129398 0.00176293 0.00477116)
(0.12929 0.00163131 0.00368966)
(0.129828 0.00143665 0.00313084)
(0.130803 0.000848202 0.00282059)
(0.132367 6.12015e-05 0.00204312)
(0.134834 -0.000390081 0.00070242)
(0.138144 -0.000402492 -0.000700952)
(0.141658 -0.000312967 -0.00197219)
(0.14345 0.00125238 -0.000526636)
(0.146646 0.00132682 -0.00223303)
(0.150011 0.00120618 -0.00419416)
(0.15303 0.000806804 -0.00628272)
(0.155042 0.000358025 -0.00805583)
(0.155895 0.000168559 -0.00889784)
(0.155839 0.000159795 -0.00853682)
(0.1552 -0.000132437 -0.00726123)
(0.154092 -0.000900251 -0.00567058)
(0.152366 -0.00169028 -0.00404261)
(0.150003 -0.00184971 -0.0021775)
(0.147357 -0.00127713 -9.67744e-05)
(0.144905 -0.000481778 0.00160162)
(0.142992 -3.56625e-05 0.0024313)
(0.141821 -7.27111e-05 0.00253185)
(0.141287 -0.000373004 0.00232464)
(0.140912 -0.000741615 0.00207671)
(0.140397 -0.0010045 0.00178552)
(0.140006 -0.00101016 0.00132717)
(0.140163 -0.00101095 0.000781126)
(0.140944 -0.00165946 0.000684376)
(0.142142 -0.00300512 0.00135788)
(0.143332 -0.00415462 0.00241741)
(0.143825 -0.00416553 0.00338139)
(0.143232 -0.00306071 0.00430192)
(0.141838 -0.0016377 0.00533686)
(0.140233 -0.000710096 0.00636255)
(0.138695 -0.000337627 0.00705956)
(0.137054 9.28243e-05 0.00731655)
(0.135123 0.00108492 0.00732404)
(0.132987 0.00226601 0.00725169)
(0.131023 0.00285874 0.00702273)
(0.129643 0.00278633 0.00650042)
(0.129037 0.0025658 0.00593615)
(0.129235 0.00242901 0.00579481)
(0.130268 0.00211892 0.00587934)
(0.13206 0.00157921 0.00543103)
(0.134446 0.00112564 0.00417524)
(0.137297 0.000971683 0.002558)
(0.140373 0.00108342 0.00100148)
(0.144075 0.00228085 0.000967346)
(0.146953 0.00233111 -0.000523302)
(0.149695 0.00234711 -0.00212479)
(0.152273 0.00211772 -0.00393261)
(0.154476 0.0016575 -0.00581509)
(0.156109 0.00126787 -0.00725898)
(0.157067 0.00112552 -0.00773668)
(0.157262 0.00101404 -0.00724507)
(0.156556 0.000649653 -0.00624989)
(0.154833 8.58951e-05 -0.00511115)
(0.152331 -0.000286339 -0.00372461)
(0.149756 -0.000233328 -0.00196875)
(0.147811 9.14941e-05 -0.000154165)
(0.146691 0.000345766 0.00120103)
(0.146141 0.000326656 0.00193107)
(0.145762 1.88094e-05 0.00233068)
(0.145285 -0.000416115 0.00276627)
(0.144694 -0.000686166 0.00332174)
(0.144362 -0.000583443 0.00376293)
(0.144687 -0.000344591 0.00370252)
(0.145584 -0.000611919 0.00335062)
(0.14652 -0.00164089 0.00336781)
(0.146913 -0.00269833 0.00404766)
(0.146331 -0.00270404 0.00494061)
(0.144774 -0.00139136 0.00557743)
(0.142797 0.000431676 0.00583398)
(0.141021 0.00180167 0.00586347)
(0.139532 0.00239602 0.0057715)
(0.137979 0.002641 0.00562237)
(0.136118 0.00314855 0.0054618)
(0.134001 0.00402962 0.00533254)
(0.131897 0.00473552 0.00532827)
(0.130287 0.00487569 0.00537896)
(0.129609 0.0046046 0.00539494)
(0.13005 0.00425409 0.00559548)
(0.131424 0.00389897 0.00600784)
(0.133377 0.00346637 0.00607571)
(0.135636 0.00298681 0.00535188)
(0.138206 0.00256745 0.0040024)
(0.141092 0.00233248 0.00246439)
(0.143446 0.00167179 0.00168691)
(0.145891 0.00137857 0.00044672)
(0.148199 0.00143049 -0.000828529)
(0.150363 0.0014725 -0.00222055)
(0.152314 0.00125424 -0.00373949)
(0.154001 0.000924879 -0.00520763)
(0.155419 0.0007614 -0.00629265)
(0.15646 0.00083316 -0.00671136)
(0.156894 0.000934499 -0.006451)
(0.156423 0.000853209 -0.00573656)
(0.154935 0.000528329 -0.00470213)
(0.152821 1.15164e-05 -0.0033484)
(0.150916 -0.000662317 -0.00177217)
(0.14989 -0.00138182 -0.000294883)
(0.149686 -0.00195763 0.000806764)
(0.149682 -0.00230899 0.00152178)
(0.149273 -0.00254527 0.00211896)
(0.148342 -0.00266333 0.00279015)
(0.147304 -0.00249249 0.00333865)
(0.146754 -0.00208222 0.00334137)
(0.146786 -0.00175275 0.00269926)
(0.146994 -0.00172901 0.0019939)
(0.146847 -0.00180599 0.00185928)
(0.146069 -0.00141161 0.00234322)
(0.144734 -0.000108976 0.00294088)
(0.143287 0.00185802 0.00308937)
(0.142186 0.0036799 0.00267927)
(0.141502 0.0046503 0.00204396)
(0.140941 0.00484524 0.00164452)
(0.140205 0.00497935 0.00164261)
(0.139112 0.00561453 0.00186006)
(0.137643 0.00653776 0.00212901)
(0.136116 0.00712248 0.00242374)
(0.135002 0.00707186 0.00271523)
(0.134647 0.00656006 0.00305036)
(0.135005 0.00581927 0.00350799)
(0.135841 0.00499062 0.00393019)
(0.13705 0.00414612 0.00402051)
(0.138749 0.0032673 0.00364269)
(0.140971 0.00237152 0.00281315)
(0.144409 0.000640735 0.00353024)
(0.145341 0.000416534 0.00298001)
(0.146034 0.000481905 0.00202149)
(0.146781 0.000602197 0.000778465)
(0.147711 0.000626111 -0.000689472)
(0.14872 0.000610913 -0.00233559)
(0.149633 0.000705305 -0.00405018)
(0.150331 0.000945462 -0.00553769)
(0.150791 0.00124095 -0.00644157)
(0.150996 0.00143632 -0.0065804)
(0.150898 0.00138866 -0.00598838)
(0.150517 0.000937691 -0.00482931)
(0.150073 -7.08484e-06 -0.00335074)
(0.149918 -0.00130144 -0.00178524)
(0.150267 -0.00253171 -0.00027693)
(0.150983 -0.00333617 0.00101658)
(0.15155 -0.00359774 0.0019714)
(0.151452 -0.00332703 0.00260479)
(0.150575 -0.00273899 0.00301262)
(0.149314 -0.00228777 0.00318002)
(0.148123 -0.00230181 0.00300379)
(0.147243 -0.00252034 0.00262307)
(0.146667 -0.00239277 0.00238617)
(0.146178 -0.00163692 0.00244833)
(0.145556 -0.00040655 0.00263771)
(0.144905 0.000993648 0.0025886)
(0.14456 0.00225282 0.00205894)
(0.144701 0.00311016 0.0011798)
(0.145114 0.00354836 0.000343281)
(0.14542 0.00383032 -0.000169129)
(0.145321 0.0043623 -0.000439344)
(0.144756 0.00532184 -0.000672592)
(0.143889 0.00639784 -0.00087985)
(0.143038 0.00707581 -0.000917727)
(0.142413 0.00703326 -0.000664181)
(0.141977 0.00624157 -3.06346e-06)
(0.141654 0.00492699 0.00104504)
(0.141603 0.00347001 0.0021841)
(0.142126 0.00219649 0.00309572)
(0.143204 0.00123919 0.00356755)
(0.152036 0.0018091 0.00304776)
(0.153009 0.00196701 0.00362481)