/*--------------------------------*- C++ -*----------------------------------*\
| =========                 |                                                 |
| \\      /  F ield         | OpenFOAM: The Open Source CFD Toolbox           |
|  \\    /   O peration     | Version:  2306                                  |
|   \\  /    A nd           | Website:  www.openfoam.com                      |
|    \\/     M anipulation  |                                                 |
\*---------------------------------------------------------------------------*/
FoamFile
{
    version     2.0;
    format      ascii;
    arch        "LSB;label=32;scalar=64";
    class       surfaceScalarField;
    location    "7";
    object      phi_0;
}
// * * * * * * * * * * * * * * * * * * * * * * * * * * * * * * * * * * * * * //

dimensions      [0 3 -1 0 0 0 0];

oriented        oriented;

internalField   nonuniform List<scalar> 
175300
(
4.88549e-06
5.42829e-07
-3.47624e-07
5.29839e-06
4.14548e-07
-1.15739e-08
5.7149e-06
4.60707e-07
3.05224e-07
5.9725e-06
6.92353e-07
7.17774e-07
5.97044e-06
9.14561e-07
1.22191e-06
5.7628e-06
8.96027e-07
1.73257e-06
5.50733e-06
6.41827e-07
2.08897e-06
5.31045e-06
3.67929e-07
2.13913e-06
5.17393e-06
2.04914e-07
1.91172e-06
5.06274e-06
1.45333e-07
1.54761e-06
4.93166e-06
1.08779e-07
1.24399e-06
4.73298e-06
3.08517e-08
1.13388e-06
4.42139e-06
-4.33568e-08
1.18729e-06
4.01894e-06
-9.66896e-08
1.28391e-06
3.65479e-06
-1.89209e-07
1.32953e-06
3.45405e-06
-3.23918e-07
1.29108e-06
3.42883e-06
-4.63994e-07
1.16594e-06
3.522e-06
-5.77542e-07
9.5938e-07
3.64414e-06
-5.9741e-07
7.10947e-07
3.75015e-06
-4.76254e-07
4.40651e-07
3.89081e-06
-2.83633e-07
1.43891e-07
4.09931e-06
-8.10053e-08
-1.27333e-07
4.32468e-06
1.89742e-07
-3.60474e-07
4.51518e-06
3.61001e-07
-4.51071e-07
4.67752e-06
2.84645e-07
-4.29611e-07
4.84135e-06
-5.72837e-08
-3.89078e-07
5.05825e-06
-5.65502e-07
-5.0953e-07
5.31646e-06
-9.04924e-07
-8.82583e-07
5.48274e-06
-8.256e-07
-1.34145e-06
5.43998e-06
-4.32789e-07
-1.66073e-06
5.17763e-06
3.45629e-08
-1.88717e-06
4.7631e-06
3.82798e-07
-2.10192e-06
4.30502e-06
4.50723e-07
-2.13953e-06
3.95997e-06
1.86216e-07
-1.97073e-06
3.79142e-06
-9.84376e-08
-1.81552e-06
3.79125e-06
-1.83475e-07
-1.7473e-06
3.92473e-06
-9.54816e-08
-1.61891e-06
4.11147e-06
1.28217e-07
-1.33553e-06
4.30663e-06
3.92489e-07
-9.65502e-07
5.61397e-07
-6.31774e-07
1.63051e-05
1.48834e-06
-8.54146e-07
1.76896e-05
1.07172e-06
1.22945e-07
1.90054e-05
1.26981e-06
1.20139e-06
1.98892e-05
1.99308e-06
2.56849e-06
2.00574e-05
2.59834e-06
4.11423e-06
1.95351e-05
2.49964e-06
5.51646e-06
1.87103e-05
1.79701e-06
6.32638e-06
1.79865e-05
1.04238e-06
6.2977e-06
1.74892e-05
5.60311e-07
5.57891e-06
1.71304e-05
3.59118e-07
4.55961e-06
1.67218e-05
2.40239e-07
3.72867e-06
1.60591e-05
5.22208e-08
3.38368e-06
1.50302e-05
-1.33527e-07
3.45881e-06
1.3772e-05
-3.50289e-07
3.70263e-06
1.2654e-05
-7.73539e-07
3.88587e-06
1.1975e-05
-1.36785e-06
3.85837e-06
1.17612e-05
-1.91576e-06
3.5352e-06
1.18582e-05
-2.22141e-06
2.92848e-06
1.20726e-05
-2.1e-06
2.15319e-06
1.23446e-05
-1.57182e-06
1.31293e-06
1.27766e-05
-8.76484e-07
4.53698e-07
1.33933e-05
-1.39104e-07
-3.10492e-07
1.40823e-05
6.56013e-07
-8.91367e-07
1.4782e-05
9.48238e-07
-1.10691e-06
1.55352e-05
3.77359e-07
-1.04346e-06
1.63904e-05
-1.0966e-06
-9.93283e-07
1.7365e-05
-2.87459e-06
-1.4124e-06
1.82763e-05
-3.83973e-06
-2.45823e-06
1.87123e-05
-3.28062e-06
-3.68591e-06
1.84155e-05
-1.67453e-06
-4.61846e-06
1.74788e-05
4.18402e-08
-5.29981e-06
1.62062e-05
1.12218e-06
-5.73661e-06
1.49153e-05
1.13903e-06
-5.66728e-06
1.38511e-05
2.4736e-07
-5.29833e-06
1.3114e-05
-5.35589e-07
-5.1098e-06
1.28075e-05
-6.93733e-07
-5.04607e-06
1.29646e-05
-3.54178e-07
-4.64296e-06
1.34414e-05
4.04658e-07
-3.7639e-06
1.41313e-05
1.25209e-06
-2.69406e-06
1.68837e-06
-1.72574e-06
2.99198e-05
2.17456e-06
-1.89374e-06
3.25364e-05
1.11315e-06
-1.51021e-07
3.50686e-05
1.50423e-06
1.72245e-06
3.69961e-05
2.89367e-06
4.17774e-06
3.77767e-05
4.04204e-06
6.91042e-06
3.71833e-05
3.97102e-06
9.3244e-06
3.56953e-05
2.94464e-06
1.07024e-05
3.41637e-05
1.79962e-06
1.07157e-05
3.30788e-05
9.69887e-07
9.61626e-06
3.23838e-05
5.37182e-07
8.01538e-06
3.1708e-05
2.8216e-07
6.63479e-06
3.06309e-05
-1.1817e-08
5.89775e-06
2.89267e-05
-2.74879e-07
5.75939e-06
2.678e-05
-6.61201e-07
5.98666e-06
2.47171e-05
-1.52767e-06
6.33002e-06
2.32154e-05
-2.79751e-06
6.47947e-06
2.24224e-05
-3.99768e-06
6.14133e-06
2.22059e-05
-4.65634e-06
5.27183e-06
2.23266e-05
-4.38604e-06
4.05638e-06
2.26912e-05
-3.30723e-06
2.69126e-06
2.33972e-05
-1.87599e-06
1.28472e-06
2.44401e-05
-3.10186e-07
-2.20607e-08
2.56746e-05
1.16334e-06
-9.7396e-07
2.70572e-05
1.39649e-06
-1.30149e-06
2.86543e-05
-2.69011e-07
-1.09553e-06
3.05071e-05
-3.76412e-06
-8.53485e-07
3.25704e-05
-7.67541e-06
-1.36994e-06
3.4449e-05
-9.6126e-06
-3.00844e-06
3.53935e-05
-8.14132e-06
-5.13392e-06
3.49669e-05
-4.39126e-06
-6.92839e-06
3.3395e-05
-5.2351e-07
-8.25154e-06
3.12801e-05
1.78606e-06
-8.95661e-06
2.91354e-05
1.78299e-06
-8.76039e-06
2.71925e-05
6.49332e-08
-8.19409e-06
2.5507e-05
-1.34502e-06
-8.06249e-06
2.43489e-05
-1.55926e-06
-8.23404e-06
2.40456e-05
-9.01437e-07
-7.8601e-06
2.45787e-05
5.00473e-07
-6.59279e-06
2.57737e-05
2.07965e-06
-4.90061e-06
2.71326e-06
-3.32438e-06
4.51616e-05
1.73238e-06
-4.33465e-06
4.92867e-05
-4.11958e-07
-2.11714e-06
5.34677e-05
-3.49216e-07
8.70571e-07
5.70737e-05
1.92315e-06
4.45535e-06
5.92397e-05
4.0001e-06
8.61672e-06
5.91912e-05
4.34833e-06
1.24547e-05
5.7159e-05
3.47346e-06
1.48631e-05
5.44971e-05
2.36894e-06
1.5307e-05
5.24505e-05
1.36244e-06
1.40831e-05
5.12482e-05
6.36429e-07
1.20459e-05
5.03484e-05
1.58678e-07
1.01612e-05
4.90432e-05
-2.52947e-07
8.91843e-06
4.68974e-05
-5.15082e-07
8.25546e-06
4.40065e-05
-9.22346e-07
8.09039e-06
4.08781e-05
-2.08211e-06
8.41329e-06
3.80774e-05
-3.95965e-06
8.88556e-06
3.60112e-05
-5.93842e-06
8.86859e-06
3.48456e-05
-7.30771e-06
8.06399e-06
3.44586e-05
-7.2765e-06
6.66641e-06
3.47013e-05
-5.83084e-06
4.95785e-06
3.55825e-05
-3.5793e-06
3.08677e-06
3.70241e-05
-9.17649e-07
1.23429e-06
3.88406e-05
1.40436e-06
-1.05508e-07
4.10013e-05
1.4339e-06
-4.97285e-07
4.35629e-05
-2.00067e-06
1.05425e-07
4.65442e-05
-8.4834e-06
9.42013e-07
4.99364e-05
-1.57216e-05
8.21456e-07
5.32533e-05
-1.94744e-05
-1.16098e-06
5.53295e-05
-1.68746e-05
-4.49276e-06
5.53373e-05
-9.92347e-06
-7.72997e-06
5.35145e-05
-2.65538e-06
-1.02751e-05
5.077e-05
1.80525e-06
-1.16743e-05
4.78597e-05
2.20688e-06
-1.14708e-05
4.50079e-05
-3.2474e-07
-1.05374e-05
4.20852e-05
-2.43763e-06
-1.03121e-05
3.938e-05
-2.70452e-06
-1.08906e-05
3.77025e-05
-1.78811e-06
-1.10778e-05
3.75865e-05
7.17081e-08
-1.00219e-05
3.89632e-05
2.27323e-06
-8.10613e-06
3.06474e-06
-6.15117e-06
6.08215e-05
-4.61813e-07
-9.06882e-06
6.64875e-05
-4.8282e-06
-6.78887e-06
7.26862e-05
-6.41222e-06
-3.04277e-06
7.87366e-05
-3.43283e-06
1.87771e-06
8.34553e-05
4.70003e-07
7.65772e-06
8.52145e-05
2.11641e-06
1.36426e-05
8.33696e-05
2.35965e-06
1.79804e-05
7.94861e-05
2.20496e-06
1.96448e-05
7.59932e-05
1.55838e-06
1.87627e-05
7.39567e-05
6.39432e-07
1.64936e-05
7.28328e-05
-1.5919e-07
1.42845e-05
7.15539e-05
-7.71998e-07
1.27106e-05
6.9363e-05
-9.97118e-07
1.14185e-05
6.61397e-05
-1.18838e-06
1.0357e-05
6.21689e-05
-2.23117e-06
1.00924e-05
5.7816e-05
-4.26328e-06
1.07332e-05
5.36458e-05
-6.76269e-06
1.13544e-05
5.04461e-05
-9.1197e-06
1.10756e-05
4.866e-05
-1.0114e-05
9.89753e-06
4.82405e-05
-9.03644e-06
8.18939e-06
4.90127e-05
-6.21737e-06
6.09928e-06
5.06971e-05
-2.22126e-06
3.7811e-06
5.29806e-05
1.31971e-06
2.01644e-06
5.57859e-05
1.18548e-06
1.67407e-06
5.90658e-05
-4.51885e-06
3.04265e-06
6.27489e-05
-1.52154e-05
5.46649e-06
6.71439e-05
-2.73812e-05
6.80493e-06
7.2314e-05
-3.47398e-05
5.04843e-06
7.67692e-05
-3.18072e-05
3.91616e-07
7.86522e-05
-2.05564e-05
-5.42848e-06
7.76892e-05
-8.09311e-06
-1.04325e-05
7.49861e-05
1.51833e-07
-1.35869e-05
7.16355e-05
2.04743e-06
-1.38962e-05
6.80478e-05
-8.76775e-07
-1.24343e-05
6.39493e-05
-3.62574e-06
-1.16975e-05
5.93408e-05
-3.87942e-06
-1.25108e-05
5.52488e-05
-2.71474e-06
-1.35913e-05
5.31044e-05
-7.36562e-07
-1.35377e-05
5.35426e-05
1.6327e-06
-1.22966e-05
2.2237e-06
-1.06969e-05
7.58593e-05
-4.20459e-06
-1.58927e-05
8.19472e-05
-1.24707e-05
-1.46406e-05
8.95169e-05
-1.74857e-05
-1.1419e-05
9.8168e-05
-1.57212e-05
-5.88223e-06
0.000106923
-1.04433e-05
1.54487e-06
0.000112865
-5.67552e-06
1.03382e-05
0.000113261
-2.46162e-06
1.81693e-05
0.000108949
8.36928e-08
2.26418e-05
0.000103719
9.8038e-07
2.31391e-05
0.000100382
3.73987e-07
2.09375e-05
9.89269e-05
-7.1054e-07
1.8524e-05
9.7899e-05
-1.66592e-06
1.71217e-05
9.60914e-05
-1.95876e-06
1.57501e-05
9.31424e-05
-1.77005e-06
1.36205e-05
8.90657e-05
-2.1949e-06
1.18847e-05
8.36714e-05
-3.65963e-06
1.19294e-05
7.70944e-05
-5.90704e-06
1.3135e-05
7.06056e-05
-8.8607e-06
1.38201e-05
6.58317e-05
-1.14664e-05
1.33158e-05
6.35183e-05
-1.19968e-05
1.19955e-05
6.34627e-05
-9.4897e-06
1.00595e-05
6.49732e-05
-4.19664e-06
7.55338e-06
6.73825e-05
1.02663e-06
5.5128e-06
7.04528e-05
1.0127e-06
5.36821e-06
7.39397e-05
-7.32373e-06
7.90013e-06
7.73201e-05
-2.2919e-05
1.22729e-05
8.094e-05
-4.0934e-05
1.58655e-05
8.66437e-05
-5.38009e-05
1.5833e-05
9.45446e-05
-5.37276e-05
1.10032e-05
0.000101281
-3.96582e-05
2.74306e-06
0.000103996
-1.98866e-05
-6.73403e-06
0.000103113
-5.12258e-06
-1.36667e-05
0.000100214
3.74356e-07
-1.5889e-05
9.63006e-05
-1.7942e-06
-1.4216e-05
9.1428e-05
-4.75553e-06
-1.24868e-05
8.53185e-05
-4.7939e-06
-1.29545e-05
7.86095e-05
-3.16804e-06
-1.46688e-05
7.32023e-05
-1.10974e-06
-1.58999e-05
7.08293e-05
1.03545e-06
-1.62017e-05
8.24217e-07
-1.61334e-05
9.31732e-05
-7.18445e-06
-2.20511e-05
9.69079e-05
-2.07739e-05
-2.33483e-05
0.00010279
-3.1025e-05
-2.22644e-05
0.000110761
-3.20929e-05
-1.84022e-05
0.000122039
-2.80255e-05
-1.15103e-05
0.000134754
-2.30405e-05
-9.06883e-07
0.000142159
-1.54021e-05
1.16973e-05
0.000140678
-6.99035e-06
2.17696e-05
0.000134534
-1.93907e-06
2.6073e-05
0.000129598
-9.29709e-07
2.48993e-05
0.00012769
-1.82777e-06
2.20609e-05
0.000127141
-3.07638e-06
2.10349e-05
0.000126029
-3.61683e-06
2.08516e-05
0.000123846
-3.11008e-06
1.86562e-05
0.000120674
-2.60473e-06
1.49526e-05
0.000115743
-2.89676e-06
1.30635e-05
0.000107917
-3.9513e-06
1.40455e-05
9.78673e-05
-6.30124e-06
1.58246e-05
8.83468e-05
-9.90303e-06
1.64455e-05
8.19894e-05
-1.28878e-05
1.58132e-05
7.95535e-05
-1.21575e-05
1.431e-05
8.00691e-05
-6.26325e-06
1.18691e-05
8.22365e-05
9.00279e-07
9.59853e-06
8.54928e-05
1.4325e-06
9.50543e-06
8.94616e-05
-9.36636e-06
1.26754e-05
9.29079e-05
-2.94131e-05
1.80225e-05
9.47237e-05
-5.20054e-05
2.30721e-05
9.70688e-05
-7.01503e-05
2.57746e-05
0.000104292
-7.60661e-05
2.40485e-05
0.000116162
-6.43365e-05
1.64566e-05
0.000126767
-4.07779e-05
3.73207e-06
0.000131894
-1.72023e-05
-9.60922e-06
0.000131765
-4.74965e-06
-1.63384e-05
0.000128334
-3.70754e-06
-1.59361e-05
0.000123135
-5.73006e-06
-1.32291e-05
0.000116467
-5.24759e-06
-1.26097e-05
0.000108335
-2.98448e-06
-1.41834e-05
0.000100211
-4.89147e-07
-1.62018e-05
9.44552e-05
1.6644e-06
-1.79696e-05
6.90131e-07
-1.98963e-05
0.000119262
-6.23126e-06
-2.4176e-05
0.00011793
-2.44573e-05
-2.8822e-05
0.000118746
-4.11324e-05
-3.18498e-05
0.000122062
-4.62628e-05
-3.12783e-05
0.000129792
-4.44706e-05
-2.67451e-05
0.000144671
-4.33287e-05
-1.74636e-05
0.000161241
-3.73966e-05
-3.01078e-06
0.000168385
-2.32108e-05
1.36869e-05
0.000164661
-1.00448e-05
2.51141e-05
0.000158735
-4.92726e-06
2.7612e-05
0.000156652
-4.74239e-06
2.43605e-05
0.000157348
-5.73006e-06
2.26606e-05
0.000157404
-6.17243e-06
2.43699e-05
0.000155981
-5.35149e-06
2.44763e-05
0.000154226
-4.05826e-06
2.01142e-05
0.000151679
-3.25655e-06
1.5316e-05
0.000145538
-2.83668e-06
1.45441e-05
0.000134099
-3.3302e-06
1.68999e-05
0.000119661
-5.89274e-06
1.89797e-05
0.000107018
-1.02909e-05
1.93327e-05
9.96222e-05
-1.22827e-05
1.83929e-05
9.75845e-05
-7.36123e-06
1.62233e-05
9.91202e-05
1.18565e-06
1.36541e-05
0.000102876
2.79434e-06
1.29673e-05
0.00010809
-9.39789e-06
1.56369e-05
0.000113293
-3.23473e-05
2.02134e-05
0.000115789
-5.71594e-05
2.4596e-05
0.000114624
-7.69413e-05
2.88172e-05
0.000115249
-8.78369e-05
3.23416e-05
0.000124478
-8.39161e-05
3.03946e-05
0.000140563
-6.38577e-05
1.87642e-05
0.000155153
-3.65354e-05
1.08124e-06
0.000162012
-1.54086e-05
-1.28783e-05
0.000160935
-7.45003e-06
-1.66085e-05
0.000155707
-6.18286e-06
-1.42163e-05
0.000149236
-5.02399e-06
-1.19809e-05
0.000141575
-2.4887e-06
-1.23094e-05
0.00013312
7.32858e-07
-1.4206e-05
0.000126075
3.75346e-06
-1.67321e-05
3.0639e-06
-1.99889e-05
0.000155923
-1.19829e-06
-2.07775e-05
0.000150281
-2.00427e-05
-2.80183e-05
0.000143849
-4.18783e-05
-3.63655e-05
0.000140595
-5.30444e-05
-4.18225e-05
0.000142112
-5.37239e-05
-4.12279e-05
0.000151981
-5.6615e-05
-3.36055e-05
0.00017108
-5.8792e-05
-1.94793e-05
0.000188018
-4.7053e-05
-1.20997e-07
0.000190832
-2.52195e-05
1.87492e-05
0.000184283
-1.17906e-05
2.77893e-05
0.000181112
-9.9564e-06
2.55303e-05
0.000184508
-1.16742e-05
2.12363e-05
0.000187775
-1.09213e-05
2.29563e-05
0.000186752
-7.54241e-06
2.65886e-05
0.000184844
-4.89196e-06
2.45907e-05
0.000185395
-4.89713e-06
1.82907e-05
0.00018503
-5.32802e-06
1.49593e-05
0.000177529
-4.17016e-06
1.69912e-05
0.000161677
-3.25537e-06
2.06457e-05
0.000142676
-5.41624e-06
2.23247e-05
0.000127624
-8.36635e-06
2.20375e-05
0.000120181
-5.68456e-06
2.04515e-05
0.000119559
2.28532e-06
1.80537e-05
0.000123472
4.43565e-06
1.65689e-05
0.000129995
-8.13165e-06
1.75244e-05
0.000137313
-3.20594e-05
1.97248e-05
0.000142582
-5.69931e-05
2.20381e-05
0.000142265
-7.51996e-05
2.59422e-05
0.000137572
-8.59133e-05
3.33255e-05
0.000138098
-8.87854e-05
3.90706e-05
0.000151122
-7.96828e-05
3.3379e-05
0.000171693
-5.81121e-05
1.55233e-05
0.000186765
-3.15136e-05
-4.24455e-06
0.000187236
-1.12747e-05
-1.44129e-05
0.00017757
-1.25335e-06
-1.48721e-05
0.000168939
-9.68209e-07
-1.1454e-05
0.00016506
-3.16387e-06
-9.02384e-06
0.000162549
-1.04496e-06
-9.32393e-06
0.000159881
4.57615e-06
-1.18304e-05
6.44219e-06
-1.56207e-05
0.000194222
2.51172e-06
-1.05329e-05
0.000191031
-1.0562e-05
-1.97078e-05
0.000179577
-3.14588e-05
-3.29759e-05
0.000168574
-4.85896e-05
-4.64495e-05
0.000163958
-5.4404e-05
-5.36006e-05
0.000167279
-5.93466e-05
-4.99454e-05
0.000180931
-6.91768e-05
-3.62071e-05
0.000201833
-6.87331e-05
-1.6241e-05
0.000215575
-4.91626e-05
7.41276e-06
0.000213296
-2.41286e-05
2.40248e-05
0.000205055
-1.4665e-05
2.6129e-05
0.000205641
-1.86301e-05
1.94688e-05
0.000213815
-2.07422e-05
1.73826e-05
0.000216816
-1.2399e-05
2.18424e-05
0.000211724
-1.62839e-06
2.33642e-05
0.000208807
-8.7808e-07
1.83384e-05
0.000213791
-9.0135e-06
1.34571e-05
0.000217939
-1.36398e-05
1.48533e-05
0.00021004
-9.76493e-06
2.03907e-05
0.000190113
-4.13259e-06
2.40784e-05
0.000167478
-1.65508e-06
2.45759e-05
0.000151411
1.1173e-06
2.39024e-05
0.000145529
6.00952e-06
2.29317e-05
0.000148341
4.9746e-06
2.15562e-05
0.0001563
-9.82819e-06
1.98854e-05
0.000165938
-3.40383e-05
1.74464e-05
0.000173727
-5.60256e-05
1.52818e-05
0.000175844
-6.94244e-05
1.75383e-05
0.000170338
-7.53742e-05
2.76082e-05
0.000163344
-7.92145e-05
4.06196e-05
0.000167358
-8.15581e-05
4.29143e-05
0.000185485
-7.3806e-05
2.76155e-05
0.000203615
-4.942e-05
5.54111e-06
0.000205123
-1.56513e-05
-1.06092e-05
0.000190728
8.40308e-06
-1.50735e-05
0.000176214
1.07196e-05
-1.17371e-05
0.000171662
7.99356e-07
-5.60628e-06
0.000175048
-3.82203e-06
-1.75336e-06
0.000181434
9.88277e-07
-1.81544e-06
5.46898e-06
-4.90806e-06
0.000220313
8.62146e-07
7.65436e-06
0.000228759
-4.98615e-06
-2.74908e-06
0.000221256
-1.55224e-05
-2.11612e-05
0.000204773
-3.20502e-05
-4.22937e-05
0.000193032
-4.52142e-05
-5.9365e-05
0.000191577
-5.4764e-05
-6.44215e-05
0.000199227
-6.76097e-05
-5.47201e-05
0.000215312
-7.81895e-05
-3.43855e-05
0.000235099
-7.16575e-05
-9.52296e-06
0.000245532
-4.74819e-05
1.4469e-05
0.000240177
-2.48633e-05
2.45112e-05
0.000230776
-2.06875e-05
1.97379e-05
0.000232468
-2.68549e-05
1.25754e-05
0.000241734
-2.25361e-05
1.34173e-05
0.000243634
-4.39115e-06
1.75598e-05
0.000236784
6.7175e-06
1.67949e-05
0.000234734
-3.63617e-06
1.22618e-05
0.000243719
-2.30122e-05
1.1521e-05
0.00025103
-2.85822e-05
1.74781e-05
0.000242268
-1.61669e-05
2.35684e-05
0.000219241
6.09332e-07
2.5008e-05
0.000194937
1.22864e-05
2.4977e-05
0.000180605
1.55669e-05
2.69103e-05
0.000179108
7.04124e-06
2.80267e-05
0.000187003
-1.49826e-05
2.4363e-05
0.000199118
-4.19511e-05
1.52851e-05
0.000210276
-5.99274e-05
5.09515e-06
0.00021511
-6.4909e-05
2.47697e-06
0.00021014
-6.26458e-05
1.43748e-05
0.000198287
-6.1327e-05
3.49187e-05
0.00019187
-6.91408e-05
4.69633e-05
0.000201029
-7.65575e-05
3.69758e-05
0.000217003
-6.18548e-05
1.36969e-05
0.000221005
-2.12727e-05
-6.02048e-06
0.000208458
1.59075e-05
-1.46427e-05
0.000192353
2.41281e-05
-1.37175e-05
0.000184316
9.74932e-06
-5.89421e-06
0.000185617
-1.49418e-06
2.95387e-06
0.00019268
-3.97289e-07
8.97552e-06
2.60591e-06
1.07732e-05
0.00023504
-3.53017e-06
2.17929e-05
0.000255348
-7.30588e-06
1.66511e-05
0.000260963
-4.34936e-06
-2.85877e-06
0.000247616
-9.51161e-06
-3.08483e-05
0.000230008
-2.59209e-05
-5.62571e-05
0.000222664
-4.37408e-05
-7.16152e-05
0.000226956
-6.00026e-05
-7.07033e-05
0.000237771
-7.48865e-05
-5.48205e-05
0.000253824
-8.25505e-05
-2.94877e-05
0.000270894
-7.26645e-05
-1.36029e-06
0.000276805
-4.67279e-05
1.79144e-05
0.000267487
-2.58413e-05
1.91954e-05
0.000257106
-2.34138e-05
1.02742e-05
0.000259814
-2.57877e-05
6.60241e-06
0.000269994
-1.47355e-05
1.15582e-05
0.000272854
2.28701e-06
1.61041e-05
0.00026717
2.66998e-06
1.42833e-05
0.000266126
-1.9583e-05
1.05306e-05
0.00027615
-4.31202e-05
1.33998e-05
0.000283686
-4.0648e-05
2.04761e-05
0.000273554
-1.21028e-05
2.30971e-05
0.000249871
1.77315e-05
2.33112e-05
0.000228761
2.77722e-05
2.85396e-05
0.000219182
1.5873e-05
3.38609e-05
0.000220784
-1.27703e-05
2.86768e-05
0.000230841
-4.61006e-05
1.21799e-05
0.000245797
-6.77638e-05
-4.93393e-06
0.000256802
-6.81222e-05
-1.31057e-05
0.000254985
-5.42786e-05
-4.65262e-06
0.000240645
-4.34723e-05
2.23736e-05
0.000225249
-4.77245e-05
4.56779e-05
0.000222605
-6.40188e-05
4.49041e-05
0.0002319
-6.25215e-05
2.32002e-05
0.000237783
-2.57359e-05
7.54848e-07
0.000232708
1.7763e-05
-1.25221e-05
0.000222407
3.2301e-05
-1.71887e-05
0.00021414
1.95961e-05
-1.34576e-05
0.000210384
5.97353e-06
-2.95623e-06
0.000210912
4.85548e-06
7.65891e-06
3.7717e-06
1.67086e-05
0.000253763
-5.52493e-06
1.68384e-05
0.000277357
-1.59223e-05
2.24011e-05
0.000295603
-4.6392e-06
1.09988e-05
0.000292981
7.50741e-06
-1.79063e-05
0.000275744
-3.44039e-06
-4.78119e-05
0.000261954
-2.70351e-05
-7.0207e-05
0.000261598
-4.85427e-05
-7.91625e-05
0.000270386
-6.52353e-05
-7.20542e-05
0.000281719
-8.07221e-05
-5.05733e-05
0.000295134
-8.73268e-05
-2.10482e-05
0.000305334
-7.06685e-05
5.64412e-06
0.000303013
-3.88115e-05
1.49593e-05
0.000291334
-1.93569e-05
8.54185e-06
0.000285192
-1.93154e-05
2.49729e-06
0.000292271
-1.9843e-05
6.91016e-06
0.000303384
-9.65687e-06
1.57504e-05
0.000306388
-1.75011e-06
1.83965e-05
0.000301449
-1.28831e-05
1.32975e-05
0.000300075
-3.95995e-05
9.79238e-06
0.00030779
-5.42995e-05
1.37116e-05
0.000312712
-3.47551e-05
1.82132e-05
0.000302967
3.97496e-06
2.16471e-05
0.000283991
2.79473e-05
3.03104e-05
0.00026764
2.67364e-05
3.77277e-05
0.00025849
4.92716e-06
2.89699e-05
0.00025882
-3.00687e-05
5.09623e-06
0.000272173
-6.49679e-05
-1.51276e-05
0.000291765
-7.62229e-05
-2.40752e-05
0.000299271
-5.87848e-05
-1.74288e-05
0.000287149
-3.55393e-05
8.51678e-06
0.000266137
-2.79453e-05
4.00482e-05
0.000252727
-4.14754e-05
5.09766e-05
0.000252998
-4.86582e-05
3.43036e-05
0.000257636
-2.22763e-05
1.00167e-05
0.00025913
1.7996e-05
-8.75581e-06
0.00025776
3.37412e-05
-1.96841e-05
0.000254658
2.45537e-05
-2.21253e-05
0.000249372
1.39974e-05
-1.53999e-05
0.000243533
1.36566e-05
-4.77134e-06
1.05901e-05
5.56601e-06
0.000288979
-1.46326e-06
-2.22506e-06
0.000305803
-2.10252e-05
1.0229e-05
0.000329487
-1.30106e-05
1.01354e-05
0.000339699
9.95712e-06
-9.99163e-06
0.000328935
1.24572e-05
-3.88526e-05
0.000310909
-7.53103e-06
-6.51227e-05
0.000303308
-3.10251e-05
-8.13214e-05
0.000309651
-5.04225e-05
-8.30129e-05
0.000320266
-7.05467e-05
-6.90625e-05
0.000328869
-8.88143e-05
-4.18283e-05
0.000335205
-8.51911e-05
-1.14491e-05
0.000335241
-5.32795e-05
7.08784e-06
0.000327127
-1.93693e-05
6.25376e-06
0.000318946
-9.21019e-06
-1.86735e-08
0.000320734
-1.52476e-05
2.62522e-06
0.00033187
-1.63253e-05
1.40141e-05
0.000342583
-1.05071e-05
2.29735e-05
0.000344502
-1.22721e-05
2.04406e-05
0.000337843
-2.88063e-05
1.09138e-05
0.000331285
-4.68593e-05
7.21332e-06
0.000329674
-4.41617e-05
1.33194e-05
0.000326413
-1.75777e-05
2.42638e-05
0.000316525
1.17879e-05
3.53398e-05
0.000305617
2.67477e-05
3.73767e-05
0.000298139
2.1104e-05
2.17381e-05
0.000294105
-6.25699e-06
-4.24149e-06
0.000300738
-4.7746e-05
-2.5387e-05
0.000321871
-7.67814e-05
-3.09911e-05
0.000339248
-7.05914e-05
-2.1558e-05
0.000333889
-4.06101e-05
1.01769e-06
0.000311178
-1.94539e-05
3.34979e-05
0.000290478
-2.07271e-05
5.40131e-05
0.000282938
-2.58699e-05
4.58738e-05
0.000285048
-8.18097e-06
2.14244e-05
0.0002899
2.16831e-05
-2.05587e-06
0.000295599
3.22317e-05
-1.89474e-05
0.000299877
2.25137e-05
-2.76322e-05
0.000298911
1.53135e-05
-2.67315e-05
0.000292916
1.91986e-05
-2.06438e-05
1.79428e-05
-1.33294e-05
0.000337327
4.7753e-06
-1.6342e-05
0.000340837
-1.47585e-05
-3.1788e-06
0.000359535
-1.55791e-05
1.93023e-06
0.000379956
4.76401e-06
-9.68296e-06
0.000382347
1.78423e-05
-3.23326e-05
0.000367189
9.27814e-06
-5.79843e-05
0.000354206
-8.87618e-06
-7.88157e-05
0.000356295
-2.8425e-05
-8.84431e-05
0.000367625
-5.34498e-05
-8.28526e-05
0.000375625
-8.06909e-05
-6.16262e-05
0.000376779
-8.86142e-05
-3.07567e-05
0.000373382
-6.22764e-05
-6.15047e-06
0.000365947
-2.17491e-05
1.63944e-06
0.000357975
-1.58418e-07
-1.23076e-06
0.000356593
-3.78924e-06
1.05695e-07
0.000364948
-1.3301e-05
1.17639e-05
0.000378072
-1.55184e-05
2.58778e-05
0.000385719
-1.57703e-05
2.8876e-05
0.000379189
-2.14798e-05
1.82642e-05
0.000360818
-3.07239e-05
7.74387e-06
0.000342714
-3.35724e-05
9.92542e-06
0.000333254
-2.2743e-05
2.03632e-05
0.000332107
-3.94646e-06
2.64283e-05
0.000336563
1.40958e-05
2.07624e-05
0.000341489
2.21319e-05
3.58427e-06
0.000341797
9.62987e-06
-1.78047e-05
0.000343814
-2.55137e-05
-3.44826e-05
0.000359086
-6.58447e-05
-3.62239e-05
0.000378949
-7.76791e-05
-2.29617e-05
0.000379802
-5.17174e-05
-4.21774e-08
0.000357433
-2.00102e-05
2.96188e-05
0.000331977
-8.2415e-06
5.28155e-05
0.000320138
-6.10839e-06
5.17556e-05
0.000321301
8.14034e-06
3.06035e-05
0.000326605
3.01438e-05
6.54339e-06
0.000331164
3.62239e-05
-1.19794e-05
0.000335828
2.27929e-05
-2.45606e-05
0.00034093
1.0869e-05
-3.12455e-05
0.000343878
1.30945e-05
-3.23158e-05
1.69419e-05
-2.78165e-05
0.000379622
3.5266e-06
-1.25865e-05
0.000374446
-3.79668e-06
-1.31796e-06
0.000382703
-5.19872e-06
1.8591e-07
0.000405753
6.07617e-06
-9.36826e-06
0.000423591
1.88745e-05
-2.73296e-05
0.000421521
2.04164e-05
-4.98553e-05
0.000411144
1.24863e-05
-7.2229e-05
0.000411633
-2.7624e-06
-8.80093e-05
0.000423399
-3.01079e-05
-9.10911e-05
0.000432292
-6.47624e-05
-7.86145e-05
0.000430239
-8.24357e-05
-5.25864e-05
0.000421498
-6.41605e-05
-2.39696e-05
0.000411472
-2.37954e-05
-7.06117e-06
0.000403232
5.41266e-06
-2.14245e-06
0.000400225
8.29983e-06
1.1172e-06
0.000404721
-2.68253e-06
9.49722e-06
0.000414056
-1.15443e-05
2.24453e-05
0.000421099
-1.64401e-05
3.14941e-05
0.000417309
-1.97498e-05
2.75114e-05
0.000400281
-1.9821e-05
1.33296e-05
0.00037849
-1.61683e-05
3.03506e-06
0.000364987
-1.18358e-05
3.23294e-06
0.000366262
-9.1819e-06
6.68816e-06
0.000377947
-3.54507e-06
4.69081e-06
0.000388524
7.02512e-06
-4.5763e-06
0.000390226
1.19168e-05
-1.87006e-05
0.000389888
-6.91937e-06
-2.98051e-05
0.000400037
-4.74353e-05
-3.07277e-05
0.000418129
-7.65297e-05
-1.9099e-05
0.000423754
-6.24754e-05
1.25688e-06
0.00040622
-2.64558e-05
2.76477e-05
0.000380603
-2.79062e-06
5.10856e-05
0.000364656
8.74368e-06
5.38585e-05
0.000360018
2.4478e-05
3.52803e-05
0.000358246
4.20248e-05
1.55572e-05
0.000355397
4.27531e-05
4.2872e-06
0.000355716
2.3746e-05
-5.9416e-06
0.000363226
3.12297e-06
-1.9183e-05
0.000375052
-2.35257e-06
-2.822e-05
3.3622e-06
-2.53057e-05
0.000418556
-2.76222e-06
-6.58344e-06
0.000412205
5.20903e-06
7.0137e-06
0.00041228
1.33419e-05
1.06258e-05
0.000428659
2.21935e-05
-3.31403e-07
0.00045301
2.71583e-05
-2.06421e-05
0.000468801
2.73173e-05
-4.05271e-05
0.000472948
2.55289e-05
-5.9426e-05
0.000478699
1.92417e-05
-7.73279e-05
0.00049146
-3.63128e-06
-8.97506e-05
0.000499779
-4.06403e-05
-8.93363e-05
0.000494211
-6.54492e-05
-7.21276e-05
0.000479311
-5.46985e-05
-4.47647e-05
0.00046399
-1.92668e-05
-2.14287e-05
0.000452825
9.34531e-06
-7.80538e-06
0.000448338
1.42508e-05
1.4676e-06
0.000450417
5.96246e-06
9.99502e-06
0.000454065
-2.56561e-06
2.01892e-05
0.000454008
-9.3491e-06
2.97229e-05
0.000448168
-1.50005e-05
3.00612e-05
0.000436971
-1.33191e-05
1.62821e-05
0.000424863
-4.75245e-06
-1.52563e-06
0.000418681
-1.61261e-06
-8.89086e-06
0.000422199
-1.12686e-05
-4.38899e-06
0.000431151
-2.00466e-05
2.06015e-06
0.000435811
-1.14035e-05
1.19391e-06
0.000432306
6.67507e-06
-5.52463e-06
0.000429509
6.54521e-06
-1.3081e-05
0.000437157
-2.57888e-05
-1.57738e-05
0.000454145
-6.45856e-05
-9.16891e-06
0.000466086
-6.91808e-05
7.09573e-06
0.000459432
-3.72398e-05
2.8427e-05
0.000438946
-6.43973e-07
4.74156e-05
0.000417802
2.29414e-05
5.24132e-05
0.000401288
3.92682e-05
4.05791e-05
0.000388524
5.14317e-05
2.44356e-05
0.000380816
4.93063e-05
1.47454e-05
0.000381409
2.8168e-05
9.69214e-06
0.000390706
8.96504e-07
1.29682e-06
0.000405467
-1.36138e-05
-1.07266e-05
-1.11854e-05
-1.53534e-05
0.00045698
2.22247e-06
3.92584e-06
0.000452245
1.55729e-05
1.3956e-05
0.000451076
3.10897e-05
1.98149e-05
0.0004616
4.27317e-05
1.51158e-05
0.000481898
4.25217e-05
5.59861e-07
0.000503826
3.23316e-05
-1.94213e-05
0.000523439
2.34294e-05
-3.88931e-05
0.000543775
1.98729e-05
-5.76781e-05
0.000563459
9.56673e-06
-7.522e-05
0.000572331
-1.61155e-05
-8.64598e-05
0.00056403
-3.98592e-05
-8.25703e-05
0.000544644
-3.69128e-05
-6.13649e-05
0.000524552
-1.08491e-05
-3.44802e-05
0.00050882
1.26988e-05
-1.50287e-05
0.000499348
1.80714e-05
-3.36115e-06
0.000495285
1.28928e-05
7.17316e-06
0.000493026
6.96182e-06
1.85386e-05
0.000488441
6.17408e-07
2.84202e-05
0.000481589
-5.28169e-06
2.81101e-05
0.000476343
-4.40641e-06
1.30356e-05
0.000478104
2.29543e-06
-7.57813e-06
0.00048698
1.58479e-06
-1.60646e-05
0.000495126
-1.57659e-05
-5.97576e-06
0.000493549
-3.24741e-05
1.01094e-05
0.000482593
-2.6568e-05
1.69114e-05
0.000472187
-1.04554e-06
1.51229e-05
0.000472005
1.44739e-05
1.25081e-05
0.000483357
-2.52325e-06
8.54234e-06
0.00050037
-4.10063e-05
4.33985e-06
0.000513352
-6.20247e-05
9.72834e-06
0.00051208
-4.17747e-05
2.70848e-05
0.000495417
6.33532e-07
4.5119e-05
0.000470698
3.46008e-05
4.83606e-05
0.000444761
5.17962e-05
3.58753e-05
0.000424334
5.76757e-05
2.46233e-05
0.000415924
5.34521e-05
2.50512e-05
0.000419968
3.72538e-05
2.8697e-05
0.000431529
1.4899e-05
2.29493e-05
0.000445327
-2.25181e-06
1.01305e-05
-5.68218e-06
1.88247e-06
0.000514883
1.69499e-05
4.28564e-06
0.000513975
2.53427e-05
1.52025e-05
0.000510495
3.77768e-05
3.04536e-05
0.000513838
5.10471e-05
3.56585e-05
0.000525671
5.41578e-05
2.40791e-05
0.000542545
3.98275e-05
2.33755e-06
0.000564004
1.63088e-05
-1.66422e-05
0.000591317
-9.96409e-08
-3.01563e-05
0.000618684
-5.45324e-06
-4.67121e-05
0.000632604
-9.35039e-06
-6.82011e-05
0.000627597
-1.64177e-05
-8.20421e-05
0.000613192
-1.59716e-05
-7.67964e-05
0.000599575
-1.71511e-06
-5.59437e-05
0.000588043
1.24594e-05
-3.14895e-05
0.000574286
1.81339e-05
-1.22106e-05
0.000558659
1.86884e-05
8.66362e-07
0.000544319
1.68735e-05
1.09384e-05
0.000533294
9.77926e-06
2.07266e-05
0.000528172
-1.22195e-06
2.81293e-05
0.000532895
-9.45132e-06
2.6082e-05
0.000549626
-1.41857e-05
1.35231e-05
0.000572275
-2.16756e-05
7.94155e-07
0.000584403
-3.43807e-05
1.94436e-06
0.000574969
-4.37323e-05
2.18099e-05
0.000551141
-3.477e-05
4.56969e-05
0.000532064
-4.70061e-06
5.59184e-05
0.000529193
2.61901e-05
4.65427e-05
0.000539368
2.9345e-05
2.2283e-05
0.000553847
-1.58521e-06
1.05958e-06
0.000564961
-3.80772e-05
-5.76045e-07
0.000563381
-3.87346e-05
1.45338e-05
0.000544327
-1.88631e-06
3.39081e-05
0.000514101
4.02734e-05
4.25247e-05
0.000484097
6.44356e-05
3.58555e-05
0.000464436
7.20737e-05
2.65627e-05
0.00045932
6.9005e-05
2.67577e-05
0.000465334
5.58227e-05
3.22887e-05
0.000477129
3.63488e-05
3.17832e-05
0.000491738
1.99796e-05
2.11131e-05
1.37214e-05
7.91151e-06
0.000572129
2.55028e-05
1.68155e-05
0.00057003
2.94605e-05
2.5384e-05
0.000565346
3.48331e-05
3.56493e-05
0.000566779
3.9761e-05
4.36998e-05
0.00057767
3.76191e-05
4.31139e-05
0.000594327
2.35079e-05
2.86722e-05
0.000612983
1.518e-06
3.95788e-06
0.00063442
-1.55497e-05
-2.10983e-05
0.000660978
-2.25008e-05
-3.98518e-05
0.000685197
-1.96602e-05
-5.40395e-05
0.000694258
-1.13826e-05
-6.61199e-05
0.000685837
7.27314e-07
-7.24593e-05
0.000671331
1.48985e-05
-6.78519e-05
0.000660284
2.32355e-05
-5.35576e-05
0.000652405
2.28548e-05
-3.52944e-05
0.00064301
1.94989e-05
-1.92608e-05
0.000629592
1.66924e-05
-8.30359e-06
0.000613268
1.14792e-05
9.10367e-07
0.000600663
2.42823e-06
1.29031e-05
0.000600347
-1.06738e-05
2.5742e-05
0.000615279
-2.92424e-05
3.1416e-05
0.000636465
-4.94074e-05
2.68526e-05
0.000647991
-6.07461e-05
2.05735e-05
0.000640964
-5.5143e-05
2.73377e-05
0.000620823
-3.28968e-05
4.88748e-05
0.000601064
1.16837e-06
6.38009e-05
0.000589511
3.3532e-05
5.197e-05
0.000586422
4.20859e-05
1.80524e-05
0.000592204
1.66559e-05
-1.37206e-05
0.000603609
-2.49161e-05
-2.08632e-05
0.000609449
-4.26342e-05
-3.4371e-06
0.000598375
-1.70627e-05
2.13326e-05
0.000573079
3.0815e-05
3.79094e-05
0.000549134
6.87126e-05
3.91793e-05
0.000537502
8.82338e-05
2.80413e-05
0.000538034
9.05303e-05
1.42554e-05
0.000543814
7.67709e-05
5.25078e-06
0.0005504