/*--------------------------------*- C++ -*----------------------------------*\
| =========                 |                                                 |
| \\      /  F ield         | OpenFOAM: The Open Source CFD Toolbox           |
|  \\    /   O peration     | Version:  2306                                  |
|   \\  /    A nd           | Website:  www.openfoam.com                      |
|    \\/     M anipulation  |                                                 |
\*---------------------------------------------------------------------------*/
FoamFile
{
    version     2.0;
    format      ascii;
    arch        "LSB;label=32;scalar=64";
    class       volScalarField;
    location    "7";
    object      pMean;
}
// * * * * * * * * * * * * * * * * * * * * * * * * * * * * * * * * * * * * * //

dimensions      [0 2 -2 0 0 0 0];

internalField   nonuniform List<scalar> 
60000
(
-2.70361e-06
-1.90617e-06
1.95646e-06
7.21359e-06
1.61865e-05
2.66474e-05
3.15882e-05
2.78127e-05
2.15448e-05
2.33852e-05
3.66729e-05
5.58211e-05
7.33673e-05
8.61661e-05
9.40254e-05
9.46045e-05
8.40473e-05
6.17509e-05
3.19108e-05
1.68656e-06
-2.1756e-05
-3.53668e-05
-3.90093e-05
-3.19239e-05
-1.39634e-05
1.24942e-05
4.48145e-05
7.79232e-05
0.000102559
0.000114484
0.000119111
0.00012501
0.000135256
0.000144384
0.000143708
0.000129914
0.000103424
6.70207e-05
3.07137e-05
6.28404e-06
-2.85885e-06
-2.49967e-06
1.09581e-06
6.15627e-06
1.49894e-05
2.5428e-05
3.04081e-05
2.66222e-05
2.02646e-05
2.20019e-05
3.53176e-05
5.46067e-05
7.23428e-05
8.53663e-05
9.34992e-05
9.43885e-05
8.41031e-05
6.20046e-05
3.2279e-05
2.08143e-06
-2.14238e-05
-3.51754e-05
-3.91401e-05
-3.25402e-05
-1.51054e-05
1.08962e-05
4.29866e-05
7.6158e-05
0.000101102
0.000113413
0.000118411
0.000124695
0.00013538
0.000145017
0.000144821
0.000131433
0.000105167
6.86522e-05
3.18699e-05
6.7613e-06
-4.5533e-06
-4.48353e-06
-1.02072e-06
3.93247e-06
1.27676e-05
2.35031e-05
2.89183e-05
2.53427e-05
1.87924e-05
2.02508e-05
3.35696e-05
5.31e-05
7.11002e-05
8.43914e-05
9.28796e-05
9.41986e-05
8.42802e-05
6.23703e-05
3.26449e-05
2.30374e-06
-2.14191e-05
-3.54357e-05
-3.98002e-05
-3.36434e-05
-1.66233e-05
8.99172e-06
4.072e-05
7.37873e-05
9.891e-05
0.000111495
0.000116817
0.000123546
0.000134862
0.000145164
0.000145464
0.000132328
0.000106111
6.92579e-05
3.16963e-05
5.70258e-06
-7.83213e-06
-7.91934e-06
-4.50713e-06
3.66115e-07
9.25627e-06
2.05461e-05
2.68033e-05
2.37842e-05
1.71364e-05
1.81796e-05
3.14276e-05
5.13235e-05
6.97415e-05
8.33771e-05
9.22828e-05
9.41285e-05
8.46828e-05
6.29667e-05
3.31147e-05
2.46832e-06
-2.16213e-05
-3.60381e-05
-4.08499e-05
-3.50705e-05
-1.82815e-05
7.05664e-06
3.83309e-05
7.10243e-05
9.60306e-05
0.000108616
0.000114109
0.000121387
0.000133607
0.000144835
0.000145648
0.000132526
0.000106102
6.86955e-05
3.01109e-05
3.05886e-06
-1.19557e-05
-1.23267e-05
-9.12524e-06
-4.41867e-06
4.38252e-06
1.62714e-05
2.3763e-05
2.19093e-05
1.56453e-05
1.62874e-05
2.92499e-05
4.9468e-05
6.84348e-05
8.24839e-05
9.17946e-05
9.41796e-05
8.52597e-05
6.38267e-05
3.3839e-05
2.77154e-06
-2.1838e-05
-3.68886e-05
-4.24261e-05
-3.7185e-05
-2.06587e-05
4.41307e-06
3.51774e-05
6.74519e-05
9.24311e-05
0.000105087
0.000110636
0.000118437
0.000131872
0.000144457
0.000145987
0.00013285
0.000105996
6.78594e-05
2.80774e-05
-2.53946e-07
-1.66805e-05
-1.75967e-05
-1.48599e-05
-1.09637e-05
-2.38292e-06
1.03239e-05
1.93881e-05
1.94663e-05
1.4472e-05
1.51635e-05
2.76953e-05
4.80125e-05
6.75731e-05
8.21157e-05
9.17704e-05
9.45688e-05
8.61273e-05
6.4994e-05
3.48088e-05
3.09553e-06
-2.24334e-05
-3.86616e-05
-4.58013e-05
-4.21809e-05
-2.66258e-05
-1.9204e-06
2.85093e-05
6.07211e-05
8.64412e-05
0.000100437
0.000107031
0.000115541
0.000130285
0.000144729
0.000147451
0.000134639
0.00010754
6.82551e-05
2.65244e-05
-3.68386e-06
-2.12813e-05
-2.31131e-05
-2.09219e-05
-1.87667e-05
-1.2167e-05
5.56136e-07
1.21249e-05
1.54172e-05
1.30463e-05
1.49844e-05
2.73752e-05
4.76055e-05
6.77077e-05
8.28344e-05
9.27603e-05
9.57373e-05
8.75258e-05
6.65574e-05
3.60363e-05
3.28378e-06
-2.37583e-05
-4.176e-05
-5.10723e-05
-5.00667e-05
-3.67661e-05
-1.32963e-05
1.67361e-05
4.91951e-05
7.62654e-05
9.27422e-05
0.000102279
0.000113078
0.000129652
0.000146015
0.00015042
0.000138694
0.000112295
7.24907e-05
2.82214e-05
-5.67775e-06
-2.53543e-05
-2.89968e-05
-2.69157e-05
-2.63923e-05
-2.32635e-05
-1.25575e-05
4.67166e-07
7.66782e-06
9.0065e-06
1.33806e-05
2.71669e-05
4.81133e-05
6.90801e-05
8.50777e-05
9.54189e-05
9.82867e-05
8.98766e-05
6.86978e-05
3.76031e-05
3.57643e-06
-2.51535e-05
-4.44507e-05
-5.46464e-05
-5.48466e-05
-4.33342e-05
-2.18447e-05
6.6636e-06
3.82231e-05
6.52324e-05
8.237e-05
9.38354e-05
0.000107978
0.000128055
0.000147183
0.000153348
0.000143227
0.000119195
8.05603e-05
3.37681e-05
-5.22455e-06
-2.75516e-05
-3.47095e-05
-3.31575e-05
-3.38833e-05
-3.47787e-05
-2.76934e-05
-1.45465e-05
-3.59572e-06
2.2499e-06
9.18722e-06
2.36712e-05
4.59806e-05
6.90078e-05
8.68687e-05
9.85461e-05
0.000102129
9.3808e-05
7.19383e-05
3.99091e-05
4.97666e-06
-2.41608e-05
-4.2732e-05
-5.11193e-05
-4.96498e-05
-3.81043e-05
-1.83756e-05
7.15947e-06
3.52373e-05
5.90272e-05
7.33361e-05
8.28894e-05
9.72725e-05
0.000120388
0.000143369
0.00015174
0.00014296
0.000122226
8.8182e-05
4.233e-05
-1.05435e-06
-2.44081e-05
-3.7113e-05
-3.77904e-05
-3.99535e-05
-4.53566e-05
-4.34235e-05
-3.18152e-05
-1.8109e-05
-7.45024e-06
3.01673e-06
1.76084e-05
3.91158e-05
6.32649e-05
8.35512e-05
9.71149e-05
0.00010221
9.56004e-05
7.51874e-05
4.30932e-05
7.53675e-06
-2.06424e-05
-3.60285e-05
-3.94769e-05
-3.30973e-05
-1.89706e-05
1.94059e-07
2.2226e-05
4.46138e-05
6.1281e-05
6.78904e-05
7.11259e-05
8.29504e-05
0.000107501
0.000134655
0.00014618
0.00013878
0.00012141
9.38201e-05
5.28441e-05
8.18756e-06
-1.22086e-05
-3.22457e-05
-3.72313e-05
-4.12967e-05
-5.0783e-05
-5.54864e-05
-4.79023e-05
-3.35154e-05
-1.8375e-05
-4.23539e-06
1.09525e-05
3.00821e-05
5.20173e-05
7.21328e-05
8.72363e-05
9.4266e-05
9.01704e-05
7.30686e-05
4.3935e-05
1.02448e-05
-1.61553e-05
-2.76426e-05
-2.40805e-05
-1.04249e-05
9.06428e-06
2.96224e-05
4.89183e-05
6.50344e-05
7.27036e-05
6.8274e-05
6.08391e-05
6.64707e-05
9.07295e-05
0.000121831
0.000138282
0.000134613
0.0001221
0.000102709
6.88281e-05
2.57644e-05
1.24562e-05
-1.74457e-05
-2.99188e-05
-3.65532e-05
-4.86015e-05
-5.93695e-05
-5.84871e-05
-4.6589e-05
-2.94465e-05
-1.08638e-05
6.49885e-06
2.3948e-05
4.19527e-05
5.80078e-05
7.04544e-05
7.71045e-05
7.51176e-05
6.20622e-05
3.77899e-05
9.00379e-06
-1.22604e-05
-1.87608e-05
-8.11338e-06
1.35544e-05
3.9424e-05
6.21508e-05
7.90172e-05
8.99036e-05
9.06477e-05
7.70839e-05
5.8827e-05
5.57968e-05
7.69358e-05
0.000109356
0.000131235
0.000133403
0.000127295
0.000116593
9.24393e-05
5.37307e-05
4.10163e-05
4.25184e-06
-1.64987e-05
-2.68139e-05
-3.97177e-05
-5.44945e-05
-6.05195e-05
-5.40163e-05
-3.87789e-05
-1.83242e-05
2.24859e-06
2.03772e-05
3.60775e-05
4.75865e-05
5.47056e-05
5.7638e-05
5.5239e-05
4.5132e-05
2.63698e-05
3.96895e-06
-1.06649e-05
-9.69938e-06
7.4989e-06
3.57147e-05
6.58847e-05
9.01942e-05
0.000104685
0.000111643
0.000109047
9.29868e-05
6.91723e-05
5.83493e-05
7.23083e-05
0.000101765
0.000126745
0.000134985
0.000134338
0.000129477
0.000113959
8.26895e-05
6.48338e-05
2.70495e-05
1.27821e-06
-1.16603e-05
-2.34799e-05
-4.00507e-05
-5.21149e-05
-5.26581e-05
-4.24002e-05
-2.37553e-05
-1.74047e-06
1.78096e-05
3.273e-05
4.17011e-05
4.50508e-05
4.54099e-05
4.23016e-05
3.29147e-05
1.78944e-05
3.12998e-07
-1.07545e-05
-6.17479e-06
1.39822e-05
4.47715e-05
7.80937e-05
0.000104384
0.000119175
0.000124159
0.000120222
0.000106825
8.50034e-05
7.14713e-05
7.83109e-05
0.000101015
0.000123368
0.0001352
0.000138249
0.00013612
0.000125884
0.000101327
8.31239e-05
5.09697e-05
2.53958e-05
1.17e-05
8.86534e-07
-1.67991e-05
-3.42221e-05
-4.226e-05
-3.85913e-05
-2.46586e-05
-4.49626e-06
1.55849e-05
3.06462e-05
3.98569e-05
4.36617e-05
4.40306e-05
4.15336e-05
3.36995e-05
1.97451e-05
3.5392e-06
-6.85724e-06
-3.46062e-06
1.38729e-05
4.27303e-05
7.7594e-05
0.000106947
0.000123008
0.000126269
0.000121298
0.000110882
9.38232e-05
8.17089e-05
8.48326e-05
0.000100676
0.000119039
0.000131653
0.000136164
0.000133952
0.00012671
0.000110783
9.77776e-05
7.26484e-05
5.00043e-05
3.66094e-05
2.63538e-05
9.48724e-06
-1.18873e-05
-2.6787e-05
-2.97307e-05
-2.13554e-05
-5.34995e-06
1.27924e-05
2.74979e-05
3.78004e-05
4.38299e-05
4.60647e-05
4.44717e-05
3.75399e-05
2.44335e-05
9.64082e-06
9.06465e-07
4.13697e-06
1.88809e-05
4.29159e-05
7.45856e-05
0.000104419
0.000121851
0.000122743
0.000114915
0.000105908
9.33812e-05
8.297e-05
8.32663e-05
9.49859e-05
0.000110884
0.000123496
0.000129192
0.000128686
0.000124995
0.000116341
0.000107157
8.67455e-05
6.62443e-05
5.32397e-05
4.40011e-05
2.99528e-05
9.52871e-06
-8.66294e-06
-1.7496e-05
-1.56454e-05
-5.23243e-06
9.49039e-06
2.34782e-05
3.42337e-05
4.19952e-05
4.63005e-05
4.59743e-05
3.99653e-05
2.83871e-05
1.59098e-05
1.12337e-05
1.71689e-05
3.09672e-05
4.99002e-05
7.36824e-05
9.89529e-05
0.000116542
0.000117738
0.000108497
9.94055e-05
9.08235e-05
8.3953e-05
8.23354e-05
8.88017e-05
0.000100861
0.000112925
0.000120096
0.000121679
0.000122014
0.000119161
0.000106062
9.00262e-05
7.23803e-05
6.13495e-05
5.46702e-05
4.45195e-05
2.72958e-05
9.04424e-06
-3.94365e-06
-9.48689e-06
-6.45333e-06
4.14905e-06
1.894e-05
3.28114e-05
4.30497e-05
4.79842e-05
4.81871e-05
4.33311e-05
3.43407e-05
2.38977e-05
1.89199e-05
2.34239e-05
3.6293e-05
5.26116e-05
7.10781e-05
9.18291e-05
0.000108248
0.000110573
0.000101097
9.03808e-05
8.38809e-05
8.06074e-05
8.24748e-05
8.89418e-05
9.94679e-05
0.000111028
0.000118151
0.000118923
0.000116755
0.00011363
9.59764e-05
8.13669e-05
6.60541e-05
5.7499e-05
5.52015e-05
5.1055e-05
3.93159e-05
2.23152e-05
7.16605e-06
-3.3393e-06
-8.94989e-06
-6.85035e-06
3.80132e-06
2.02936e-05
3.47856e-05
4.38972e-05
4.77523e-05
4.72963e-05
4.45131e-05
3.96349e-05
3.5184e-05
3.66807e-05
4.53623e-05
5.87304e-05
7.40361e-05
9.05796e-05
0.000103529
0.000105891
9.71602e-05
8.58977e-05
7.94652e-05
7.6288e-05
7.71927e-05
8.33582e-05
9.53732e-05
0.000108548
0.000115416
0.000114275
0.000109299
0.000104227
7.63101e-05
6.35406e-05
5.07491e-05
4.29029e-05
4.04544e-05
3.85971e-05
3.33664e-05
2.33709e-05
1.15772e-05
2.74287e-07
-8.2631e-06
-1.15036e-05
-7.30885e-06
2.44055e-06
1.39378e-05
2.29584e-05
2.88313e-05
3.29098e-05
3.62593e-05
3.80925e-05
3.90794e-05
4.1983e-05
4.94235e-05
6.06108e-05
7.23075e-05
8.32455e-05
9.00739e-05
8.92375e-05
8.19021e-05
7.435e-05
7.01741e-05
6.78369e-05
6.58654e-05
7.00057e-05
8.07373e-05
9.34583e-05
0.000101139
0.000100844
9.46227e-05
8.60342e-05
6.98672e-05
5.49031e-05
4.12273e-05
3.21142e-05
2.69331e-05
2.28981e-05
1.86865e-05
1.41553e-05
8.27219e-06
1.09145e-06
-7.54794e-06
-1.51549e-05
-1.77922e-05
-1.39937e-05
-5.29429e-06
3.92104e-06
1.09705e-05
1.65814e-05
2.2876e-05
2.81669e-05
3.18416e-05
3.64974e-05
4.59623e-05
5.89428e-05
7.09773e-05
7.89621e-05
8.12739e-05
7.62625e-05
6.59986e-05
5.59496e-05
4.94857e-05
4.44774e-05
4.08528e-05
4.32433e-05
5.36691e-05
6.93769e-05
8.42242e-05
9.17802e-05
9.01475e-05
8.19346e-05
8.24686e-05
6.69602e-05
5.40712e-05
4.58962e-05
4.08348e-05
3.31552e-05
2.34934e-05
1.45573e-05
7.46764e-06
1.69081e-06
-4.06922e-06
-1.05551e-05
-1.59413e-05
-1.6908e-05
-1.26567e-05
-5.10423e-06
2.10923e-06
8.3396e-06
1.49993e-05
2.18228e-05
2.8934e-05
3.6938e-05
4.83223e-05
6.25265e-05
7.54436e-05
8.36482e-05
8.539e-05
7.84877e-05
6.53688e-05
5.22691e-05
4.35711e-05
3.63656e-05
2.87827e-05
2.62881e-05
3.30323e-05
4.8315e-05
6.88494e-05
8.64343e-05
9.57287e-05
9.3854e-05
8.17097e-05
6.95418e-05
5.60909e-05
4.67174e-05
4.08076e-05
3.54625e-05
2.83846e-05
2.03306e-05
1.13912e-05
3.07561e-06
-2.93971e-06
-6.31453e-06
-7.74116e-06
-6.36391e-06
-2.09091e-06
4.24402e-06
1.15008e-05
1.89436e-05
2.62458e-05
3.30802e-05
3.93693e-05
4.56687e-05
5.43413e-05
6.59407e-05
7.61492e-05
8.24088e-05
8.33648e-05
7.85439e-05
6.80232e-05
5.60401e-05
4.84156e-05
4.49501e-05
4.11782e-05
3.7885e-05
3.9843e-05
4.83766e-05
6.13329e-05
7.4402e-05
8.40794e-05
8.7201e-05
7.17076e-05
5.94847e-05
4.54775e-05
3.52061e-05
2.75809e-05
2.1718e-05
1.5464e-05
9.4261e-06
5.28396e-06
3.30015e-06
2.82311e-06
3.97179e-06
5.69297e-06
7.96009e-06
1.10686e-05
1.44817e-05
1.89119e-05
2.47737e-05
3.19001e-05
4.05002e-05
4.91427e-05
5.61016e-05
6.10751e-05
6.59674e-05
7.07193e-05
7.28854e-05
7.12544e-05
6.55539e-05
5.61608e-05
4.59504e-05
3.94231e-05
3.74252e-05
3.67751e-05
3.58952e-05
3.6664e-05
4.1613e-05
5.07909e-05
6.2006e-05
7.17761e-05
7.61486e-05
6.07772e-05
4.89178e-05
3.41013e-05
2.18218e-05
1.50691e-05
1.04499e-05
5.34227e-06
1.59101e-07
-2.83894e-06
-4.05694e-06
-2.95073e-06
9.96558e-07
6.15083e-06
1.16679e-05
1.69075e-05
2.21576e-05
2.82995e-05
3.74516e-05
4.89388e-05
5.96619e-05
6.66398e-05
6.94168e-05
6.97338e-05
6.8656e-05
6.55128e-05
6.0339e-05
5.32277e-05
4.52147e-05
3.73833e-05
3.09089e-05
2.79757e-05
2.89894e-05
3.18243e-05
3.41439e-05
3.59159e-05
3.97128e-05
4.64117e-05
5.51655e-05
6.2811e-05
6.53198e-05
2.48368e-05
1.11502e-08
-2.10584e-05
-3.60833e-05
-4.10891e-05
-3.65477e-05
-2.898e-05
-2.35889e-05
-1.9177e-05
-1.04079e-05
4.18609e-06
2.04864e-05
3.45252e-05
4.60159e-05
5.60199e-05
6.22779e-05
6.01088e-05
4.72372e-05
2.58249e-05
3.03499e-06
-1.2561e-05
-1.71489e-05
-1.14894e-05
3.97038e-06
3.10683e-05
6.95671e-05
0.000114928
0.000157565
0.000185006
0.000194304
0.000196004
0.000200734
0.000207808
0.000211792
0.00020985
0.000200797
0.000180039
0.000143816
9.86491e-05
5.69134e-05
2.63055e-05
1.08851e-06
-2.04763e-05
-3.60262e-05
-4.14632e-05
-3.72422e-05
-2.98862e-05
-2.46624e-05
-2.03737e-05
-1.1632e-05
3.04272e-06
1.94312e-05
3.35411e-05
4.5112e-05
5.52532e-05
6.16992e-05
5.97523e-05
4.70888e-05
2.57802e-05
2.89943e-06
-1.30029e-05
-1.80748e-05
-1.30156e-05
1.77134e-06
2.82246e-05
6.62977e-05
0.000111592
0.000154513
0.000182391
0.000192001
0.000193934
0.000198965
0.000206453
0.000210912
0.000209528
0.00020116
0.000181174
0.000145527
0.000100558
5.86828e-05
2.71102e-05
1.37533e-06
-2.0864e-05
-3.71171e-05
-4.3061e-05
-3.90313e-05
-3.1662e-05
-2.64093e-05
-2.21751e-05
-1.34419e-05
1.34745e-06
1.78776e-05
3.20643e-05
4.37101e-05
5.40472e-05
6.08097e-05
5.92399e-05
4.69158e-05
2.57558e-05
2.73917e-06
-1.35114e-05
-1.90548e-05
-1.45012e-05
-2.96132e-07
2.55855e-05
6.33526e-05
0.000108738
0.000152047
0.000180262
0.000189847
0.000191662
0.000196921
0.00020497
0.000209989
0.000209171
0.000201619
0.000182602
0.000147502
0.000102379
5.9994e-05
2.68008e-05
4.15035e-07
-2.27129e-05
-4.00233e-05
-4.66661e-05
-4.26884e-05
-3.48577e-05
-2.90904e-05
-2.46151e-05
-1.57887e-05
-8.40619e-07
1.58547e-05
3.00988e-05
4.18043e-05
5.23822e-05
5.95938e-05
5.85477e-05
4.67073e-05
2.57772e-05
2.67118e-06
-1.38166e-05
-1.96152e-05
-1.53187e-05
-1.40718e-06
2.41144e-05
6.17165e-05
0.000107269
0.000150922
0.000179196
0.000188202
0.000189362
0.000194576
0.000203239
0.000208923
0.000208648
0.000201964
0.000184035
0.000149402
0.000103723
6.03942e-05
2.53536e-05
-1.70983e-06
-2.60614e-05
-4.49697e-05
-5.27284e-05
-4.87536e-05
-3.98317e-05
-3.26371e-05
-2.72298e-05
-1.81448e-05
-3.13881e-06
1.3652e-05
2.79339e-05
3.96285e-05
5.03713e-05
5.80237e-05
5.75666e-05
4.62933e-05
2.57062e-05
2.60928e-06
-1.40047e-05
-1.99217e-05
-1.57274e-05
-1.92338e-06
2.33902e-05
6.08866e-05
0.000106555
0.000150477
0.000178776
0.000187057
0.000187243
0.000192015
0.000201052
0.00020738
0.000207619
0.000201733
0.000184987
0.000150862
0.000104442
5.98146e-05
2.33646e-05
-4.34361e-06
-3.0419e-05
-5.17543e-05
-6.15194e-05
-5.79149e-05
-4.73505e-05
-3.74698e-05
-2.98339e-05
-1.97983e-05
-4.74587e-06
1.19456e-05
2.62258e-05
3.78978e-05
4.86563e-05
5.65071e-05
5.64748e-05
4.57385e-05
2.55148e-05
2.38308e-06
-1.45125e-05
-2.0888e-05
-1.73383e-05
-4.35084e-06
1.99861e-05
5.67819e-05
0.000102449
0.000147073
0.00017626
0.000184946
0.000184984
0.000189538
0.000198559
0.000205114
0.000205741
0.00020058
0.000185114
0.000151843
0.000104764
5.86612e-05
2.30233e-05
-4.85197e-06
-3.27077e-05
-5.80818e-05
-7.18517e-05
-7.01925e-05
-5.83906e-05
-4.49924e-05
-3.36423e-05
-2.13067e-05
-5.51682e-06
1.11795e-05
2.55326e-05
3.73539e-05
4.81294e-05
5.59173e-05
5.59209e-05
4.53747e-05
2.52224e-05
1.52224e-06
-1.6614e-05
-2.46616e-05
-2.31966e-05
-1.27108e-05
8.92929e-06
4.36152e-05
8.88176e-05
0.000134994
0.000166806
0.000177937
0.000179882
0.000185849
0.000195378
0.000201742
0.000202281
0.000197908
0.000184276
0.000152837
0.00010621
5.90818e-05
2.7822e-05
1.59521e-07
-2.90495e-05
-5.90347e-05
-7.9166e-05
-8.24037e-05
-7.1801e-05
-5.55699e-05
-4.00369e-05
-2.49616e-05
-7.83312e-06
9.60658e-06
2.46061e-05
3.71862e-05
4.84836e-05
5.65397e-05
5.65306e-05
4.57488e-05
2.49993e-05
-3.33953e-07
-2.13063e-05
-3.27754e-05
-3.4884e-05
-2.82702e-05
-1.0487e-05
2.13774e-05
6.55888e-05
0.000113267
0.00014872
0.00016367
0.000168695
0.000177753
0.000189271
0.000195927
0.000196064
0.000192581
0.00018218
0.000154732
0.000110791
6.42559e-05
3.99616e-05
1.20517e-05
-1.80009e-05
-5.25799e-05
-8.04783e-05
-9.13151e-05
-8.46106e-05
-6.79522e-05
-4.86854e-05
-3.06366e-05
-1.23637e-05
5.77965e-06
2.17761e-05
3.529e-05
4.72825e-05
5.59725e-05
5.68749e-05
4.66019e-05
2.51835e-05
-2.53159e-06
-2.72638e-05
-4.27245e-05
-4.82087e-05
-4.43888e-05
-2.93251e-05
1.69536e-07
4.24648e-05
8.91863e-05
0.000125972
0.000144366
0.000152222
0.000163627
0.000177996
0.0001865
0.000186861
0.000184018
0.000178361
0.000158857
0.000121451
7.70255e-05
5.88038e-05
2.88977e-05
-1.92375e-06
-3.99677e-05
-7.56224e-05
-9.56233e-05
-9.5189e-05
-8.05089e-05
-5.95461e-05
-3.82649e-05
-1.83365e-05
2.45716e-07
1.63888e-05
3.04329e-05
4.29013e-05
5.20072e-05
5.39596e-05
4.5065e-05
2.45165e-05
-3.82755e-06
-3.09725e-05
-4.92002e-05
-5.65547e-05
-5.3615e-05
-3.9345e-05
-1.11951e-05
2.8737e-05
7.13109e-05
0.000104901
0.000123313
0.000133006
0.000146029
0.00016329
0.000175478
0.000178913
0.00017759
0.000175753
0.00016487
0.000136548
9.65415e-05
8.11061e-05
4.70276e-05
1.47329e-05
-2.41801e-05
-6.48952e-05
-9.36686e-05
-0.000101292
-9.06774e-05
-7.01089e-05
-4.63155e-05
-2.4271e-05
-5.42189e-06
9.83628e-06
2.26942e-05
3.44038e-05
4.35121e-05
4.6555e-05
3.91912e-05
2.00556e-05
-6.82629e-06
-3.28116e-05
-5.06394e-05
-5.718e-05
-5.24516e-05
-3.692e-05
-9.23331e-06
2.78901e-05
6.39972e-05
9.06786e-05
0.000105198
0.000113897
0.000127524
0.000147498
0.00016557
0.000175884
0.000179101
0.000181476
0.000177837
0.000157517
0.00012118
0.000104345
6.46545e-05
2.99288e-05
-8.25488e-06
-4.97867e-05
-8.45115e-05
-0.000100519
-9.66613e-05
-7.89596e-05
-5.52849e-05
-3.09496e-05
-1.07913e-05
3.47343e-06
1.38488e-05
2.31243e-05
3.1122e-05
3.48241e-05
2.91057e-05
1.15151e-05
-1.35957e-05
-3.63484e-05
-5.0039e-05
-5.2858e-05
-4.4621e-05
-2.64834e-05
9.54795e-07
3.5324e-05
6.48483e-05
8.39229e-05
9.37486e-05
9.9531e-05
0.000111091
0.00013119
0.000153463
0.00017129
0.000181325
0.000189152
0.000192623
0.000180198
0.000147403
0.000123992
8.03951e-05
4.34463e-05
7.67865e-06
-3.19434e-05
-6.90813e-05
-9.25446e-05
-9.67786e-05
-8.58259e-05
-6.49278e-05
-3.90473e-05
-1.61832e-05
-1.03225e-06
7.84853e-06
1.42372e-05
1.97141e-05
2.26403e-05
1.75778e-05
1.19383e-06
-2.22972e-05
-4.19414e-05
-5.11851e-05
-4.92368e-05
-3.74565e-05
-1.70676e-05
1.07488e-05
4.28397e-05
6.71337e-05
8.10414e-05
8.79616e-05
9.20404e-05
0.000100502
0.000117985
0.000140633
0.000162533
0.000178048
0.000190878
0.000200575
0.000195839
0.000167724
0.000136105
9.29969e-05
5.68414e-05
2.44085e-05
-1.13604e-05
-4.88039e-05
-7.75359e-05
-8.93304e-05
-8.59525e-05
-7.06714e-05
-4.60468e-05
-1.98351e-05
-2.17549e-06
6.8432e-06
1.16396e-05
1.51839e-05
1.73e-05
1.29376e-05
-1.29294e-06
-2.19886e-05
-3.84029e-05
-4.46429e-05
-4.08712e-05
-2.81629e-05
-7.15411e-06
2.11537e-05
5.06684e-05
7.12189e-05
8.13204e-05
8.61351e-05
8.96273e-05
9.50697e-05
0.000108407
0.000128178
0.000149682
0.000166748
0.000181849
0.000195622
0.000197565
0.000176134
0.00014117
0.000103646
7.06627e-05
4.17688e-05
1.00712e-05
-2.66227e-05
-5.88508e-05
-7.65868e-05
-7.96743e-05
-6.99643e-05
-4.83358e-05
-2.10419e-05
-2.90874e-07
1.10547e-05
1.70739e-05
2.07422e-05
2.22367e-05
1.77224e-05
4.72778e-06
-1.33089e-05
-2.73603e-05
-3.22536e-05
-2.88216e-05
-1.72531e-05
3.57547e-06
3.30986e-05
6.1693e-05
7.93857e-05
8.56668e-05
8.768e-05
8.95988e-05
9.25845e-05
0.000101617
0.000117098
0.000135257
0.000151475
0.000165473
0.000178141
0.00018352
0.000171676
0.000145809
0.00011578
8.5758e-05
5.91935e-05
3.08812e-05
-3.32461e-06
-3.73389e-05
-6.03845e-05
-6.89886e-05
-6.40058e-05
-4.62059e-05
-2.05081e-05
1.86845e-06
1.59293e-05
2.38393e-05
2.80833e-05
2.88072e-05
2.22705e-05
7.72588e-06
-1.02687e-05
-2.20698e-05
-2.36949e-05
-1.78437e-05
-6.21993e-06
1.45904e-05
4.54819e-05
7.42152e-05
8.82647e-05
8.96897e-05
8.93257e-05
9.00078e-05
9.11574e-05
9.63422e-05
0.000108458
0.000125003
0.000141604
0.000154768
0.000164928
0.000170086
0.000165286
0.000148293
0.000124456
9.7654e-05
7.40414e-05
4.92706e-05
1.96585e-05
-1.14433e-05
-3.68822e-05
-5.05239e-05
-5.23725e-05
-4.34336e-05
-2.34621e-05
-7.11451e-07
1.69085e-05
2.86221e-05
3.50889e-05
3.66245e-05
3.08762e-05
1.65438e-05
-8.10321e-07
-1.11251e-05
-1.03586e-05
-2.47378e-06
9.49668e-06
2.86379e-05
5.66837e-05
8.32141e-05
9.49671e-05
9.27107e-05
8.91682e-05
8.92371e-05
9.1234e-05
9.53754e-05
0.000104761
0.000119618
0.000135186
0.000147045
0.000155177
0.000160655
0.00016052
0.000141573
0.000124212
0.000101949
8.21506e-05
6.32058e-05
4.04774e-05
1.6009e-05
-5.64777e-06
-2.09422e-05
-3.08435e-05
-3.28267e-05
-2.33323e-05
-4.52146e-06
1.53622e-05
3.04462e-05
3.96121e-05
4.30942e-05
3.94533e-05
2.70279e-05
1.06372e-05
1.50167e-07
1.22879e-06
1.02419e-05
2.31771e-05
4.07561e-05
6.47007e-05
8.81005e-05
9.90573e-05
9.64978e-05
9.05102e-05
8.81684e-05
8.92318e-05
9.39362e-05
0.000103383
0.000116462
0.000129412
0.000138726
0.000144191
0.000148002
0.00014865
0.000122523
0.000110286
9.47154e-05
8.20466e-05
7.14121e-05
5.7821e-05
4.00271e-05
2.15959e-05
6.71722e-06
-5.47602e-06
-1.63856e-05
-1.97007e-05
-1.02525e-05
8.15127e-06
2.59736e-05
3.71319e-05
4.16958e-05
4.10384e-05
3.50342e-05
2.43786e-05
1.45441e-05
1.24143e-05
1.93999e-05
3.34929e-05
5.04105e-05
6.93043e-05
8.73711e-05
9.78146e-05
9.71117e-05
9.18135e-05
8.77505e-05
8.58425e-05
8.75605e-05
9.52931e-05
0.000107915
0.000119878
0.00012629
0.000127223
0.00012683
0.000126766
9.72104e-05
8.88919e-05
7.86523e-05
6.99694e-05
6.29779e-05
5.59733e-05
4.55648e-05
3.15323e-05
1.65229e-05
1.7459e-06
-1.09434e-05
-1.81024e-05
-1.69165e-05
-7.29281e-06
6.93803e-06
1.95623e-05
2.80162e-05
3.19683e-05
3.2302e-05
2.89329e-05
2.29985e-05
1.95679e-05
2.39543e-05
3.4701e-05
4.90361e-05
6.36439e-05
7.61459e-05
8.39323e-05
8.62788e-05
8.55034e-05
8.37824e-05
8.09498e-05
7.97046e-05
8.46606e-05
9.56956e-05
0.000107203
0.000113383
0.000112885
0.000108256
0.000103061
8.60242e-05
7.60773e-05
6.63275e-05
5.92188e-05
5.32969e-05
4.61228e-05
3.77877e-05
2.81314e-05
1.70618e-05
4.24565e-06
-1.01448e-05
-2.26715e-05
-2.95256e-05
-2.80698e-05
-1.9833e-05
-9.22001e-06
4.96208e-07
8.55014e-06
1.53704e-05
1.96809e-05
2.04169e-05
2.14769e-05
2.78825e-05
3.8631e-05
5.03021e-05
6.15576e-05
7.08229e-05
7.59552e-05
7.62425e-05
7.37323e-05
7.07169e-05
6.68711e-05
6.46892e-05
6.75679e-05
7.78664e-05
9.18198e-05
0.000102779
0.000106997
0.000103359
9.53294e-05
9.13285e-05
8.02923e-05
7.18739e-05
6.77875e-05
6.37789e-05
5.46517e-05
4.28736e-05
3.09321e-05
1.99679e-05
9.85431e-06
-1.65057e-06
-1.44943e-05
-2.60805e-05
-3.23912e-05
-3.18635e-05
-2.69034e-05
-1.96521e-05
-1.23387e-05
-5.77368e-06
6.13087e-07
7.53778e-06
1.59358e-05
2.83269e-05
4.3434e-05
5.78007e-05
6.87228e-05
7.53454e-05
7.70423e-05
7.33682e-05
6.70188e-05
6.17987e-05
5.8213e-05
5.57491e-05
5.62689e-05
6.30615e-05
7.54575e-05
8.91901e-05
0.000100763
0.000105444
0.000101464
8.75115e-05
7.78817e-05
6.83105e-05
6.16767e-05
5.64752e-05
5.07126e-05
4.24849e-05
3.34632e-05
2.48993e-05
1.73486e-05
1.03139e-05
3.30343e-06
-3.12106e-06
-6.74511e-06
-6.73042e-06
-3.8809e-06
7.95181e-07
5.82837e-06
9.79412e-06
1.25906e-05
1.59717e-05
2.11608e-05
2.94914e-05
4.10556e-05
5.28543e-05
6.10099e-05
6.57731e-05
6.71318e-05
6.37793e-05
5.75395e-05
5.24169e-05
5.04846e-05
5.05812e-05
5.15052e-05
5.54252e-05
6.32181e-05
7.36528e-05
8.41523e-05
9.12574e-05
9.2541e-05
7.82528e-05
6.81865e-05
5.68877e-05
4.77839e-05
4.07527e-05
3.48855e-05
2.78331e-05
2.1212e-05
1.58134e-05
1.1302e-05
7.67737e-06
5.11471e-06
4.5877e-06
5.84895e-06
8.44383e-06
1.13264e-05
1.42105e-05
1.81091e-05
2.3393e-05
2.94996e-05
3.53362e-05
4.02516e-05
4.43208e-05
4.94584e-05
5.55354e-05
5.97709e-05
6.11132e-05
5.922e-05
5.37514e-05
4.6652e-05
4.15825e-05
4.04251e-05
4.1284e-05
4.26097e-05
4.52203e-05
5.08317e-05
5.96358e-05
6.97303e-05
7.83011e-05
8.20233e-05
6.63074e-05
5.48551e-05
4.08244e-05
2.8506e-05
2.03084e-05
1.44947e-05
8.66217e-06
3.71033e-06
8.67576e-07
-5.73134e-07
-7.62425e-07
1.65642e-06
5.85519e-06
1.14374e-05
1.73754e-05
2.29272e-05
2.86138e-05
3.58811e-05
4.45866e-05
5.24918e-05
5.74534e-05
5.93576e-05
5.99682e-05
6.06497e-05
6.03004e-05
5.77315e-05
5.3604e-05
4.86218e-05
4.31983e-05
3.9166e-05
3.79255e-05
3.93014e-05
4.15146e-05
4.3196e-05
4.50885e-05
4.87938e-05
5.51013e-05
6.28931e-05
6.96149e-05
7.15958e-05
6.94882e-05
3.26091e-05
2.99231e-06
-1.79862e-05
-2.824e-05
-2.89112e-05
-2.47106e-05
-2.07668e-05
-1.78911e-05
-1.34503e-05
-7.20989e-06
-1.88112e-06
1.94604e-06
7.82418e-06
1.81483e-05
2.88154e-05
3.29042e-05
2.80081e-05
1.73049e-05
6.375e-06
8.07986e-07
2.88934e-06
1.15167e-05
2.59124e-05
4.67203e-05
7.39311e-05
0.000107031
0.000143945
0.00017707
0.00020051
0.000219156
0.000237295
0.000250213
0.000252977
0.000248256
0.000238183
0.000219004
0.00018896
0.000152194
0.000111398
7.14423e-05
3.45021e-05
4.7107e-06
-1.66073e-05
-2.72987e-05
-2.83643e-05
-2.44446e-05
-2.06712e-05
-1.78827e-05
-1.34705e-05
-7.17992e-06
-1.79904e-06
2.00377e-06
7.77069e-06
1.79595e-05
2.85782e-05
3.26264e-05
2.76229e-05
1.67682e-05
5.69355e-06
6.35334e-09
1.98369e-06
1.05075e-05
2.46999e-05
4.51996e-05
7.20248e-05
0.000104677
0.000141112
0.000173863
0.000196999
0.000215448
0.000233736
0.000247122
0.00025046
0.000246461
0.000237334
0.000219155
0.000189921
0.000153719
0.000113268
7.32804e-05
3.58002e-05
5.4115e-06
-1.65451e-05
-2.78039e-05
-2.91818e-05
-2.5277e-05
-2.13759e-05
-1.85217e-05
-1.40732e-05
-7.70646e-06
-2.29309e-06
1.40845e-06
7.02832e-06
1.72522e-05
2.80575e-05
3.22719e-05
2.72628e-05
1.62842e-05
5.06152e-06
-7.73155e-07
1.0645e-06
9.47659e-06
2.35055e-05
4.37875e-05
7.038e-05
0.000102719
0.000138724
0.000170995
0.00019351
0.000211499
0.000230032
0.000244177
0.000248282
0.00024509
0.000237054
0.000220118
0.000191798
0.000156012
0.000115535
7.49315e-05
3.61808e-05
4.52147e-06
-1.85899e-05
-3.06969e-05
-3.23106e-05
-2.80523e-05
-2.35959e-05
-2.03767e-05
-1.57957e-05
-9.36453e-06
-3.9711e-06
-4.48059e-07
5.01617e-06
1.54425e-05
2.68097e-05
3.15942e-05
2.68367e-05
1.58586e-05
4.57271e-06
-1.30228e-06
4.90579e-07
8.86847e-06
2.28647e-05
4.30755e-05
6.96302e-05
0.000101887
0.00013765
0.000169475
0.000191079
0.000208156
0.000226806
0.000241915
0.000246972
0.000244616
0.000237706
0.000222108
0.000194715
0.000159164
0.000118246
7.68446e-05
3.59678e-05
2.25969e-06
-2.27179e-05
-3.61918e-05
-3.81469e-05
-3.32242e-05
-2.76959e-05
-2.3689e-05
-1.88743e-05
-1.2497e-05
-7.27467e-06
-4.05676e-06
1.20405e-06
1.18378e-05
2.41173e-05
2.99108e-05
2.58285e-05
1.50805e-05
3.85624e-06
-1.87874e-06
8.58405e-08
8.63328e-06
2.27949e-05
4.31256e-05
6.9781e-05
0.000102082
0.000137867
0.000169616
0.000190396
0.000206127
0.00022441
0.000240432
0.000246635
0.00024521
0.000239375
0.000225069
0.000198583
0.000163227
0.000121734
7.97684e-05
3.6026e-05
-7.10743e-07
-2.84736e-05
-4.41261e-05
-4.68101e-05
-4.10225e-05
-3.38175e-05
-2.8363e-05
-2.3065e-05
-1.69258e-05
-1.21711e-05
-9.48379e-06
-4.6838e-06
6.24463e-06
1.94924e-05
2.66157e-05
2.36701e-05
1.35149e-05
2.4404e-06
-3.2638e-06
-1.34688e-06
7.21844e-06
2.16714e-05
4.24048e-05
6.92971e-05
0.000101553
0.000137594
0.000170167
0.000191232
0.000205986
0.000223272
0.000239689
0.000247139
0.000246938
0.000242262
0.000229123
0.000203506
0.000168427
0.000126525
8.497e-05
3.7694e-05
-2.99896e-06
-3.47939e-05
-5.39984e-05
-5.83228e-05
-5.18049e-05
-4.22904e-05
-3.43329e-05
-2.77635e-05
-2.1683e-05
-1.76432e-05
-1.57938e-05
-1.16463e-05
-8.03344e-07
1.32915e-05
2.1934e-05
2.0529e-05
1.13097e-05
3.53465e-07
-5.84806e-06
-5.03195e-06
2.11334e-06
1.55318e-05
3.59637e-05
6.28482e-05
9.5033e-05
0.000131562
0.000166193
0.000189941
0.000205824
0.000222572
0.00023873
0.000247338
0.000249064
0.000246311
0.000234682
0.000209985
0.000175325
0.000133322
9.35727e-05
4.28397e-05
-2.48632e-06
-3.93616e-05
-6.3925e-05
-7.19081e-05
-6.56934e-05
-5.39758e-05
-4.27545e-05
-3.3611e-05
-2.65751e-05
-2.27634e-05
-2.15955e-05
-1.83168e-05
-8.17393e-06
6.23751e-06
1.6334e-05
1.7023e-05
9.18998e-06
-1.93722e-06
-9.62432e-06
-1.14158e-05
-7.64102e-06
2.59746e-06
2.08391e-05
4.6611e-05
7.82859e-05
0.000115713
0.000152631
0.000180103
0.000199567
0.000217896
0.000234235
0.000243731
0.000248181
0.000249626
0.000241565
0.000218696
0.000184789
0.000142945
0.000105391
5.23595e-05
2.98312e-06
-3.93238e-05
-7.02443e-05
-8.38013e-05
-8.03069e-05
-6.80652e-05
-5.47369e-05
-4.35116e-05
-3.53157e-05
-3.09349e-05
-2.97723e-05
-2.68063e-05
-1.74155e-05
-3.8477e-06
7.07008e-06
1.02808e-05
5.1343e-06
-5.28138e-06
-1.50174e-05
-2.08855e-05
-2.17739e-05
-1.55717e-05
-1.44947e-07
2.41659e-05
5.54951e-05
9.31511e-05
0.000131397
0.000161141
0.000183157
0.000203746
0.00022162
0.000232325
0.000239413
0.000246678
0.000246443
0.000229293
0.000197293
0.000155644
0.000119965
6.5031e-05
1.37845e-05
-3.26231e-05
-6.97343e-05
-9.01928e-05
-9.12167e-05
-8.07547e-05
-6.76502e-05
-5.62653e-05
-4.78578e-05
-4.36778e-05
-4.32852e-05
-4.1083e-05
-3.26734e-05
-1.99023e-05
-8.30149e-06
-2.17177e-06
-3.97264e-06
-1.24556e-05
-2.27937e-05
-3.16984e-05
-3.68822e-05
-3.405e-05
-2.03862e-05
3.22714e-06
3.42837e-05
7.13146e-05
0.00010883
0.000139121
0.000161236
0.000181437
0.000200361
0.000213101
0.000223054
0.000235899