/*--------------------------------*- C++ -*----------------------------------*\
| =========                 |                                                 |
| \\      /  F ield         | OpenFOAM: The Open Source CFD Toolbox           |
|  \\    /   O peration     | Version:  2306                                  |
|   \\  /    A nd           | Website:  www.openfoam.com                      |
|    \\/     M anipulation  |                                                 |
\*---------------------------------------------------------------------------*/
FoamFile
{
    version     2.0;
    format      ascii;
    arch        "LSB;label=32;scalar=64";
    class       volVectorField;
    location    "7";
    object      U_0;
}
// * * * * * * * * * * * * * * * * * * * * * * * * * * * * * * * * * * * * * //

dimensions      [0 1 -1 0 0 0 0];

internalField   nonuniform List<vector> 
60000
(
(0.00735153 3.64673e-05 0.000163293)
(0.00796377 2.9808e-05 0.000388849)
(0.00863816 2.85011e-05 0.000809957)
(0.00919408 3.52432e-05 0.00142707)
(0.00941552 4.22002e-05 0.0020976)
(0.00922778 3.85566e-05 0.00258768)
(0.00880564 2.59794e-05 0.00275013)
(0.00842076 1.49361e-05 0.00258164)
(0.00816779 9.0007e-06 0.00218975)
(0.00799549 6.64944e-06 0.00171821)
(0.00783529 3.46983e-06 0.00132446)
(0.00759662 -2.52285e-06 0.00111045)
(0.0071867 -8.67949e-06 0.00106184)
(0.006589 -8.71414e-06 0.00110301)
(0.00594958 -4.51382e-06 0.00115005)
(0.00549794 1.81217e-08 0.00114959)
(0.00533971 -3.98753e-07 0.00105682)
(0.00541489 -7.83727e-06 0.000826478)
(0.00558959 -1.62614e-05 0.000526923)
(0.00575996 -1.62351e-05 0.000270099)
(0.0059512 -9.18592e-06 6.02426e-05)
(0.00623263 -3.66738e-06 -0.000119964)
(0.00657469 1.14811e-05 -0.000244544)
(0.00689224 2.46611e-05 -0.000305794)
(0.00716158 2.78556e-05 -0.000391636)
(0.00741752 1.9405e-05 -0.000635139)
(0.00773762 -1.88745e-06 -0.00114195)
(0.00815559 -2.23348e-05 -0.00180155)
(0.00852433 -2.96675e-05 -0.00230594)
(0.0086161 -2.46447e-05 -0.00246306)
(0.00833775 -1.23536e-05 -0.00245095)
(0.00776881 3.91107e-06 -0.0024594)
(0.00706901 1.56021e-05 -0.00237618)
(0.00643372 1.22599e-05 -0.00218487)
(0.0060111 3.59573e-06 -0.00202342)
(0.00586601 2.82661e-06 -0.00186561)
(0.00598337 4.22595e-06 -0.00156526)
(0.00624758 1.05542e-05 -0.00107312)
(0.00654458 2.11729e-05 -0.000517528)
(0.00688244 3.2558e-05 -8.46451e-05)
(0.0221648 0.000154547 0.000431413)
(0.0240796 0.000117423 0.00115001)
(0.0260509 0.000135051 0.00238398)
(0.0276933 0.000203803 0.0040552)
(0.0285307 0.00026573 0.00572808)
(0.0282432 0.000257256 0.00685017)
(0.0271079 0.000184664 0.00712069)
(0.0258844 0.000107013 0.00659711)
(0.0250252 5.92745e-05 0.00558591)
(0.0244844 4.03276e-05 0.00444212)
(0.0240321 2.85395e-05 0.00349692)
(0.023333 9.40817e-06 0.00294077)
(0.0221071 -1.05504e-05 0.00276891)
(0.0203821 -2.97686e-05 0.00285969)
(0.0185918 -6.37759e-05 0.00300773)
(0.0172854 -0.000110135 0.00300207)
(0.016691 -0.000155288 0.00269669)
(0.0166567 -0.000186069 0.00208449)
(0.0168929 -0.000182683 0.00137336)
(0.0172247 -0.000139628 0.000762472)
(0.017725 -7.93655e-05 0.000248611)
(0.0184844 -1.81855e-05 -0.000193137)
(0.0194073 6.0636e-05 -0.000510919)
(0.02037 0.000102973 -0.000719345)
(0.0213916 7.08178e-05 -0.00102706)
(0.0225486 -4.43785e-05 -0.00174043)
(0.0239188 -0.000198361 -0.00306915)
(0.0253885 -0.000291997 -0.00470281)
(0.0264469 -0.000255673 -0.00593027)
(0.026525 -0.000125725 -0.00638917)
(0.0255234 1.7816e-05 -0.00642942)
(0.0238412 0.000114822 -0.0063155)
(0.0219942 0.000121982 -0.00595451)
(0.0203269 4.26315e-05 -0.00556055)
(0.0189857 -3.75063e-05 -0.00533657)
(0.0181747 -5.52906e-05 -0.00497608)
(0.0180773 -2.75414e-05 -0.00408513)
(0.0185632 4.12172e-05 -0.00270696)
(0.0194027 0.000120278 -0.00127851)
(0.0205703 0.000165823 -0.000223922)
(0.0367797 0.000292594 0.000101017)
(0.0400597 0.000194545 0.00122033)
(0.0434372 0.000243557 0.00312962)
(0.0464255 0.000395635 0.00570566)
(0.0483644 0.000522291 0.00826136)
(0.0485186 0.000504518 0.0100043)
(0.0469049 0.000366957 0.0105157)
(0.0446726 0.000217665 0.00986269)
(0.0429393 0.000117864 0.00848566)
(0.0418993 7.17945e-05 0.00691147)
(0.0411806 4.4507e-05 0.00556354)
(0.0401685 6.56056e-06 0.00463778)
(0.0383629 -3.12861e-05 0.0041757)
(0.0357606 -8.25265e-05 0.00416838)
(0.0329121 -0.000182863 0.00441675)
(0.0305448 -0.00031758 0.00451669)
(0.0290819 -0.00043578 0.00412734)
(0.0284793 -0.000496553 0.00326866)
(0.0284429 -0.000462677 0.00228688)
(0.028752 -0.000344363 0.00144555)
(0.0294531 -0.000190886 0.000729176)
(0.030596 -2.44649e-05 0.000102261)
(0.0320447 0.000139986 -0.000359115)
(0.033692 0.0001857 -0.000646777)
(0.0356038 3.71176e-05 -0.00101928)
(0.0378541 -0.000304539 -0.00193434)
(0.040482 -0.000696751 -0.00376793)
(0.0432308 -0.000898851 -0.0061917)
(0.0452281 -0.000761623 -0.00821868)
(0.0455368 -0.000390053 -0.00923251)
(0.0440409 4.41745e-07 -0.00951589)
(0.0414764 0.000233056 -0.00930224)
(0.0387079 0.000223618 -0.00863197)
(0.0361283 2.87551e-05 -0.00806721)
(0.033724 -0.000137246 -0.00795056)
(0.03173 -0.000161388 -0.00770238)
(0.0307091 -7.99704e-05 -0.00656443)
(0.0308877 8.3632e-05 -0.00456761)
(0.0320516 0.000260946 -0.00244991)
(0.0340218 0.000340409 -0.000886706)
(0.0502283 0.000343411 -0.00145857)
(0.054831 0.000129791 -0.00017232)
(0.0597249 0.000191839 0.00217198)
(0.0644024 0.000452724 0.00552851)
(0.0680964 0.000670113 0.00903169)
(0.0695506 0.000669656 0.0116568)
(0.0680541 0.00050845 0.0128076)
(0.0647912 0.000324047 0.0124211)
(0.0618279 0.000178803 0.010976)
(0.0600449 9.28474e-05 0.00920805)
(0.0590574 4.02052e-05 0.0076555)
(0.0579543 -1.11021e-05 0.00641877)
(0.0559632 -5.57837e-05 0.00549441)
(0.0529325 -0.000129165 0.00510958)
(0.0493098 -0.000299731 0.00533201)
(0.0457447 -0.000547443 0.00567021)
(0.0428228 -0.000778189 0.00542859)
(0.0409051 -0.000906874 0.00448484)
(0.0400201 -0.000860876 0.00334754)
(0.0399715 -0.000660299 0.00240541)
(0.0406703 -0.000384315 0.00162289)
(0.0420438 -7.2403e-05 0.000928686)
(0.0439144 0.000201133 0.000434417)
(0.0461938 0.000222938 0.000237882)
(0.048966 -0.00013346 0.00011293)
(0.0522399 -0.000834663 -0.00052594)
(0.0560441 -0.00160752 -0.00235223)
(0.0602061 -0.00198161 -0.00534591)
(0.0636449 -0.00168253 -0.00842325)
(0.0648867 -0.000942277 -0.0105089)
(0.063562 -0.00016483 -0.0115356)
(0.0606328 0.000303413 -0.0115614)
(0.0572962 0.000308025 -0.0106474)
(0.0540389 -2.21852e-05 -0.00976642)
(0.0506594 -0.000291611 -0.00971238)
(0.04716 -0.000327772 -0.00988314)
(0.0443281 -0.000198292 -0.00908003)
(0.0431917 6.30871e-05 -0.00700178)
(0.0440305 0.000354192 -0.00451061)
(0.046479 0.000466776 -0.00261008)
(0.061341 0.000169273 -0.00480562)
(0.0668304 -0.000270029 -0.00377608)
(0.073134 -0.000326109 -0.00141689)
(0.0797309 0.000111026 0.00246797)
(0.0858758 0.000525582 0.00703785)
(0.0898117 0.000614217 0.0110222)
(0.0896563 0.000507871 0.0134926)
(0.0858799 0.000374568 0.0140252)
(0.0814368 0.000228153 0.0129105)
(0.0785345 0.000100218 0.011151)
(0.0771701 6.61739e-06 0.00964355)
(0.0761653 -6.12627e-05 0.00839644)
(0.0744119 -9.72951e-05 0.00706362)
(0.0715195 -0.000155378 0.00598611)
(0.0676997 -0.000348589 0.00581538)
(0.0632469 -0.000675303 0.00634872)
(0.0585549 -0.00103052 0.00650324)
(0.0544263 -0.00129763 0.00568406)
(0.0517166 -0.00133193 0.00447318)
(0.0506316 -0.00110678 0.00353215)
(0.0509262 -0.000710805 0.00285057)
(0.0522682 -0.000212159 0.00227469)
(0.0543461 0.0002111 0.00193261)
(0.0570167 0.000199569 0.0020601)
(0.0603077 -0.000460226 0.00254551)
(0.0640486 -0.00170812 0.0027662)
(0.0682337 -0.00311671 0.00178733)
(0.0733749 -0.00387564 -0.00104769)
(0.0789644 -0.00335952 -0.00520467)
(0.0825758 -0.00199148 -0.00915166)
(0.0828145 -0.000630513 -0.011913)
(0.0805542 0.000227541 -0.013014)
(0.0772658 0.00034767 -0.0122518)
(0.073688 -8.81808e-05 -0.0109278)
(0.0696862 -0.000467361 -0.0106478)
(0.0649539 -0.000517712 -0.0112121)
(0.059942 -0.000362355 -0.0111555)
(0.0562705 -5.60984e-05 -0.00969208)
(0.0553939 0.000310676 -0.00747942)
(0.0572953 0.000437108 -0.00571797)
(0.0699417 -0.000301081 -0.00965769)
(0.0748752 -0.00117582 -0.00956066)
(0.0813931 -0.00162904 -0.00794435)
(0.0891199 -0.00122826 -0.00444972)
(0.0979525 -0.000506016 0.000659746)
(0.105994 2.90668e-05 0.00645166)
(0.10936 0.000224683 0.0113226)
(0.106681 0.000275347 0.0139383)
(0.101092 0.000226856 0.013943)
(0.0967091 8.15234e-05 0.0124196)
(0.0947427 -6.57099e-05 0.0110795)
(0.0939287 -0.000167378 0.0102899)
(0.0927146 -0.000190719 0.00907419)
(0.0904521 -0.000193123 0.00727599)
(0.0871752 -0.000324348 0.00617783)
(0.0827646 -0.000626446 0.00650007)
(0.0768994 -0.00102925 0.0071249)
(0.0701809 -0.00145706 0.00669907)
(0.0644192 -0.00171295 0.00550699)
(0.0610358 -0.0016236 0.00456701)
(0.0600982 -0.00118225 0.00407814)
(0.0609264 -0.0004726 0.00379559)
(0.0628426 0.000171648 0.00379262)
(0.0654837 0.000161324 0.00440226)
(0.0687808 -0.00093197 0.00561704)
(0.0722875 -0.00295411 0.00689805)
(0.0754104 -0.00527563 0.00745145)
(0.0792471 -0.00678932 0.00627203)
(0.0860755 -0.00644074 0.00254862)
(0.094118 -0.00430176 -0.00327441)
(0.0988125 -0.00178653 -0.00915949)
(0.0993156 -0.000164032 -0.0128646)
(0.0973173 0.000261754 -0.0133265)
(0.0939969 -0.000167906 -0.0118833)
(0.0898003 -0.000625477 -0.0111002)
(0.0845689 -0.000670491 -0.0116849)
(0.0781093 -0.000482312 -0.0122487)
(0.0717165 -0.000172908 -0.0116721)
(0.0677531 0.000165366 -0.0103928)
(0.0672958 0.000220782 -0.00957885)
(0.0795168 -0.000975289 -0.0138796)
(0.0816238 -0.00254683 -0.0155192)
(0.0858133 -0.00361236 -0.0154012)
(0.0915505 -0.0035571 -0.0134004)
(0.0996254 -0.00283966 -0.00966535)
(0.111265 -0.00198468 -0.00355251)
(0.121717 -0.0010211 0.00421132)
(0.123957 -0.000262648 0.0106091)
(0.119085 8.34646e-05 0.0133411)
(0.113341 4.04707e-05 0.012727)
(0.110563 -0.000166157 0.011434)
(0.110046 -0.000355115 0.0112677)
(0.109556 -0.00038824 0.0110596)
(0.108104 -0.000305646 0.00925505)
(0.105879 -0.000310188 0.00697107)
(0.102708 -0.000465148 0.00635285)
(0.0973565 -0.000759384 0.00711155)
(0.0891478 -0.00121757 0.00726742)
(0.0798946 -0.00172716 0.00631699)
(0.0726518 -0.00197777 0.00535668)
(0.0689921 -0.00168065 0.00497698)
(0.0684258 -0.000799756 0.00496709)
(0.0697412 0.000133623 0.00526141)
(0.0721475 0.000140284 0.00618551)
(0.0754787 -0.00144323 0.007792)
(0.0791634 -0.00428571 0.00961759)
(0.0816215 -0.00749346 0.0112115)
(0.0823383 -0.0099036 0.012266)
(0.0854151 -0.0102574 0.0114837)
(0.0945987 -0.0080883 0.00689276)
(0.105837 -0.00449395 -0.00132642)
(0.11299 -0.00143045 -0.00921565)
(0.114911 -0.000153933 -0.0128061)
(0.112983 -0.000321353 -0.0124941)
(0.108903 -0.000732403 -0.0114543)
(0.103826 -0.000721526 -0.0116651)
(0.0973456 -0.00048854 -0.0123606)
(0.0897307 -0.0001977 -0.0122967)
(0.0832732 0.000120859 -0.0118088)
(0.0798608 1.68773e-05 -0.012185)
(0.0942398 -0.00129109 -0.0147748)
(0.0926064 -0.00378071 -0.0186348)
(0.0920514 -0.00572084 -0.0209125)
(0.0935851 -0.00609496 -0.0206446)
(0.0972124 -0.00567133 -0.0185364)
(0.105948 -0.00516067 -0.0141795)
(0.120674 -0.00388307 -0.00651811)
(0.131799 -0.00199956 0.00301734)
(0.131735 -0.000713686 0.0099655)
(0.125957 -0.00030832 0.011757)
(0.12246 -0.000341059 0.0105648)
(0.122712 -0.000581286 0.0104199)
(0.123514 -0.000745797 0.0116269)
(0.122801 -0.000627842 0.0112237)
(0.121393 -0.000412931 0.00849504)
(0.120119 -0.000326264 0.00640469)
(0.117384 -0.000420083 0.00655433)
(0.110464 -0.000687855 0.00712828)
(0.0993916 -0.00124401 0.00667996)
(0.0878211 -0.00186235 0.00589473)
(0.0796698 -0.00194381 0.00558403)
(0.0762066 -0.00106884 0.00569606)
(0.0763328 0.000154543 0.00606453)
(0.0786097 0.000298607 0.00700046)
(0.0823442 -0.001485 0.00867906)
(0.0869248 -0.00481384 0.0105627)
(0.0906686 -0.00852614 0.0120815)
(0.0908669 -0.0115983 0.0138427)
(0.0885688 -0.0130094 0.0161121)
(0.0915781 -0.011704 0.0157417)
(0.102975 -0.00814707 0.00946013)
(0.116867 -0.0039709 -0.000822347)
(0.126075 -0.00131958 -0.00882859)
(0.12781 -0.000807612 -0.0116824)
(0.12425 -0.00101388 -0.011575)
(0.11942 -0.000813907 -0.0113544)
(0.114095 -0.000303631 -0.0116371)
(0.107402 0.000107681 -0.0115499)
(0.100793 0.000432321 -0.0111847)
(0.0964512 0.000187942 -0.0119332)
(0.111911 -0.00065651 -0.0113949)
(0.109358 -0.0037307 -0.0167641)
(0.103902 -0.00676899 -0.0221113)
(0.0998993 -0.00792257 -0.0245621)
(0.0991316 -0.00784478 -0.0238616)
(0.102323 -0.00808171 -0.0204641)
(0.113356 -0.00765671 -0.0143265)
(0.129359 -0.00522903 -0.00525033)
(0.137235 -0.00241373 0.00427193)
(0.133291 -0.00125653 0.0093227)
(0.127935 -0.00112981 0.00892802)
(0.128853 -0.00112016 0.00781772)
(0.132744 -0.00110994 0.00946386)
(0.133493 -0.00106157 0.0112571)
(0.131413 -0.000894015 0.00980293)
(0.130847 -0.000622899 0.00681085)
(0.132146 -0.000308342 0.00576808)
(0.130245 -0.000183907 0.00626518)
(0.121444 -0.000497714 0.00631641)
(0.107735 -0.00118228 0.00596636)
(0.094568 -0.00167356 0.00596046)
(0.0863273 -0.00109532 0.00629286)
(0.0838498 0.000234868 0.00675221)
(0.0854852 0.000583072 0.00756609)
(0.0895493 -0.00116599 0.00885924)
(0.0948959 -0.00464672 0.0102067)
(0.100084 -0.00840839 0.0111379)
(0.102387 -0.0113943 0.0124266)
(0.0993526 -0.013391 0.0158298)
(0.0954291 -0.0136368 0.0194202)
(0.100062 -0.0113084 0.0174284)
(0.114062 -0.00731535 0.00860516)
(0.129565 -0.00348945 -0.00188331)
(0.135667 -0.00143671 -0.00860825)
(0.129995 -0.000798016 -0.0106267)
(0.121685 -0.000723775 -0.0100292)
(0.117749 -0.000527358 -0.00910651)
(0.116228 9.18807e-05 -0.00853389)
(0.114104 0.000795566 -0.0081202)
(0.112478 0.000828636 -0.00857656)
(0.123895 0.000322341 -0.00413766)
(0.125733 -0.00227275 -0.0102322)
(0.119904 -0.00579457 -0.018253)
(0.110712 -0.00805093 -0.0243404)
(0.105442 -0.00848725 -0.0263819)
(0.105023 -0.00922008 -0.0242087)
(0.11001 -0.01037 -0.018774)
(0.122589 -0.00924322 -0.0110071)
(0.136722 -0.00542404 -0.00163471)
(0.140181 -0.00233668 0.00569432)
(0.133685 -0.00195901 0.00714871)
(0.12966 -0.00256578 0.00504145)
(0.134496 -0.00227738 0.00536171)
(0.140186 -0.00118145 0.00839774)
(0.138434 -0.000582556 0.00930278)
(0.133682 -0.000971074 0.00701248)
(0.134655 -0.00140126 0.00510779)
(0.140033 -0.000998176 0.0051341)
(0.13987 -0.000303636 0.00545281)
(0.129835 -0.000331809 0.0054403)
(0.114376 -0.000764884 0.00580601)
(0.100686 -0.000535773 0.00675083)
(0.0935559 0.000476104 0.00778911)
(0.0932139 0.000771327 0.00853655)
(0.0973414 -0.00108636 0.00872125)
(0.103614 -0.00457725 0.00839786)
(0.109858 -0.00809531 0.00807857)
(0.113619 -0.0105061 0.0088222)
(0.112271 -0.0119256 0.012559)
(0.106177 -0.0129621 0.0186229)
(0.103253 -0.0128668 0.0208105)
(0.111561 -0.010535 0.0146555)
(0.126934 -0.00636758 0.00373919)
(0.135163 -0.00203221 -0.0055082)
(0.128522 0.000499678 -0.00939751)
(0.116299 0.000565476 -0.00827058)
(0.109891 -0.000386463 -0.00513079)
(0.11056 -0.000449449 -0.00274159)
(0.114195 0.000432422 -0.00168687)
(0.11874 0.00103819 -0.00173068)
(0.123536 0.000439795 0.00530877)
(0.132914 -0.000837265 -0.000640184)
(0.133572 -0.00342388 -0.0107584)
(0.123981 -0.00625951 -0.0201857)
(0.11393 -0.00771202 -0.0258563)
(0.110415 -0.00873101 -0.0266037)
(0.112621 -0.0106867 -0.0225816)
(0.119404 -0.0118099 -0.0156417)
(0.131315 -0.00958903 -0.00719436)
(0.142315 -0.00505326 0.000920954)
(0.143304 -0.00241649 0.00493497)
(0.136072 -0.00303673 0.00382469)
(0.132453 -0.00410309 0.00241079)
(0.138101 -0.00268846 0.00448784)
(0.143323 0.000115219 0.00702294)
(0.140306 0.00073773 0.00659224)
(0.135297 -0.0015128 0.00482532)
(0.137934 -0.00347741 0.00440036)
(0.145672 -0.00276251 0.00492275)
(0.146352 -0.000802028 0.00505595)
(0.135528 0.000386399 0.0052094)
(0.119502 0.00100102 0.00653016)
(0.107121 0.00135193 0.00882205)
(0.102892 0.000709699 0.0102647)
(0.105637 -0.00194313 0.00922959)
(0.112236 -0.00551901 0.00632528)
(0.119838 -0.00829292 0.00375094)
(0.125216 -0.00961798 0.00324807)
(0.125153 -0.00994942 0.00672258)
(0.118972 -0.0103773 0.0144564)
(0.111262 -0.0117151 0.0205629)
(0.111806 -0.0120073 0.017903)
(0.122412 -0.00885098 0.0077657)
(0.130753 -0.0028074 -0.0026747)
(0.126659 0.00194386 -0.00813268)
(0.115698 0.00268043 -0.00769147)
(0.107949 0.000670659 -0.00363642)
(0.106535 -0.000635618 0.000957943)
(0.109401 -0.000197777 0.00425183)
(0.114739 0.00057538 0.00609646)
(0.117638 -0.000121855 0.0108573)
(0.130002 -0.000448287 0.00781133)
(0.139425 -0.00101489 -0.00223605)
(0.135912 -0.0029946 -0.0136948)
(0.124842 -0.00544651 -0.0220179)
(0.117265 -0.00744763 -0.026002)
(0.117434 -0.00961976 -0.0250265)
(0.121978 -0.0118888 -0.0199043)
(0.128881 -0.0123342 -0.0125164)
(0.138872 -0.00947163 -0.0044023)
(0.146663 -0.00511053 0.001661)
(0.145001 -0.00306034 0.00302581)
(0.136926 -0.00384945 0.0015858)
(0.134125 -0.0040942 0.00200287)
(0.139864 -0.00150813 0.00451769)
(0.144841 0.00129551 0.00578569)
(0.142842 0.000362336 0.00490009)
(0.138856 -0.00374381 0.00377483)
(0.141678 -0.00638809 0.00410458)
(0.149337 -0.00445658 0.00490798)
(0.14967 -0.000108125 0.00482676)
(0.138573 0.00292616 0.00561066)
(0.124658 0.00346542 0.00898797)
(0.116385 0.00141045 0.0120349)
(0.114894 -0.00274927 0.0102091)
(0.11818 -0.00729581 0.00432225)
(0.125501 -0.00987239 -0.00059575)
(0.133981 -0.00976056 -0.00222929)
(0.136895 -0.0082892 8.91864e-05)
(0.13151 -0.00733476 0.00794127)
(0.121567 -0.00854273 0.0173499)
(0.115571 -0.0108883 0.0191929)
(0.11941 -0.00988598 0.0114096)
(0.125704 -0.00372249 0.000941048)
(0.12528 0.00264196 -0.00606961)
(0.119815 0.00448908 -0.00815616)
(0.114469 0.00228918 -0.00618756)
(0.111304 0.000207532 -0.00153732)
(0.110519 0.000105769 0.00373501)
(0.11178 0.000342127 0.00827931)
(0.116332 -0.000878359 0.00791609)
(0.12575 -0.00161583 0.00906574)
(0.139192 -0.000119933 0.00277299)
(0.143438 0.000354818 -0.00770928)
(0.136254 -0.00202499 -0.0167254)
(0.126719 -0.00533403 -0.0225343)
(0.123288 -0.00815162 -0.0245463)
(0.126616 -0.0105682 -0.0225061)
(0.131777 -0.012701 -0.0172503)
(0.137523 -0.0127486 -0.00967904)
(0.144403 -0.00921757 -0.00207326)
(0.14707 -0.00474809 0.00192495)
(0.142241 -0.00303635 0.00166266)
(0.135971 -0.0035358 0.00105131)
(0.136447 -0.00294247 0.00286755)
(0.142701 -0.000619285 0.00539608)
(0.147048 0.000400458 0.00602649)
(0.145597 -0.00221228 0.00443225)
(0.142251 -0.00684008 0.00299036)
(0.144149 -0.00828865 0.00351217)
(0.149667 -0.00393773 0.00418301)
(0.148924 0.00208451 0.00483717)
(0.140286 0.00491387 0.00835728)
(0.130881 0.00355174 0.0124361)
(0.124937 -0.00067876 0.0102308)
(0.122287 -0.00630833 0.00194538)
(0.125103 -0.0107323 -0.00475146)
(0.135103 -0.0112017 -0.0060516)
(0.143753 -0.00827246 -0.00422275)
(0.141818 -0.00536508 0.00162436)
(0.131784 -0.00501765 0.0118873)
(0.121945 -0.00761512 0.018322)
(0.119631 -0.00858291 0.0144733)
(0.122548 -0.00395374 0.00492098)
(0.123899 0.00260085 -0.00324899)
(0.123432 0.0052207 -0.00773963)
(0.122586 0.00369285 -0.00878241)
(0.120618 0.00167523 -0.00654701)
(0.117607 0.001278 -0.00210544)
(0.115062 0.000820652 0.00308285)
(0.123044 -0.000843577 0.000538679)
(0.126626 -0.00324857 0.00431634)
(0.137839 -0.00133141 0.00275177)
(0.147538 0.00181089 -0.00387918)
(0.146466 0.00112335 -0.0118229)
(0.137802 -0.00240759 -0.0185522)
(0.130926 -0.00598084 -0.0224111)
(0.131454 -0.00867881 -0.0227776)
(0.136563 -0.0114094 -0.0202675)
(0.140775 -0.0136147 -0.01454)
(0.143944 -0.0121883 -0.00628655)
(0.146003 -0.00702375 6.5119e-05)
(0.143953 -0.00277787 0.00156649)
(0.139038 -0.00220148 0.000841301)
(0.136915 -0.00300449 0.00198093)
(0.140597 -0.00229111 0.00534934)
(0.146542 -0.000861542 0.00784249)
(0.149845 -0.00145333 0.00669157)
(0.148183 -0.00488351 0.00308989)
(0.143906 -0.00805931 0.00142804)
(0.1425 -0.00672261 0.00306392)
(0.142747 -0.00138953 0.00606498)
(0.139617 0.0032449 0.00966877)
(0.134186 0.00447385 0.01164)
(0.130448 0.00227706 0.00780932)
(0.127798 -0.00282044 -0.000815096)
(0.126832 -0.00897595 -0.00722867)
(0.133498 -0.0120554 -0.00721973)
(0.145115 -0.00987289 -0.00436581)
(0.148337 -0.0054681 -0.000841059)
(0.140008 -0.00306529 0.00677264)
(0.128755 -0.00412912 0.0152451)
(0.12263 -0.00540621 0.0159833)
(0.122617 -0.00242976 0.00885292)
(0.124327 0.00286625 0.000394114)
(0.126488 0.00491631 -0.00567694)
(0.129162 0.00371459 -0.0091262)
(0.130259 0.00264001 -0.0100468)
(0.12842 0.00292139 -0.00833579)
(0.125091 0.00231858 -0.0045067)
(0.132955 0.000263991 -0.00350176)
(0.131111 -0.00320229 0.000924979)
(0.135831 -0.00274322 0.00174646)
(0.146222 0.00104684 -0.00162074)
(0.15185 0.00266112 -0.00775667)
(0.147567 0.000484905 -0.0147477)
(0.139919 -0.00283669 -0.0199056)
(0.137574 -0.00596049 -0.0216886)
(0.141749 -0.00940667 -0.0209858)
(0.146612 -0.0129305 -0.0177827)
(0.148024 -0.0134726 -0.0108727)
(0.147341 -0.00898579 -0.00317595)
(0.145207 -0.00298211 0.000525666)
(0.141571 -0.000498084 0.000856664)
(0.13901 -0.00157131 0.00188706)
(0.140494 -0.00270731 0.0054475)
(0.14557 -0.00233204 0.00902214)
(0.150786 -0.00202482 0.00864358)
(0.151488 -0.00328213 0.00428659)
(0.145489 -0.00543821 0.00102365)
(0.137089 -0.00616039 0.00246996)
(0.131554 -0.00384664 0.00618756)
(0.129615 0.000163041 0.00822681)
(0.130626 0.00343693 0.00705392)
(0.133383 0.00408475 0.0025154)
(0.134608 0.000881374 -0.00410718)
(0.133448 -0.00549313 -0.00853303)
(0.136021 -0.011206 -0.00728242)
(0.145481 -0.0115542 -0.00285685)
(0.151574 -0.00701542 0.000485008)
(0.145713 -0.00286648 0.00514389)
(0.134034 -0.00188107 0.0120706)
(0.126185 -0.00198334 0.014791)
(0.125001 0.000233512 0.0102355)
(0.127083 0.00384862 0.00301006)
(0.129001 0.00485302 -0.00240639)
(0.130524 0.00306204 -0.00605278)
(0.132595 0.00185721 -0.00911952)
(0.134634 0.00269491 -0.0104329)
(0.135044 0.00300714 -0.00836165)
(0.136132 0.00118999 -0.000626239)
(0.133143 -0.00123561 0.00248209)
(0.132518 -0.00188037 0.00270998)
(0.139403 0.000348836 0.000319475)
(0.148992 0.00258111 -0.00446737)
(0.151682 0.00237276 -0.0111007)
(0.147259 0.000581514 -0.0169864)
(0.144475 -0.00213432 -0.0197231)
(0.14783 -0.00627855 -0.0199939)
(0.153 -0.0110522 -0.0188805)
(0.154164 -0.0130941 -0.0147526)
(0.151428 -0.00986401 -0.0076848)
(0.14778 -0.00363189 -0.00190734)
(0.144349 0.000504496 0.000838827)
(0.14198 0.000578776 0.00260485)
(0.14223 -0.00121526 0.00515595)
(0.145159 -0.00235725 0.00811601)
(0.148867 -0.00273251 0.0091153)
(0.150087 -0.00303074 0.0064359)
(0.146006 -0.0034096 0.0021449)
(0.137987 -0.00347705 0.000408068)
(0.130795 -0.00278717 0.00181945)
(0.128396 -0.00135682 0.00321619)
(0.131572 0.000663761 0.00245073)
(0.136935 0.00242283 -0.000834358)
(0.139306 0.00206952 -0.005358)
(0.138019 -0.00207678 -0.00800333)
(0.138677 -0.00870391 -0.00650081)
(0.145288 -0.0122104 -0.0022671)
(0.151732 -0.00888845 0.00130536)
(0.14892 -0.00335297 0.00513124)
(0.139176 -0.000679519 0.0105651)
(0.131014 0.000167254 0.0129804)
(0.128079 0.00233406 0.00954062)
(0.127757 0.00535377 0.00438732)
(0.126728 0.0059695 0.00130128)
(0.125621 0.00362546 -0.000859747)
(0.126857 0.00131626 -0.00398136)
(0.131034 0.00124371 -0.00615204)
(0.13543 0.00213168 -0.00472205)
(0.135403 -0.000247087 0.00159636)
(0.133578 0.000144969 0.00420644)
(0.131347 0.000435502 0.00476848)
(0.133995 0.00154653 0.00270084)
(0.141967 0.00297616 -0.00154795)
(0.149466 0.00362361 -0.00722814)
(0.15182 0.0032526 -0.0123967)
(0.152182 0.00161233 -0.0154115)
(0.155714 -0.00238901 -0.0168745)
(0.16054 -0.00808896 -0.0179214)
(0.161132 -0.0114001 -0.0168006)
(0.156884 -0.00922216 -0.0115663)
(0.151421 -0.00345945 -0.00494404)
(0.147 0.0011119 -0.000251108)
(0.144316 0.00189655 0.00269075)
(0.144145 0.000452863 0.0049156)
(0.145601 -0.00103888 0.0068375)
(0.14647 -0.002227 0.00807836)
(0.145511 -0.00305317 0.0071179)
(0.14254 -0.00274569 0.00340273)
(0.138372 -0.00146927 -0.000256638)
(0.134991 -0.00073192 -0.000985182)
(0.134433 -0.00142574 0.000480685)
(0.137071 -0.00181343 0.00131728)
(0.140273 -0.000283354 -0.000263526)
(0.140354 0.00154565 -0.00310792)
(0.138076 0.00027187 -0.00422646)
(0.138071 -0.00528056 -0.00249666)
(0.142899 -0.0107761 0.000460615)
(0.149312 -0.0101775 0.0029633)
(0.150435 -0.00479122 0.00562021)
(0.144886 -0.000101273 0.00936842)
(0.137365 0.00269882 0.0111266)
(0.131423 0.00523887 0.00871524)
(0.126849 0.00737145 0.00509359)
(0.12321 0.00696628 0.00346684)
(0.121793 0.00347576 0.00302178)
(0.123437 -0.00051998 0.0014167)
(0.127882 -0.00218844 -0.000680506)
(0.133113 -0.00139411 -0.000793124)
(0.133604 -0.000578187 0.00424019)
(0.132455 0.00150773 0.00553722)
(0.130843 0.00368951 0.00623171)
(0.132102 0.0051435 0.00540659)
(0.137125 0.00505844 0.00261332)
(0.143763 0.00428178 -0.0020735)
(0.149671 0.00426333 -0.00713527)
(0.155198 0.00432078 -0.0105255)
(0.161612 0.00173798 -0.0123763)
(0.16675 -0.00385484 -0.0144412)
(0.166845 -0.00826244 -0.0160411)
(0.161937 -0.00726529 -0.014006)
(0.155542 -0.00223765 -0.0083457)
(0.150167 0.00184562 -0.00264967)
(0.14643 0.00255792 0.00131738)
(0.144585 0.00143216 0.00394164)
(0.144032 0.000462225 0.00568915)
(0.143251 -0.000313368 0.00676432)
(0.141372 -0.00111529 0.00647693)
(0.139082 -0.000962781 0.00386143)
(0.138299 0.000191271 0.000337389)
(0.140322 0.000168359 -0.00119602)
(0.143648 -0.00224362 -3.20079e-05)
(0.144886 -0.00455806 0.0015112)
(0.142638 -0.00338701 0.00130579)
(0.138802 0.000253953 0.00071828)
(0.136707 0.00168851 0.00205769)
(0.138336 -0.00203716 0.00420256)
(0.143054 -0.00819593 0.0052063)
(0.148455 -0.0104943 0.00529543)
(0.150698 -0.00648273 0.00608597)
(0.147631 -0.000340337 0.00824452)
(0.141012 0.00406876 0.00910833)
(0.133266 0.00659992 0.00700132)
(0.125982 0.00809902 0.00483282)
(0.121462 0.00781888 0.00552641)
(0.121017 0.00500052 0.00740937)
(0.123618 0.00104712 0.0072021)
(0.127765 -0.00166182 0.00512302)
(0.131836 -0.00200034 0.00375885)
(0.135432 0.00144722 0.00457156)
(0.136188 0.00322126 0.0052404)
(0.134913 0.00556341 0.00644166)
(0.134621 0.0076607 0.00698271)
(0.136881 0.00784311 0.00542218)
(0.140781 0.00554909 0.00152441)
(0.145565 0.002629 -0.00286299)
(0.152001 0.00129639 -0.00591442)
(0.160133 0.00101551 -0.00797515)
(0.166496 -0.000377936 -0.0105861)
(0.167396 -0.00286562 -0.0134098)
(0.163905 -0.00339346 -0.0140838)
(0.159862 -0.000979441 -0.0111961)
(0.156877 0.00164173 -0.00651521)
(0.153689 0.00258513 -0.00240085)
(0.149534 0.00233115 0.000459103)
(0.145364 0.00159416 0.0022848)
(0.14194 0.000493687 0.00352211)
(0.139637 -0.000416802 0.00455376)
(0.139162 -0.00025199 0.00482689)
(0.141936 0.000656386 0.00358788)
(0.148167 0.000371955 0.00124622)
(0.154073 -0.0021932 5.72738e-06)
(0.154527 -0.00498109 0.00176844)
(0.148954 -0.00443506 0.00524231)
(0.142136 -0.000515354 0.00764523)
(0.139052 0.00271894 0.00780189)
(0.14041 0.00167737 0.00583866)
(0.144089 -0.00351572 0.00398075)
(0.148174 -0.00771272 0.00363814)
(0.150132 -0.00579296 0.00377343)
(0.147249 0.000575707 0.00456326)
(0.139995 0.00621667 0.00579102)
(0.131355 0.00883893 0.00575754)
(0.12435 0.00932637 0.0053292)
(0.121059 0.00853501 0.00626589)
(0.121498 0.00645753 0.00772552)
(0.124073 0.00356548 0.00788647)
(0.127699 0.00122271 0.00657705)
(0.13197 0.000524319 0.00507423)
(0.136622 0.00335416 0.00384692)
(0.136895 0.00399958 0.00433532)
(0.135569 0.00549216 0.0050297)
(0.134805 0.00744711 0.00593452)
(0.136391 0.00818635 0.00622128)
(0.139999 0.00622837 0.00459154)
(0.144284 0.00220649 0.000857269)
(0.148801 -0.001428 -0.00340693)
(0.154582 -0.00291376 -0.00654576)
(0.161486 -0.0028484 -0.00855948)
(0.166161 -0.00241649 -0.0102503)
(0.165832 -0.00143415 -0.0114343)
(0.16222 0.000601297 -0.0109221)
(0.158945 0.00250892 -0.00849972)
(0.15698 0.00316285 -0.00539391)
(0.155109 0.00339686 -0.00286148)
(0.152395 0.00355635 -0.00144327)
(0.148659 0.0025169 -0.000493668)
(0.144695 -0.000111333 0.00109645)
(0.142616 -0.00310849 0.00339565)
(0.144418 -0.00553761 0.00498927)
(0.14974 -0.0072349 0.00453621)
(0.154721 -0.00818777 0.00277812)
(0.155294 -0.00811251 0.00279544)
(0.151225 -0.00598532 0.00573347)
(0.145756 -0.000889041 0.00811788)
(0.141906 0.00514768 0.00637937)
(0.140073 0.00730655 0.00139404)
(0.140272 0.00304278 -0.00230862)
(0.14286 -0.00374348 -0.0018217)
(0.145933 -0.00590006 0.00060368)
(0.145553 -0.00100702 0.00237501)
(0.14039 0.00617 0.00371349)
(0.133629 0.0109568 0.00461333)
(0.129147 0.0127889 0.00444755)
(0.128142 0.0125361 0.00337936)
(0.129279 0.0105038 0.00209609)
(0.130776 0.00743514 0.00148173)
(0.132372 0.00480345 0.00200357)
(0.134593 0.00350135 0.00306007)
(0.141768 0.00469931 -0.000891292)
(0.139626 0.00527899 0.00296967)
(0.136291 0.00522383 0.0061098)
(0.134099 0.00444403 0.00882465)
(0.135025 0.00278464 0.010833)
(0.139325 0.000416217 0.0110563)
(0.1457 -0.00209064 0.00851487)
(0.152017 -0.0038998 0.0035578)
(0.156396 -0.00422908 -0.00219169)
(0.157943 -0.00303868 -0.00712075)
(0.156744 -0.000813656 -0.0100201)
(0.153799 0.00172728 -0.0103746)
(0.150357 0.00374819 -0.00908487)
(0.147487 0.00440688 -0.00771935)
(0.14604 0.00371842 -0.00674215)
(0.146626 0.00251014 -0.00565516)
(0.14914 0.00144362 -0.00443717)
(0.152165 0.00093653 -0.00364288)
(0.153851 0.000885747 -0.00300708)
(0.153788 -7.15177e-05 -0.00127436)
(0.153179 -0.00337012 0.00182285)
(0.153239 -0.00796274 0.00500968)
(0.153828 -0.0104357 0.00704439)
(0.153673 -0.00862253 0.00787776)
(0.151514 -0.00388803 0.0081003)
(0.147585 0.00114087 0.00721576)
(0.143569 0.0046818 0.00400909)
(0.141047 0.00517363 -0.000854023)
(0.140851 0.00194447 -0.00418043)
(0.142738 -0.00340457 -0.00317836)
(0.145034 -0.00666538 0.00101744)
(0.145442 -0.00421984 0.00485241)
(0.143158 0.00239719 0.00666584)
(0.140362 0.00894013 0.00644254)
(0.139718 0.0129939 0.00398515)
(0.141215 0.0140892 -0.00048504)
(0.14269 0.0122956 -0.00525963)
(0.142834 0.00867162 -0.00828019)
(0.142323 0.0054115 -0.00815046)
(0.142201 0.00423364 -0.00512132)
(0.149782 0.00472007 -0.00787257)
(0.147451 0.00628767 -0.00479616)
(0.146761 0.00625243 -0.00149675)
(0.147868 0.00421606 0.00225164)
(0.149782 0.00109871 0.0063686)
(0.151134 -0.00182777 0.0104446)
(0.151841 -0.00375782 0.0131048)
(0.153445 -0.00434535 0.0126016)