/*--------------------------------*- C++ -*----------------------------------*\
| =========                 |                                                 |
| \\      /  F ield         | OpenFOAM: The Open Source CFD Toolbox           |
|  \\    /   O peration     | Version:  2306                                  |
|   \\  /    A nd           | Website:  www.openfoam.com                      |
|    \\/     M anipulation  |                                                 |
\*---------------------------------------------------------------------------*/
FoamFile
{
    version     2.0;
    format      ascii;
    arch        "LSB;label=32;scalar=64";
    class       volScalarField;
    location    "8";
    object      nut;
}
// * * * * * * * * * * * * * * * * * * * * * * * * * * * * * * * * * * * * * //

dimensions      [0 2 -1 0 0 0 0];

internalField   nonuniform List<scalar> 
60000
(
6.18055e-05
6.6008e-05
7.13732e-05
7.73169e-05
8.28412e-05
8.61577e-05
8.59404e-05
8.28482e-05
7.89066e-05
7.55513e-05
7.312e-05
7.11711e-05
6.88734e-05
6.54731e-05
6.0867e-05
5.60309e-05
5.23733e-05
5.05507e-05
5.02801e-05
5.09198e-05
5.20898e-05
5.3902e-05
5.64358e-05
5.92361e-05
6.21447e-05
6.51816e-05
6.85024e-05
7.25452e-05
7.7323e-05
8.10407e-05
8.15429e-05
7.87936e-05
7.41503e-05
6.87514e-05
6.34697e-05
5.92067e-05
5.66036e-05
5.59311e-05
5.68417e-05
5.88187e-05
6.08859e-05
6.55615e-05
7.12294e-05
7.71934e-05
8.28982e-05
8.70616e-05
8.80388e-05
8.55312e-05
8.13006e-05
7.75509e-05
7.51711e-05
7.36286e-05
7.18177e-05
6.88808e-05
6.48006e-05
6.03535e-05
5.64e-05
5.34871e-05
5.18946e-05
5.14892e-05
5.20035e-05
5.32991e-05
5.52449e-05
5.76278e-05
6.06125e-05
6.43334e-05
6.88472e-05
7.41748e-05
7.97065e-05
8.35358e-05
8.39423e-05
8.12371e-05
7.68709e-05
7.22593e-05
6.79691e-05
6.37855e-05
5.96974e-05
5.67456e-05
5.60227e-05
5.75592e-05
5.68857e-05
6.10575e-05
6.64674e-05
7.2417e-05
7.87957e-05
8.49256e-05
8.86919e-05
8.81181e-05
8.39563e-05
7.93103e-05
7.63817e-05
7.50633e-05
7.41069e-05
7.24549e-05
6.97597e-05
6.60975e-05
6.16083e-05
5.6831e-05
5.29379e-05
5.0745e-05
5.01645e-05
5.06852e-05
5.19483e-05
5.38657e-05
5.67031e-05
6.05488e-05
6.52361e-05
7.06303e-05
7.65468e-05
8.16823e-05
8.40293e-05
8.31681e-05
8.02788e-05
7.69076e-05
7.36354e-05
6.96942e-05
6.42005e-05
5.82829e-05
5.46428e-05
5.44207e-05
5.09559e-05
5.3329e-05
5.75552e-05
6.30511e-05
6.96609e-05
7.77218e-05
8.5439e-05
8.876e-05
8.61148e-05
8.06757e-05
7.66394e-05
7.51908e-05
7.51243e-05
7.50567e-05
7.42752e-05
7.22579e-05
6.82154e-05
6.19539e-05
5.50792e-05
4.99034e-05
4.72691e-05
4.65062e-05
4.68523e-05
4.80324e-05
5.02186e-05
5.34187e-05
5.72155e-05
6.11622e-05
6.62329e-05
7.28511e-05
7.87577e-05
8.18794e-05
8.20713e-05
8.06555e-05
7.87989e-05
7.6067e-05
7.07341e-05
6.25466e-05
5.48886e-05
5.10327e-05
4.62244e-05
4.50503e-05
4.63685e-05
4.97361e-05
5.4713e-05
6.27521e-05
7.39626e-05
8.32462e-05
8.51279e-05
8.04541e-05
7.51645e-05
7.30528e-05
7.35974e-05
7.49165e-05
7.59863e-05
7.63297e-05
7.46296e-05
6.91458e-05
6.02634e-05
5.11916e-05
4.48818e-05
4.1681e-05
4.05308e-05
4.05321e-05
4.14358e-05
4.34764e-05
4.60557e-05
4.7817e-05
4.99411e-05
5.5224e-05
6.40656e-05
7.29384e-05
7.85036e-05
8.06664e-05
8.08093e-05
7.99672e-05
7.69376e-05
6.94794e-05
5.90897e-05
5.06143e-05
4.77601e-05
4.2444e-05
3.96271e-05
3.92902e-05
4.07048e-05
4.4025e-05
5.17832e-05
6.5861e-05
7.60023e-05
7.58345e-05
7.05264e-05
6.75226e-05
6.83896e-05
7.07142e-05
7.28628e-05
7.52203e-05
7.7315e-05
7.61225e-05
6.90596e-05
5.76265e-05
4.64435e-05
3.88298e-05
3.49022e-05
3.32139e-05
3.27125e-05
3.37205e-05
3.61434e-05
3.78482e-05
3.82068e-05
4.15936e-05
4.5578e-05
5.35935e-05
6.50672e-05
7.33291e-05
7.68126e-05
7.77618e-05
7.78502e-05
7.46993e-05
6.63131e-05
5.5971e-05
5.60515e-05
4.97208e-05
4.2046e-05
3.57608e-05
3.41511e-05
3.7574e-05
4.06789e-05
4.15717e-05
5.35214e-05
6.20226e-05
5.98469e-05
5.64924e-05
5.79988e-05
6.17489e-05
6.42791e-05
6.66336e-05
7.16515e-05
7.71815e-05
7.73556e-05
6.92064e-05
5.53948e-05
4.20122e-05
3.33693e-05
2.92706e-05
2.76246e-05
2.74737e-05
2.97532e-05
3.39257e-05
3.35532e-05
3.12459e-05
3.9421e-05
4.08146e-05
4.33391e-05
5.53933e-05
6.44164e-05
6.73374e-05
6.91667e-05
7.08095e-05
6.86715e-05
6.25979e-05
5.86518e-05
5.90438e-05
5.41889e-05
4.19561e-05
3.08017e-05
2.82699e-05
3.70346e-05
4.09545e-05
3.34058e-05
3.95701e-05
4.25013e-05
3.83731e-05
3.99731e-05
4.67781e-05
5.09684e-05
5.11099e-05
5.45983e-05
6.51847e-05
7.61923e-05
7.90266e-05
7.01152e-05
5.35859e-05
3.85823e-05
3.04372e-05
2.74661e-05
2.66689e-05
2.80685e-05
3.37349e-05
4.1297e-05
3.5681e-05
2.53165e-05
3.68402e-05
3.62255e-05
3.48707e-05
4.38402e-05
4.46068e-05
4.21765e-05
4.64579e-05
5.37653e-05
5.74474e-05
4.12595e-05
5.10696e-05
5.81682e-05
5.39322e-05
3.89897e-05
2.50704e-05
2.06789e-05
3.34782e-05
3.69246e-05
2.56713e-05
2.94192e-05
2.57132e-05
2.10386e-05
2.67603e-05
3.4915e-05
3.44043e-05
2.91879e-05
3.50799e-05
5.43798e-05
7.37993e-05
8.03919e-05
6.99984e-05
5.07695e-05
3.62374e-05
3.03582e-05
2.97852e-05
3.16927e-05
3.65014e-05
4.57314e-05
5.16536e-05
3.70713e-05
2.16652e-05
3.23835e-05
2.6581e-05
2.05395e-05
2.15347e-05
2.06592e-05
2.18302e-05
2.44353e-05
3.21594e-05
2.65051e-05
3.14658e-05
4.15689e-05
5.28169e-05
4.88435e-05
3.38999e-05
2.13473e-05
1.76408e-05
3.09721e-05
3.13411e-05
2.27898e-05
2.78033e-05
1.76192e-05
1.55971e-05
1.68348e-05
2.28734e-05
1.78018e-05
1.06027e-05
1.84724e-05
4.3551e-05
7.0842e-05
7.94025e-05
6.61013e-05
4.67097e-05
3.54839e-05
3.30434e-05
3.49008e-05
4.02163e-05
4.9218e-05
5.74615e-05
5.33277e-05
2.88937e-05
1.88582e-05
2.35276e-05
1.33115e-05
2.22949e-05
2.79711e-05
2.79987e-05
2.71054e-05
2.50526e-05
2.15293e-05
3.04041e-05
2.91466e-05
3.53553e-05
4.83709e-05
4.27846e-05
2.97186e-05
2.20022e-05
1.92923e-05
2.98339e-05
2.78437e-05
2.49042e-05
2.70708e-05
1.01774e-05
1.42578e-05
8.6057e-06
1.81278e-05
1.29316e-05
1.12317e-05
1.82531e-05
3.7599e-05
6.64091e-05
7.30395e-05
5.91608e-05
4.38059e-05
3.49595e-05
3.17464e-05
3.53612e-05
4.57023e-05
5.75896e-05
5.90836e-05
4.25931e-05
1.70463e-05
1.77225e-05
1.77215e-05
2.11956e-05
2.73068e-05
2.34731e-05
1.60622e-05
1.45323e-05
1.43746e-05
2.07648e-05
2.84897e-05
2.1571e-05
3.54109e-05
4.61333e-05
3.89149e-05
3.07232e-05
2.59523e-05
2.14824e-05
2.8486e-05
2.54744e-05
2.19955e-05
1.91625e-05
4.74396e-06
1.35655e-05
7.65776e-06
1.69641e-05
1.22071e-05
1.53167e-05
2.36554e-05
3.27339e-05
5.71948e-05
6.17918e-05
5.00459e-05
3.44472e-05
2.17311e-05
2.29012e-05
3.0636e-05
4.53123e-05
5.66426e-05
5.04521e-05
2.92702e-05
1.60504e-05
1.7276e-05
1.60735e-05
2.32229e-05
3.13069e-05
3.06099e-05
2.1892e-05
3.46078e-05
3.09562e-05
2.92505e-05
2.3415e-05
1.97882e-05
3.9114e-05
4.40963e-05
3.79804e-05
3.46199e-05
2.7957e-05
2.19685e-05
2.49419e-05
1.96699e-05
1.66941e-05
1.20808e-05
6.77913e-06
1.30861e-05
1.03646e-05
1.49455e-05
1.23392e-05
1.60554e-05
2.30671e-05
2.44896e-05
3.51276e-05
3.47408e-05
2.87655e-05
2.36498e-05
2.04749e-05
2.12915e-05
2.54355e-05
4.32265e-05
5.04787e-05
3.89825e-05
2.33266e-05
1.71356e-05
1.34253e-05
1.59987e-05
2.66513e-05
3.57972e-05
3.73228e-05
3.8125e-05
3.86727e-05
3.31607e-05
2.90828e-05
1.66554e-05
2.32983e-05
4.08725e-05
4.3019e-05
4.05994e-05
3.66561e-05
2.75432e-05
2.29062e-05
2.14496e-05
1.63667e-05
1.47769e-05
9.67009e-06
9.67916e-06
1.34909e-05
1.02756e-05
1.41567e-05
1.4321e-05
1.71282e-05
2.85971e-05
2.61634e-05
1.42517e-05
1.71174e-05
2.65167e-05
2.66683e-05
2.20331e-05
1.80511e-05
2.68797e-05
4.19231e-05
4.04609e-05
2.97923e-05
2.14795e-05
1.58855e-05
1.33341e-05
1.5466e-05
2.26793e-05
3.18286e-05
1.74853e-05
2.34707e-05
2.35151e-05
2.594e-05
2.70531e-05
1.05544e-05
2.69952e-05
4.11944e-05
4.3635e-05
4.29169e-05
3.60367e-05
2.8545e-05
2.56855e-05
2.13301e-05
1.67094e-05
1.44481e-05
1.1268e-05
1.17976e-05
1.15311e-05
7.08951e-06
1.56456e-05
1.86846e-05
2.34732e-05
2.59199e-05
1.77195e-05
1.69466e-05
2.41417e-05
2.84449e-05
2.40635e-05
1.79801e-05
1.63224e-05
3.15643e-05
3.66541e-05
3.10791e-05
2.48497e-05
1.8315e-05
1.28544e-05
1.32679e-05
1.22971e-05
1.14413e-05
1.77977e-05
1.2367e-05
1.43251e-05
2.06759e-05
3.25386e-05
2.7706e-05
1.31734e-05
3.1968e-05
4.32736e-05
4.64549e-05
4.26196e-05
3.52035e-05
3.03336e-05
2.52386e-05
1.84159e-05
1.5373e-05
1.50332e-05
1.2578e-05
1.03367e-05
1.11019e-05
1.38691e-05
1.991e-05
1.98501e-05
1.52085e-05
1.83223e-05
2.12497e-05
1.99156e-05
2.44637e-05
2.61157e-05
1.92181e-05
1.12278e-05
2.2549e-05
3.09725e-05
2.95307e-05
2.57862e-05
1.90422e-05
1.58719e-05
1.82389e-05
2.02178e-05
2.11419e-05
1.72302e-05
1.25429e-05
1.38268e-05
1.95923e-05
2.8622e-05
3.53755e-05
2.82909e-05
2.18838e-05
3.23534e-05
4.21298e-05
4.30935e-05
3.80263e-05
3.44055e-05
2.9088e-05
2.04221e-05
1.26391e-05
1.02993e-05
9.66147e-06
9.58131e-06
1.27844e-05
1.43108e-05
1.31709e-05
1.55677e-05
2.01035e-05
2.34927e-05
2.18814e-05
1.63111e-05
1.94073e-05
2.89677e-05
2.57944e-05
1.16195e-05
1.24863e-05
2.36085e-05
2.79112e-05
2.60374e-05
2.18163e-05
2.066e-05
1.84268e-05
1.68162e-05
1.81564e-05
1.36774e-05
7.80971e-06
1.72815e-05
2.53989e-05
2.82965e-05
3.02112e-05
2.96374e-05
2.84919e-05
2.85451e-05
2.81764e-05
2.95721e-05
2.94591e-05
2.92019e-05
2.97184e-05
2.75634e-05
2.10738e-05
1.18871e-05
6.17675e-06
8.40361e-06
1.23527e-05
1.52329e-05
1.6449e-05
1.97209e-05
2.33257e-05
2.44922e-05
2.47768e-05
2.08352e-05
1.5325e-05
2.55483e-05
3.09033e-05
2.00563e-05
8.43196e-06
1.49569e-05
2.25299e-05
2.70871e-05
2.65513e-05
1.975e-05
1.32003e-05
1.63852e-05
1.83235e-05
2.40568e-05
1.85238e-05
1.45364e-05
2.01089e-05
2.19642e-05
2.2457e-05
2.32912e-05
2.2198e-05
2.60997e-05
2.902e-05
2.38916e-05
1.87764e-05
1.95852e-05
2.17829e-05
2.40782e-05
2.54486e-05
2.48969e-05
2.17103e-05
1.6452e-05
1.13677e-05
1.44314e-05
2.42763e-05
2.91587e-05
2.34356e-05
1.63398e-05
2.69356e-05
2.95016e-05
1.67141e-05
2.45911e-05
3.89507e-05
3.39465e-05
1.56042e-05
1.34295e-05
2.44432e-05
2.89184e-05
2.64186e-05
2.20211e-05
2.22642e-05
2.36862e-05
2.44385e-05
2.45936e-05
1.63039e-05
1.15146e-05
1.53781e-05
1.95332e-05
2.03846e-05
1.93425e-05
1.72386e-05
1.71223e-05
2.03987e-05
2.16475e-05
1.86548e-05
1.52231e-05
1.37825e-05
1.3432e-05
1.46023e-05
1.60366e-05
2.03266e-05
2.3939e-05
2.23847e-05
1.78266e-05
1.83541e-05
2.44503e-05
2.53988e-05
1.786e-05
1.9201e-05
2.67853e-05
2.40322e-05
1.53239e-05
2.0246e-05
2.39515e-05
1.44247e-05
1.30143e-05
2.74338e-05
3.31632e-05
3.5394e-05
4.12274e-05
4.50292e-05
4.1768e-05
3.34641e-05
3.30616e-05
2.85734e-05
2.49437e-05
2.35562e-05
2.35811e-05
2.54703e-05
2.59951e-05
2.24735e-05
1.84028e-05
1.44465e-05
9.45602e-06
1.20054e-05
1.86695e-05
1.9569e-05
1.61765e-05
1.45748e-05
1.67926e-05
1.88615e-05
1.92346e-05
2.005e-05
1.92822e-05
1.46398e-05
9.10516e-06
6.17909e-06
7.24624e-06
1.35751e-05
2.24819e-05
2.73916e-05
2.55452e-05
1.5235e-05
7.67233e-06
7.84456e-06
1.1607e-05
2.71934e-05
3.6393e-05
4.15547e-05
4.55334e-05
4.44128e-05
4.01918e-05
3.65519e-05
2.78169e-05
3.08257e-05
3.17214e-05
3.15354e-05
3.09951e-05
2.89313e-05
2.56651e-05
2.09431e-05
1.49949e-05
1.35801e-05
1.53882e-05
1.75654e-05
2.15205e-05
2.31628e-05
2.05072e-05
1.60769e-05
1.1598e-05
7.6976e-06
8.81762e-06
1.08338e-05
1.20717e-05
1.21144e-05
1.33133e-05
1.7959e-05
1.86131e-05
1.83375e-05
2.43106e-05
3.15288e-05
3.42728e-05
2.87859e-05
1.7569e-05
1.11755e-05
1.43838e-05
2.59632e-05
3.6604e-05
4.04537e-05
3.75973e-05
3.06156e-05
2.51602e-05
2.46436e-05
1.16546e-05
1.65542e-05
2.22819e-05
2.33678e-05
2.04471e-05
1.59924e-05
1.2543e-05
1.21127e-05
1.28597e-05
1.30886e-05
1.25801e-05
1.1889e-05
1.24279e-05
1.36453e-05
1.34561e-05
1.45348e-05
1.83296e-05
2.06163e-05
1.95566e-05
1.63734e-05
1.3168e-05
1.34303e-05
1.4306e-05
1.39038e-05
1.73306e-05
1.83686e-05
1.88394e-05
2.59592e-05
3.07999e-05
2.83873e-05
2.165e-05
1.55562e-05
1.51034e-05
2.18574e-05
2.99574e-05
3.13402e-05
2.52944e-05
1.84893e-05
1.56324e-05
1.33567e-05
9.77343e-06
1.1929e-05
1.26914e-05
1.19685e-05
1.19182e-05
1.27301e-05
1.32877e-05
1.31914e-05
1.07529e-05
7.98964e-06
8.24842e-06
7.58536e-06
9.18702e-06
1.43957e-05
1.66892e-05
1.88256e-05
2.26592e-05
2.24367e-05
1.75582e-05
1.31234e-05
1.32801e-05
1.50345e-05
1.20578e-05
5.20968e-06
8.65014e-06
1.38088e-05
1.74449e-05
2.01156e-05
1.94109e-05
1.48419e-05
1.01502e-05
9.1628e-06
9.15215e-06
1.17316e-05
1.6149e-05
1.74755e-05
1.65468e-05
1.52751e-05
1.29317e-05
1.01039e-05
1.43858e-05
1.4291e-05
1.41312e-05
8.71813e-06
6.05104e-06
1.17447e-05
1.39277e-05
1.36947e-05
1.32469e-05
1.07125e-05
7.75392e-06
7.75188e-06
1.10256e-05
1.50054e-05
1.63624e-05
1.3844e-05
9.72732e-06
9.48705e-06
1.08898e-05
9.39256e-06
8.49342e-06
1.5347e-05
2.26822e-05
2.42543e-05
2.084e-05
1.80339e-05
1.79309e-05
2.05445e-05
2.52539e-05
2.73731e-05
2.45735e-05
1.76721e-05
9.08474e-06
6.84344e-06
1.01874e-05
1.26673e-05
1.55668e-05
1.88395e-05
2.09638e-05
1.85482e-05
5.22938e-05
5.45314e-05
5.88842e-05
6.42724e-05
6.91552e-05
7.25779e-05
7.44784e-05
7.5308e-05
7.55236e-05
7.54143e-05
7.53187e-05
7.52713e-05
7.48245e-05
7.32972e-05
7.05702e-05
6.73824e-05
6.46588e-05
6.27951e-05
6.16149e-05
6.08514e-05
6.05568e-05
6.1143e-05
6.2801e-05
6.53068e-05
6.80212e-05
7.08655e-05
7.41127e-05
7.81382e-05
8.29978e-05
8.73803e-05
8.90656e-05
8.72173e-05
8.34307e-05
7.93755e-05
7.47288e-05
6.87319e-05
6.19821e-05
5.65551e-05
5.34873e-05
5.21274e-05
5.15026e-05
5.43804e-05
5.87954e-05
6.3689e-05
6.82196e-05
7.18799e-05
7.44903e-05
7.60869e-05
7.69591e-05
7.7404e-05
7.76862e-05
7.7823e-05
7.75126e-05
7.62505e-05
7.39756e-05
7.12877e-05
6.87903e-05
6.662e-05
6.45795e-05
6.27398e-05
6.16335e-05
6.17565e-05
6.2916e-05
6.46657e-05
6.67712e-05
6.9654e-05
7.39032e-05
7.96794e-05
8.61132e-05
9.09487e-05
9.23431e-05
9.06046e-05
8.71476e-05
8.32619e-05
7.9362e-05
7.46888e-05
6.80474e-05
6.02416e-05
5.41151e-05
5.12388e-05
4.93088e-05
5.10727e-05
5.47678e-05
5.93405e-05
6.42512e-05
6.8925e-05
7.27585e-05
7.53364e-05
7.68447e-05
7.77013e-05
7.82066e-05
7.85303e-05
7.87252e-05
7.8424e-05
7.72361e-05
7.52602e-05
7.28896e-05
7.02603e-05
6.72502e-05
6.41488e-05
6.17891e-05
6.07822e-05
6.09227e-05
6.16707e-05
6.29863e-05
6.54508e-05
6.96726e-05
7.58515e-05
8.30815e-05
8.91105e-05
9.21012e-05
9.22733e-05
9.03019e-05
8.71571e-05
8.43331e-05
8.17304e-05
7.6482e-05
6.69924e-05
5.69626e-05
5.08706e-05
4.73545e-05
4.6093e-05
4.79418e-05
5.18293e-05
5.72291e-05
6.32906e-05
6.88216e-05
7.28152e-05
7.51205e-05
7.62889e-05
7.68439e-05
7.72325e-05
7.79694e-05
7.8893e-05
7.91798e-05
7.83466e-05
7.65427e-05
7.3856e-05
7.01077e-05
6.56444e-05
6.15575e-05
5.87649e-05
5.73045e-05
5.66526e-05
5.67252e-05
5.80031e-05
6.08803e-05
6.57678e-05
7.24413e-05
7.95455e-05
8.52264e-05
8.88565e-05
9.0116e-05
8.88312e-05
8.71767e-05
8.6909e-05
8.49211e-05
7.65704e-05
6.36213e-05
5.2879e-05
4.94991e-05
4.29834e-05
4.04977e-05
4.19709e-05
4.67707e-05
5.37354e-05
6.10606e-05
6.70054e-05
7.05955e-05
7.21607e-05
7.26285e-05
7.28942e-05
7.3936e-05
7.58944e-05
7.76386e-05
7.82361e-05
7.77389e-05
7.6093e-05
7.26512e-05
6.73899e-05
6.14929e-05
5.64381e-05
5.27955e-05
5.02153e-05
4.85364e-05
4.79575e-05
4.86756e-05
5.07811e-05
5.47397e-05
6.08832e-05
6.82274e-05
7.58019e-05
8.22426e-05
8.51087e-05
8.52191e-05
8.67739e-05
8.90426e-05
8.55392e-05
7.38456e-05
5.99419e-05
5.93328e-05
4.81045e-05
3.81426e-05
3.37477e-05
3.48709e-05
4.00634e-05
4.77997e-05
5.58051e-05
6.15391e-05
6.4074e-05
6.45088e-05
6.45555e-05
6.56746e-05
6.81778e-05
7.08104e-05
7.23956e-05
7.35433e-05
7.43873e-05
7.33215e-05
6.91544e-05
6.24842e-05
5.52427e-05
4.90981e-05
4.41553e-05
4.03879e-05
3.82127e-05
3.78122e-05
3.82095e-05
3.90495e-05
4.16877e-05
4.55794e-05
5.17124e-05
6.23596e-05
7.21334e-05
7.60579e-05
7.86123e-05
8.42831e-05
8.7831e-05
8.26117e-05
7.10611e-05
7.21316e-05
6.36972e-05
4.83707e-05
3.3287e-05
2.81247e-05
2.87542e-05
3.21094e-05
3.87121e-05
4.60848e-05
5.04403e-05
5.12843e-05
5.11122e-05
5.24463e-05
5.54441e-05
5.83197e-05
5.95186e-05
6.09599e-05
6.47117e-05
6.84619e-05
6.88729e-05
6.46308e-05
5.67346e-05
4.82727e-05
4.10854e-05
3.56151e-05
3.24456e-05
3.21866e-05
3.473e-05
3.58483e-05
3.3037e-05
3.19801e-05
3.173e-05
3.51916e-05
4.8303e-05
5.84706e-05
6.18837e-05
6.78427e-05
7.7288e-05
8.14134e-05
7.80155e-05
7.42364e-05
7.73414e-05
6.91395e-05
4.64834e-05
2.83132e-05
2.60106e-05
2.78896e-05
2.77616e-05
2.88915e-05
3.33202e-05
3.46257e-05
3.28272e-05
3.36265e-05
3.81692e-05
4.18727e-05
4.1333e-05
3.95422e-05
4.38078e-05
5.33162e-05
6.17334e-05
6.49755e-05
6.07278e-05
5.13698e-05
4.21905e-05
3.55719e-05
3.16058e-05
3.09483e-05
3.55496e-05
4.22361e-05
4.01428e-05
3.03223e-05
2.41178e-05
2.27903e-05
2.5947e-05
3.68357e-05
4.05665e-05
4.05616e-05
4.94296e-05
6.21858e-05
6.97463e-05
5.1776e-05
7.12928e-05
8.24511e-05
6.99102e-05
4.10205e-05
2.40395e-05
2.83783e-05
3.28421e-05
2.82377e-05
2.09443e-05
2.26895e-05
2.11713e-05
1.64421e-05
1.79134e-05
2.3959e-05
2.65503e-05
2.10569e-05
1.85888e-05
2.62596e-05
4.15131e-05
5.67655e-05
6.27664e-05
5.68916e-05
4.62855e-05
3.82103e-05
3.28215e-05
2.86745e-05
2.9759e-05
3.88811e-05
4.55861e-05
3.86748e-05
2.72827e-05
1.89417e-05
1.96448e-05
2.12425e-05
2.43365e-05
1.85227e-05
1.69779e-05
2.32609e-05
3.52383e-05
1.7446e-05
3.63691e-05
7.00099e-05
8.35883e-05
6.56856e-05
3.47968e-05
2.14755e-05
3.14204e-05
3.72505e-05
2.8902e-05
1.65396e-05
1.81806e-05
1.3063e-05
9.53543e-06
1.32495e-05
1.65331e-05
1.75112e-05
1.36191e-05
2.00288e-05
1.97854e-05
3.1531e-05
5.24338e-05
5.85508e-05
5.04548e-05
4.06774e-05
3.35583e-05
2.5425e-05
2.17753e-05
2.99678e-05
4.1878e-05
4.24656e-05
3.31742e-05
2.42646e-05
1.59788e-05
1.68559e-05
1.45281e-05
1.92816e-05
1.7242e-05
1.92412e-05
2.05419e-05
2.901e-05
2.42332e-05
3.25607e-05
7.03863e-05
7.89161e-05
5.78732e-05
2.80595e-05
1.99783e-05
3.35372e-05
3.85338e-05
2.75146e-05
1.43119e-05
1.4974e-05
9.54298e-06
1.66521e-05
1.77365e-05
1.39693e-05
1.48262e-05
1.78061e-05
2.86782e-05
2.42759e-05
2.51882e-05
4.43088e-05
4.74589e-05
3.98954e-05
3.17975e-05
2.21311e-05
1.48439e-05
2.3262e-05
3.19398e-05
3.94955e-05
3.28028e-05
2.63419e-05
1.68067e-05
1.04928e-05
1.64221e-05
2.07519e-05
2.95756e-05
2.41689e-05
1.84392e-05
2.08231e-05
3.14279e-05
2.0546e-05
3.64338e-05
6.82953e-05
6.84829e-05
4.72663e-05
2.18308e-05
2.12327e-05
3.31132e-05
3.54475e-05
2.48206e-05
1.6269e-05
1.4369e-05
1.27701e-05
1.87876e-05
1.87531e-05
1.70602e-05
1.56224e-05
1.77553e-05
3.01599e-05
2.61451e-05
1.83373e-05
2.99479e-05
3.12104e-05
2.68156e-05
2.15042e-05
1.3399e-05
1.81114e-05
2.40368e-05
2.97271e-05
2.94411e-05
2.23307e-05
1.70555e-05
6.90547e-06
1.18458e-05
1.93941e-05
2.45894e-05
3.45283e-05
3.11965e-05
3.02578e-05
2.74673e-05
3.00777e-05
9.8912e-06
4.33389e-05
6.31314e-05
5.53819e-05
3.5278e-05
1.82536e-05
2.26033e-05
3.0414e-05
2.99392e-05
2.29179e-05
1.79121e-05
1.36901e-05
1.34692e-05
1.87609e-05
2.08263e-05
1.99781e-05
1.65518e-05
1.60746e-05
2.62833e-05
2.33992e-05
1.05806e-05
7.53411e-06
1.40193e-05
2.05247e-05
1.93946e-05
1.23453e-05
1.79569e-05
2.17388e-05
2.65849e-05
1.86325e-05
1.51303e-05
1.20469e-05
8.8316e-06
1.47424e-05
1.76341e-05
1.86297e-05
2.97496e-05
2.18113e-05
2.1304e-05
2.81112e-05
2.30096e-05
1.7522e-05
5.04119e-05
5.71112e-05
4.41858e-05
2.70168e-05
1.90521e-05
2.33923e-05
2.65934e-05
2.41438e-05
2.03196e-05
1.77726e-05
1.52639e-05
1.71345e-05
2.06572e-05
2.11817e-05
1.90266e-05
1.29013e-05
1.33586e-05
2.41257e-05
2.33032e-05
1.55474e-05
1.54481e-05
1.69415e-05
1.90123e-05
1.59839e-05
1.22507e-05
1.57638e-05
2.39405e-05
2.12757e-05
1.38946e-05
1.38397e-05
1.62207e-05
1.2161e-05
1.13861e-05
1.03367e-05
1.36727e-05
1.43461e-05
1.5516e-05
1.84489e-05
2.77436e-05
1.21492e-05
3.51797e-05
5.67978e-05
5.12294e-05
3.59306e-05
2.47968e-05
2.30515e-05
2.54451e-05
2.50793e-05
2.31355e-05
2.25447e-05
2.13299e-05
2.01349e-05
2.14812e-05
2.14879e-05
1.95986e-05
1.79622e-05
1.6827e-05
1.65251e-05
1.61829e-05
2.06095e-05
2.38856e-05
1.68059e-05
1.04374e-05
1.38217e-05
1.27905e-05
1.21049e-05
1.84699e-05
2.27964e-05
1.7817e-05
1.44554e-05
1.6512e-05
1.6247e-05
1.13823e-05
9.35689e-06
7.96136e-06
8.19014e-06
1.66744e-05
1.94807e-05
2.67884e-05
2.72843e-05
1.30538e-05
5.07606e-05
6.36028e-05
5.43312e-05
4.24612e-05
3.47609e-05
3.15447e-05
2.94923e-05
2.67323e-05
2.64433e-05
2.76456e-05
2.64597e-05
2.3529e-05
2.04667e-05
1.94059e-05
1.94988e-05
1.82694e-05
1.67308e-05
1.69539e-05
2.16935e-05
2.21144e-05
1.30429e-05
9.41488e-06
1.62159e-05
1.58243e-05
1.27609e-05
1.49768e-05
2.0591e-05
1.88757e-05
1.55592e-05
1.35622e-05
1.38017e-05
1.40407e-05
1.74331e-05
1.66103e-05
1.95489e-05
1.72434e-05
2.12547e-05
2.34416e-05
2.948e-05
2.58719e-05
1.80016e-05
5.1752e-05
7.01949e-05
7.06828e-05
6.0328e-05
4.65198e-05
3.61259e-05
2.97522e-05
2.65454e-05
2.63732e-05
2.72964e-05
2.50325e-05
2.05818e-05
2.06023e-05
2.19646e-05
1.91767e-05
1.4548e-05
1.40763e-05
1.63547e-05
1.46357e-05
9.64895e-06
1.19408e-05
1.96915e-05
2.23176e-05
1.6773e-05
1.5476e-05
1.91686e-05
2.12227e-05
1.85727e-05
1.62616e-05
1.56829e-05
1.59505e-05
1.78087e-05
2.14693e-05
1.52267e-05
2.18097e-05
2.79547e-05
3.06062e-05
2.85009e-05
2.54383e-05
2.30529e-05
2.01217e-05
3.68387e-05
6.00719e-05
7.05803e-05
6.20566e-05
4.45535e-05
2.98123e-05
2.22576e-05
2.09996e-05
2.10423e-05
1.62213e-05
1.41026e-05
2.28166e-05
2.51862e-05
2.03562e-05
1.76757e-05
1.975e-05
1.73444e-05
1.01104e-05
6.64506e-06
1.11981e-05
1.97877e-05
2.79908e-05
2.72297e-05
2.08326e-05
1.8481e-05
1.89165e-05
2.2281e-05
2.49655e-05
2.27543e-05
1.79359e-05
1.47721e-05
1.33827e-05
1.71832e-05
2.27727e-05
2.56765e-05
2.66268e-05
2.62235e-05
2.24622e-05
1.70097e-05
2.12931e-05
2.73678e-05
2.31637e-05
3.21135e-05
5.05558e-05
5.28235e-05
4.23747e-05
2.96488e-05
1.8008e-05
8.29957e-06
7.67168e-06
1.17816e-05
1.38662e-05
1.75632e-05
2.49638e-05
3.08173e-05
3.06341e-05
2.3377e-05
1.45881e-05
1.52725e-05
1.74784e-05
1.52279e-05
1.79093e-05
2.19929e-05
1.94395e-05
1.78628e-05
1.96668e-05
2.46251e-05
3.32736e-05
3.71423e-05
3.21014e-05
2.24951e-05
1.55812e-05
1.99422e-05
1.58123e-05
1.44031e-05
1.50063e-05
1.95086e-05
2.27593e-05
2.15326e-05
1.81236e-05
2.03277e-05
2.59757e-05
2.51352e-05
2.10057e-05
2.53684e-05
2.85839e-05
2.42099e-05
1.93456e-05
1.83114e-05
1.61701e-05
1.55571e-05
1.88762e-05
2.06895e-05
2.67159e-05
3.44881e-05
3.39098e-05
2.36818e-05
1.06004e-05
1.29307e-05
2.05107e-05
2.33218e-05
2.01044e-05
1.3843e-05
1.15962e-05
1.40082e-05
2.08977e-05
2.82802e-05
3.55168e-05
3.98536e-05
3.94028e-05
3.5826e-05
2.87421e-05
3.26053e-05
2.42179e-05
1.69143e-05
1.61184e-05
1.90084e-05
2.12998e-05
2.11621e-05
1.84582e-05
1.60558e-05
1.70974e-05
1.87525e-05
1.70006e-05
1.62502e-05
1.70009e-05
1.43351e-05
1.09425e-05
1.236e-05
1.4668e-05
1.59792e-05
2.09518e-05
2.77368e-05
2.91038e-05
2.46884e-05
1.96121e-05
1.37469e-05
4.50321e-06
6.12912e-06
1.78403e-05
2.70664e-05
2.87804e-05
2.42283e-05
2.01801e-05
1.78381e-05
1.92652e-05
2.44163e-05
2.73587e-05
2.7159e-05
2.92149e-05
3.49739e-05
3.71938e-05
2.8683e-05
2.96594e-05
2.80452e-05
2.61237e-05
2.42044e-05
2.08297e-05
1.56519e-05
1.27074e-05
1.41609e-05
1.30708e-05
1.08382e-05
1.43962e-05
1.98187e-05
2.28826e-05
2.19901e-05
1.80864e-05
1.31659e-05
9.09261e-06
1.03548e-05
1.34445e-05
1.60281e-05
1.98116e-05
1.92802e-05
1.31985e-05
9.90304e-06
8.66116e-06
6.239e-06
1.35738e-05
2.26047e-05
2.8122e-05
2.85888e-05
2.43178e-05
2.07542e-05
2.06021e-05
2.2225e-05
2.09918e-05
1.6737e-05
1.62446e-05
1.9864e-05
2.46813e-05
9.52928e-06
1.39936e-05
1.70238e-05
1.6758e-05
1.42353e-05
1.27308e-05
1.24776e-05
1.10103e-05
8.57173e-06
1.09691e-05
1.44988e-05
1.57152e-05
1.73861e-05
1.99278e-05
2.17015e-05
2.22704e-05
2.22791e-05
2.1667e-05
2.1849e-05
2.44761e-05
2.60001e-05
2.33938e-05
1.90648e-05
1.62564e-05
1.22655e-05
7.20294e-06
7.89898e-06
1.08094e-05
1.04956e-05
1.27659e-05
2.00907e-05
2.26932e-05
2.04914e-05
2.01591e-05
1.98298e-05
1.60001e-05
1.26853e-05
1.0099e-05
5.70719e-06
5.44045e-06
1.06588e-05
1.33163e-05
1.36802e-05
1.16303e-05
1.10453e-05
1.16157e-05
1.09594e-05
1.07795e-05
1.07834e-05
1.10469e-05
1.15751e-05
9.83115e-06
8.44346e-06
1.1679e-05
1.29406e-05
1.18043e-05
1.46739e-05
1.73776e-05
1.52638e-05
1.08964e-05
1.11043e-05
1.55151e-05
1.75937e-05
1.50502e-05
1.20222e-05
1.13786e-05
1.13228e-05
1.66349e-05
2.42553e-05
2.74396e-05
2.58902e-05
2.20305e-05
1.69492e-05
1.32747e-05
1.29117e-05
1.4162e-05
1.56859e-05
1.60488e-05
1.41722e-05
1.09987e-05
1.09704e-05
5.58371e-06
7.44295e-06
6.68355e-06
1.04148e-05
1.62575e-05
1.81442e-05
1.76976e-05
1.65039e-05
1.64222e-05
1.90869e-05
2.15754e-05
2.32292e-05
2.46548e-05
2.42276e-05
2.07361e-05
1.52788e-05
1.29984e-05
1.50305e-05
1.4656e-05
1.05684e-05
1.11944e-05
1.59058e-05
1.74049e-05
1.82765e-05
1.91666e-05
1.73083e-05
2.05e-05
2.99429e-05
3.27076e-05
2.68269e-05
2.18188e-05
1.98526e-05
1.76208e-05
1.78531e-05
2.06925e-05
2.39417e-05
2.47305e-05
2.27283e-05
1.84929e-05
4.32274e-05
4.38401e-05
4.52964e-05
4.78537e-05
5.16256e-05
5.60452e-05
6.02147e-05
6.36007e-05
6.61116e-05
6.78733e-05
6.91276e-05
7.00745e-05
7.06415e-05
7.04352e-05
6.95158e-05
6.86871e-05
6.84951e-05
6.85862e-05
6.85147e-05
6.82597e-05
6.79296e-05
6.78182e-05
6.81929e-05
6.86173e-05
6.88282e-05
6.94583e-05
7.08429e-05
7.33591e-05
7.73684e-05
8.18178e-05
8.45899e-05
8.50834e-05
8.42515e-05
8.23672e-05
7.84048e-05
7.11029e-05
6.13145e-05
5.24614e-05
4.66932e-05
4.38034e-05
4.29224e-05
4.28228e-05
4.40911e-05
4.66867e-05
5.04808e-05
5.49485e-05
5.94601e-05
6.35658e-05
6.70448e-05
6.98075e-05
7.19072e-05
7.33226e-05
7.3922e-05
7.3669e-05
7.30503e-05
7.28203e-05
7.29875e-05
7.28322e-05
7.20751e-05
7.10064e-05
7.00267e-05
6.95257e-05
6.94279e-05
6.91677e-05
6.87337e-05
6.90607e-05
7.07817e-05
7.43524e-05
7.95284e-05
8.45712e-05
8.77033e-05
8.86942e-05
8.81682e-05
8.63857e-05
8.32309e-05
7.77654e-05
6.89469e-05
5.82276e-05
4.94354e-05
4.46325e-05
4.17428e-05
4.04009e-05
4.09494e-05
4.32621e-05
4.70556e-05
5.1868e-05
5.7076e-05
6.21178e-05
6.66365e-05
7.04454e-05
7.34495e-05
7.54884e-05
7.65439e-05
7.68147e-05
7.68391e-05
7.71725e-05
7.76475e-05
7.7351e-05
7.60306e-05
7.40699e-05
7.19734e-05
7.02685e-05
6.90079e-05
6.78277e-05
6.6639e-05
6.63079e-05
6.77255e-05
7.13668e-05
7.70221e-05
8.28509e-05
8.71793e-05
8.96508e-05
9.02448e-05
8.92234e-05
8.7728e-05
8.55224e-05
7.95266e-05
6.79379e-05
5.49222e-05
4.59561e-05
4.11701e-05
3.74609e-05
3.66778e-05
3.84727e-05
4.22677e-05
4.74366e-05
5.3294e-05
5.91876e-05
6.46063e-05
6.93965e-05
7.33207e-05
7.61451e-05
7.79418e-05
7.90444e-05
7.99461e-05
8.10664e-05
8.21159e-05
8.20786e-05
8.06127e-05
7.79953e-05
7.45452e-05
7.08646e-05
6.75118e-05
6.46532e-05
6.22295e-05
6.0782e-05
6.12205e-05
6.40408e-05
6.94113e-05
7.57358e-05
8.1408e-05
8.61279e-05
8.88527e-05
8.89766e-05
8.88563e-05
9.01695e-05
8.91422e-05
8.00895e-05
6.433e-05
4.97193e-05
4.38157e-05
3.58324e-05
3.24484e-05
3.2847e-05
3.6207e-05
4.14239e-05
4.75858e-05
5.39663e-05
5.99072e-05
6.52754e-05
6.98844e-05
7.35595e-05
7.62973e-05
7.83467e-05
8.01387e-05
8.21516e-05
8.40437e-05
8.48914e-05
8.42074e-05
8.19513e-05
7.78286e-05
7.20951e-05
6.57956e-05
6.00298e-05
5.53659e-05
5.21792e-05
5.09747e-05
5.23093e-05
5.66056e-05
6.25587e-05
6.84475e-05
7.51887e-05
8.13854e-05
8.35234e-05
8.38474e-05
8.75599e-05
9.27688e-05
9.07758e-05
7.73376e-05
5.856e-05
5.24766e-05
3.83351e-05
3.04271e-05
2.7707e-05
2.97055e-05
3.44149e-05
4.01016e-05
4.60436e-05
5.17082e-05
5.67859e-05
6.13417e-05
6.55713e-05
6.93519e-05
7.24406e-05
7.49131e-05
7.73023e-05
7.96281e-05
8.14721e-05
8.26704e-05
8.27706e-05
8.01178e-05
7.38382e-05
6.50079e-05
5.55358e-05
4.73458e-05
4.16398e-05
3.88465e-05
3.91913e-05
4.28324e-05
4.79778e-05
5.17449e-05
5.6297e-05
6.56427e-05
7.16495e-05
7.14979e-05
7.46051e-05
8.51384e-05
9.36449e-05
8.94424e-05
7.25258e-05
6.73873e-05
4.74155e-05
3.37085e-05
2.584e-05
2.44539e-05
2.85283e-05
3.36828e-05
3.7883e-05
4.13202e-05
4.40369e-05
4.6347e-05
4.96286e-05
5.41626e-05
5.8681e-05
6.20052e-05
6.39334e-05
6.49126e-05
6.61741e-05
6.92624e-05
7.3761e-05
7.61654e-05
7.29684e-05
6.44191e-05
5.28831e-05
4.16763e-05
3.3833e-05
3.00819e-05
3.00027e-05
3.40449e-05
3.84104e-05
4.08631e-05
4.06577e-05
4.47408e-05
5.43064e-05
5.40445e-05
5.13495e-05
6.21957e-05
8.13359e-05
9.2153e-05
8.62457e-05
8.29135e-05
6.31956e-05
4.40248e-05
3.10638e-05
2.2993e-05
2.32852e-05
2.95711e-05
3.39914e-05
3.46466e-05
3.3469e-05
3.14535e-05
3.00782e-05
3.1638e-05
3.55457e-05
3.99847e-05
4.12494e-05
3.70324e-05
3.17692e-05
3.30389e-05
4.36646e-05
5.71397e-05
6.30074e-05
5.96959e-05
5.0673e-05
4.02957e-05
3.26473e-05
2.91849e-05
2.99147e-05
3.48195e-05
3.86067e-05
3.82738e-05
3.45714e-05
3.29722e-05
3.68625e-05
3.9406e-05
2.81378e-05
2.66612e-05
4.78205e-05
7.54184e-05
8.89548e-05
8.60587e-05
8.0033e-05
5.99689e-05
4.30641e-05
3.15223e-05
2.16492e-05
2.24271e-05
3.11279e-05
3.43459e-05
3.08981e-05
2.58759e-05
2.15183e-05
2.01198e-05
2.05666e-05
2.02202e-05
1.83187e-05
1.45399e-05
1.85707e-05
2.58392e-05
2.35756e-05
2.22138e-05
3.78056e-05
4.59817e-05
4.46781e-05
3.90352e-05
3.41661e-05
3.32941e-05
3.52902e-05
3.73712e-05
3.74801e-05
3.72216e-05
3.79148e-05
2.71871e-05
2.66872e-05
2.86849e-05
2.49609e-05
9.57105e-06
1.5573e-05
3.43119e-05
6.83043e-05
6.22527e-05
8.32346e-05
7.5492e-05
5.6778e-05
4.48412e-05
3.45728e-05
1.97986e-05
2.23523e-05
3.3909e-05
3.53361e-05
2.87291e-05
2.19775e-05
1.75025e-05
1.79666e-05
1.95083e-05
1.87115e-05
1.90685e-05
2.0259e-05
2.43363e-05
3.29691e-05
2.99548e-05
1.70867e-05
2.66677e-05
3.48787e-05
3.49413e-05
3.22963e-05
3.26968e-05
3.58384e-05
3.60028e-05
3.21047e-05
2.51573e-05
2.8884e-05
2.9634e-05
1.8063e-05
2.06076e-05
2.36779e-05
1.88812e-05
1.26303e-05
2.18533e-05
2.31807e-05
1.95548e-05
5.90166e-05
7.74914e-05
6.77974e-05
5.38472e-05
4.75877e-05
3.56421e-05
1.67237e-05
2.5009e-05
3.64395e-05
3.61337e-05
2.91065e-05
2.1372e-05
1.52264e-05
1.70705e-05
2.19998e-05
2.01897e-05
1.15406e-05
6.09596e-06
1.10284e-05
2.41088e-05
2.17278e-05
1.28763e-05
2.59289e-05
3.18021e-05
3.11892e-05
3.05114e-05
2.92629e-05
2.7827e-05
2.56728e-05
2.07895e-05
1.25024e-05
1.87937e-05
1.4619e-05
1.96415e-05
1.42581e-05
2.17309e-05
1.68565e-05
2.05436e-05
2.89292e-05
3.05571e-05
2.29365e-05
5.73266e-05
6.96736e-05
5.90822e-05
5.06116e-05