/*--------------------------------*- C++ -*----------------------------------*\
| =========                 |                                                 |
| \\      /  F ield         | OpenFOAM: The Open Source CFD Toolbox           |
|  \\    /   O peration     | Version:  2306                                  |
|   \\  /    A nd           | Website:  www.openfoam.com                      |
|    \\/     M anipulation  |                                                 |
\*---------------------------------------------------------------------------*/
FoamFile
{
    version     2.0;
    format      ascii;
    arch        "LSB;label=32;scalar=64";
    class       volScalarField;
    location    "8";
    object      p;
}
// * * * * * * * * * * * * * * * * * * * * * * * * * * * * * * * * * * * * * //

dimensions      [0 2 -2 0 0 0 0];

internalField   nonuniform List<scalar> 
60000
(
-3.21646e-05
-4.48653e-05
-2.58026e-05
2.15081e-06
8.09128e-06
-2.21854e-05
-6.33746e-05
-9.40597e-05
-0.000111782
-0.000124323
-0.000129928
-0.000123433
-0.000108686
-9.72867e-05
-0.000100436
-0.000101853
-7.9849e-05
-4.16289e-05
-6.68071e-06
1.12662e-05
1.27581e-05
2.78825e-06
-2.19092e-05
-6.82678e-05
-0.000133458
-0.000199645
-0.000240142
-0.000221775
-0.000132978
-2.03456e-05
3.98645e-05
3.55621e-05
-5.53935e-06
-4.44326e-05
-4.38042e-05
9.25485e-07
5.34082e-05
7.9255e-05
6.11082e-05
1.20213e-05
-3.10401e-05
-4.39835e-05
-2.49007e-05
3.24047e-06
9.31079e-06
-2.13938e-05
-6.33708e-05
-9.47455e-05
-0.000112538
-0.000124825
-0.000130267
-0.000123754
-0.000109198
-9.79912e-05
-0.000101225
-0.000102757
-8.07776e-05
-4.2524e-05
-7.48897e-06
1.06607e-05
1.26623e-05
3.19782e-06
-2.10837e-05
-6.70599e-05
-0.000132595
-0.000199652
-0.000241384
-0.000224227
-0.000135698
-2.24287e-05
3.85909e-05
3.47345e-05
-5.98005e-06
-4.53023e-05
-4.51701e-05
-2.75348e-07
5.29573e-05
7.96295e-05
6.21383e-05
1.31946e-05
-3.01044e-05
-4.38356e-05
-2.39989e-05
4.11644e-06
1.04631e-05
-2.12983e-05
-6.50076e-05
-9.77222e-05
-0.000115461
-0.000126855
-0.000131553
-0.000124591
-0.000109926
-9.8585e-05
-0.00010203
-0.000104079
-8.2384e-05
-4.40841e-05
-8.73971e-06
9.97248e-06
1.29064e-05
4.32077e-06
-1.95209e-05
-6.57355e-05
-0.00013218
-0.000200299
-0.000243807
-0.000227723
-0.000138581
-2.39242e-05
3.77416e-05
3.43028e-05
-6.84318e-06
-4.72239e-05
-4.79494e-05
-2.69569e-06
5.16583e-05
7.95445e-05
6.29629e-05
1.41503e-05
-2.9955e-05
-4.4272e-05
-2.39429e-05
5.13863e-06
1.18766e-05
-2.17792e-05
-6.87186e-05
-0.00010396
-0.000121729
-0.000131434
-0.000134429
-0.000126187
-0.000110873
-9.89858e-05
-0.00010266
-0.000105581
-8.45058e-05
-4.63274e-05
-1.05263e-05
9.19062e-06
1.36705e-05
6.42733e-06
-1.72225e-05
-6.42537e-05
-0.000132376
-0.000201948
-0.000247502
-0.000232448
-0.000141385
-2.41889e-05
3.77428e-05
3.35618e-05
-8.71087e-06
-5.06991e-05
-5.23029e-05
-6.15248e-06
4.95702e-05
7.88055e-05
6.34111e-05
1.47245e-05
-3.03368e-05
-4.5357e-05
-2.42564e-05
7.54434e-06
1.40279e-05
-2.21965e-05
-7.35607e-05
-0.000113211
-0.000131781
-0.000139288
-0.00013953
-0.000128849
-0.000112064
-9.89737e-05
-0.000102574
-0.000106524
-8.64885e-05
-4.90369e-05
-1.31681e-05
7.82263e-06
1.47714e-05
9.71094e-06
-1.38421e-05
-6.23875e-05
-0.000132909
-0.000204343
-0.000253005
-0.000239635
-0.000146824
-2.59581e-05
3.73326e-05
3.24089e-05
-1.1895e-05
-5.60052e-05
-5.81155e-05
-9.97258e-06
4.7293e-05
7.74986e-05
6.32819e-05
1.49663e-05
-3.09867e-05
-4.74484e-05
-2.57824e-05
1.015e-05
1.91626e-05
-2.3789e-05
-7.99136e-05
-0.000124756
-0.000145139
-0.000150509
-0.000147276
-0.0001329
-0.000113896
-9.8643e-05
-0.000101508
-0.00010609
-8.71439e-05
-5.12654e-05
-1.64547e-05
5.44019e-06
1.58405e-05
1.43755e-05
-8.70632e-06
-5.96788e-05
-0.0001333
-0.000207319
-0.000260294
-0.000251101
-0.000158096
-3.36788e-05
3.06285e-05
2.74313e-05
-1.5978e-05
-6.33306e-05
-6.4745e-05
-1.36037e-05
4.58553e-05
7.63343e-05
6.28985e-05
1.52351e-05
-3.10415e-05
-5.15425e-05
-3.17377e-05
1.02986e-05
2.72692e-05
-1.77713e-05
-8.92053e-05
-0.000143699
-0.00016329
-0.000165185
-0.000157573
-0.000139377
-0.000116462
-9.87092e-05
-9.98739e-05
-0.00010428
-8.57244e-05
-5.16611e-05
-1.93316e-05
2.16688e-06
1.65786e-05
2.05279e-05
-1.03043e-06
-5.52369e-05
-0.000132856
-0.000210797
-0.000268879
-0.000265534
-0.000172677
-4.49431e-05
1.97168e-05
1.52654e-05
-2.70944e-05
-7.44129e-05
-7.31436e-05
-1.74036e-05
4.55186e-05
7.61311e-05
6.1636e-05
1.62898e-05
-2.84304e-05
-5.51111e-05
-4.18238e-05
3.69365e-06
3.45518e-05
-4.5637e-06
-8.99553e-05
-0.000163243
-0.000190897
-0.000187135
-0.000172425
-0.000145295
-0.00011863
-9.90582e-05
-9.9705e-05
-0.000102816
-8.28197e-05
-4.96273e-05
-2.01796e-05
-9.31473e-07
1.69463e-05
2.79323e-05
9.58007e-06
-4.831e-05
-0.000131549
-0.00021247
-0.000272103
-0.000270823
-0.000177368
-4.50547e-05
2.03716e-05
6.62584e-06
-4.23195e-05
-9.294e-05
-8.81784e-05
-2.52963e-05
4.28981e-05
7.65741e-05
6.49095e-05
2.02867e-05
-1.91732e-05
-5.11013e-05
-4.81127e-05
-5.87461e-06
3.88917e-05
1.35095e-05
-8.03347e-05
-0.000175515
-0.000221526
-0.000218331
-0.000195375
-0.000156435
-0.000122135
-9.86631e-05
-0.0001
-0.000105471
-8.43688e-05
-4.68388e-05
-1.72883e-05
-8.48461e-07
1.80602e-05
3.57588e-05
2.21239e-05
-3.92779e-05
-0.000130564
-0.000213362
-0.000268962
-0.00026008
-0.000159497
-2.12111e-05
4.22002e-05
1.53479e-05
-5.3343e-05
-0.000118458
-0.000112163
-3.8214e-05
3.65484e-05
7.08531e-05
6.16973e-05
2.48743e-05
-1.19595e-05
-4.12638e-05
-4.29203e-05
-9.79018e-06
4.30553e-05
3.76494e-05
-5.82451e-05
-0.000175179
-0.000248779
-0.000255957
-0.000229212
-0.000171546
-0.000128794
-0.000101756
-0.000101101
-0.000107697
-9.0513e-05
-5.25199e-05
-1.90935e-05
5.45175e-06
2.29922e-05
4.34647e-05
3.37257e-05
-3.0413e-05
-0.000130622
-0.000216273
-0.000265054
-0.00024146
-0.000125699
2.47477e-05
8.95089e-05
4.34987e-05
-5.27382e-05
-0.000139904
-0.000144284
-5.85086e-05
3.03596e-05
6.38737e-05
5.45096e-05
2.4717e-05
-5.1194e-07
-1.59797e-05
-2.43103e-05
-5.69744e-06
4.61023e-05
6.49257e-05
-1.94332e-05
-0.000154612
-0.000259452
-0.000296852
-0.000277916
-0.000195346
-0.000135674
-0.000104373
-0.000104369
-0.000110927
-9.6178e-05
-6.10286e-05
-3.28675e-05
-5.36489e-06
2.36964e-05
4.83787e-05
4.05558e-05
-2.53387e-05
-0.000130761
-0.000221644
-0.000266293
-0.000230398
-0.000102292
6.56142e-05
0.000146919
9.22487e-05
-3.51397e-05
-0.000153109
-0.000175184
-8.59319e-05
9.58085e-06
4.86263e-05
4.49976e-05
2.37843e-05
1.19618e-05
1.88552e-05
1.49146e-05
1.66371e-05
4.53848e-05
8.4891e-05
2.74899e-05
-0.000108648
-0.000241308
-0.000316954
-0.000314243
-0.000231555
-0.00014813
-0.000105646
-0.00010424
-0.00011256
-0.000101071
-7.20762e-05
-4.4291e-05
-2.30956e-05
1.74932e-06
2.99399e-05
3.35192e-05
-2.85223e-05
-0.000128135
-0.000219835
-0.000261031
-0.000221775
-0.000101947
6.50567e-05
0.000182668
0.000146251
7.56572e-06
-0.000140272
-0.000182468
-0.00011061
-1.78636e-05
2.55717e-05
3.29289e-05
2.05506e-05
1.18602e-05
4.04151e-05
5.53963e-05
4.79247e-05
4.39412e-05
9.09242e-05
6.63513e-05
-5.01145e-05
-0.000193166
-0.000302934
-0.000337652
-0.000257296
-0.000167482
-0.000109602
-0.000102241
-0.000113053
-0.000101139
-7.48828e-05
-5.18267e-05
-3.36958e-05
-1.85905e-05
-6.55707e-06
1.44722e-06
-4.71648e-05
-0.000123537
-0.000199189
-0.000236586
-0.000203676
-0.000109121
3.33818e-05
0.000179418
0.000179147
6.63003e-05
-9.15315e-05
-0.000161392
-0.000122647
-4.37049e-05
1.87183e-06
1.76216e-05
1.35309e-05
7.37033e-06
3.62366e-05
7.49492e-05
6.61781e-05
4.36664e-05
8.18912e-05
8.99316e-05
6.58029e-06
-0.000128503
-0.000257926
-0.000332675
-0.00029408
-0.000187825
-0.000114296
-0.000100371
-0.000114439
-0.000107961
-7.91793e-05
-5.44286e-05
-3.77458e-05
-2.40252e-05
-2.91332e-05
-5.27569e-05
-6.7876e-05
-0.000114771
-0.000172801
-0.000201605
-0.000184274
-0.000109526
-1.06703e-06
0.000114419
0.000178923
0.000111142
-2.1475e-05
-0.000109283
-0.000108453
-6.23688e-05
-2.1022e-05
6.25322e-07
2.42879e-06
3.75079e-07
2.95498e-05
7.03968e-05
6.93164e-05
4.40998e-05
6.46065e-05
0.000102447
5.15006e-05
-6.27162e-05
-0.000193849
-0.00029602
-0.000300853
-0.000208814
-0.000119805
-9.73074e-05
-0.000114091
-0.000116514
-9.24248e-05
-6.00668e-05
-3.7813e-05
-2.03487e-05
-3.10465e-05
-6.08841e-05
-7.20841e-05
-0.000102177
-0.000145585
-0.000181595
-0.000161976
-0.000103519
-3.19135e-05
5.83658e-05
0.000158201
0.000123804
3.36355e-05
-4.92859e-05
-8.04629e-05
-7.14636e-05
-4.0616e-05
-1.91719e-05
-1.19622e-05
-2.84426e-06
3.29236e-05
5.62622e-05
6.04759e-05
4.00057e-05
4.07592e-05
9.59971e-05
8.31188e-05
-1.13264e-05
-0.00012994
-0.000237
-0.000272376
-0.000212407
-0.000127367
-0.000100294
-0.000112928
-0.000120266
-0.000103599
-6.93124e-05
-4.16674e-05
-2.2614e-05
-2.73202e-05
-5.55891e-05
-7.26618e-05
-8.92323e-05
-0.000112305
-0.000149225
-0.000136832
-8.5246e-05
-4.67857e-05
1.03669e-05
0.00010627
0.000107738
5.72274e-05
-8.37493e-06
-5.15142e-05
-6.48434e-05
-5.93081e-05
-4.50245e-05
-2.9407e-05
-8.73846e-06
3.13491e-05
4.92037e-05
5.26349e-05
3.32571e-05
4.043e-05
7.40303e-05
7.62219e-05
1.34969e-05
-7.65439e-05
-0.000170341
-0.000220472
-0.000194404
-0.000128352
-0.00010312
-0.000111134
-0.000123794
-0.000109554
-7.57839e-05
-4.45902e-05
-2.8535e-05
-3.56675e-05
-5.88464e-05
-7.90348e-05
-8.19064e-05
-8.97215e-05
-0.00011699
-0.0001188
-7.05996e-05
-3.88316e-05
-1.22289e-05
5.44911e-05
8.03143e-05
6.37685e-05
1.56192e-05
-3.16038e-05
-6.03693e-05
-6.73236e-05
-5.88877e-05
-4.48548e-05
-3.73764e-06
2.63104e-05
6.27008e-05
5.56107e-05
2.56596e-05
2.40199e-05
4.50073e-05
4.43515e-05
9.65346e-06
-3.90056e-05
-9.74541e-05
-0.000145067
-0.000158612
-0.00012809
-9.39926e-05
-0.000106421
-0.000118468
-0.000108513
-8.19172e-05
-5.28976e-05
-3.0332e-05
-3.34041e-05
-5.76405e-05
-8.14054e-05
-8.28207e-05
-7.68893e-05
-0.00010067
-0.000107645
-6.65147e-05
-2.4662e-05
-1.03334e-05
2.39578e-05
4.94797e-05
5.25404e-05
2.08999e-05
-2.51093e-05
-6.28691e-05
-7.58555e-05
-6.33891e-05
-4.08365e-05
9.59408e-06
5.37451e-05
7.03869e-05
5.53135e-05
1.15496e-05
-7.73372e-06
9.84917e-06
1.92462e-05
3.71237e-06
-3.832e-05
-5.67268e-05
-7.06775e-05
-9.25141e-05
-0.00010159
-0.00011042
-0.000114439
-0.000118814
-0.000111303
-9.59596e-05
-7.80363e-05
-5.23758e-05
-3.98551e-05
-5.09607e-05
-6.46124e-05
-7.18369e-05
-5.8198e-05
-6.33175e-05
-7.80403e-05
-5.76119e-05
-2.19641e-05
-8.61149e-06
3.33754e-06
3.40337e-05
5.09958e-05
1.58883e-05
-4.40693e-05
-7.87944e-05
-7.5898e-05
-5.49359e-05
-2.55939e-05
6.07741e-06
3.47301e-05
4.76641e-05
3.48574e-05
8.52634e-07
-2.32501e-05
-2.25999e-05
-2.17386e-05
-1.78857e-05
-3.57862e-05
-4.63033e-05
-5.70915e-05
-7.26952e-05
-8.23702e-05
-8.52542e-05
-9.69328e-05
-0.000105362
-0.00010699
-0.000103031
-0.000100704
-0.000101561
-9.5085e-05
-8.32062e-05
-7.24842e-05
-6.10573e-05
-4.28869e-05
-3.41581e-05
-4.39009e-05
-5.25892e-05
-4.47567e-05
-3.17117e-05
-2.25067e-05
2.29876e-05
5.66424e-05
2.06522e-05
-4.96918e-05
-8.70383e-05
-8.39424e-05
-5.77164e-05
-2.64983e-05
-1.24718e-05
2.84151e-05
5.00472e-05
3.69779e-05
7.19806e-06
-1.72552e-05
-2.49934e-05
-4.19602e-05
-7.01854e-05
-8.84641e-05
-8.41553e-05
-6.67984e-05
-5.62368e-05
-6.51392e-05
-8.263e-05
-0.00010118
-0.000106944
-0.000102106
-0.000102897
-0.000110156
-0.000112525
-0.000118278
-0.000112326
-9.4717e-05
-6.94761e-05
-3.63977e-05
-1.56164e-05
-2.38641e-05
-5.13083e-05
-6.80959e-05
-5.2418e-05
-2.76497e-05
3.66805e-05
6.11612e-05
2.67694e-05
-5.39508e-05
-0.000120771
-0.000151637
-0.000120991
-6.67259e-05
-4.01063e-05
2.10234e-05
4.05423e-05
2.15573e-05
-3.76156e-06
-1.61145e-05
-8.61625e-07
1.34105e-06
-2.7519e-05
-6.45381e-05
-8.90459e-05
-8.70384e-05
-6.51594e-05
-5.76685e-05
-7.64801e-05
-0.000100567
-0.000107697
-0.00010315
-0.000103164
-0.000109692
-0.00011407
-0.000120279
-0.000119751
-9.10436e-05
-7.8411e-05
-4.02679e-05
-9.25744e-06
-6.52265e-06
-3.43607e-05
-6.24144e-05
-6.2374e-05
-4.66033e-05
3.74063e-05
8.52087e-05
5.36003e-05
-4.06981e-05
-0.000140062
-0.000208651
-0.000185568
-0.000120001
-7.48464e-05
-1.66812e-05
1.84545e-05
1.56507e-05
-6.56089e-06
-1.83105e-05
-1.83986e-05
-8.93579e-06
-8.95799e-06
-2.01091e-05
-4.488e-05
-6.53746e-05
-8.17624e-05
-8.02795e-05
-9.4839e-05
-0.000105534
-0.000102865
-9.82362e-05
-0.000101423
-0.000106351
-9.92684e-05
-8.69612e-05
-8.41052e-05
-8.53543e-05
-7.57615e-05
-4.37735e-05
-1.23879e-05
-8.10151e-07
-1.66759e-05
-4.02416e-05
-4.73577e-05
-3.83571e-05
7.79728e-06
5.53156e-05
5.59e-05
-8.93919e-06
-9.323e-05
-0.000150968
-0.000164593
-0.000128821
-9.58075e-05
-4.84972e-05
-1.32803e-05
-5.56725e-06
-1.35292e-05
-4.66901e-06
-4.1494e-06
1.04846e-06
-1.23537e-05
-4.0462e-05
-7.32206e-05
-9.79572e-05
-0.000108157
-0.000108239
-0.00010386
-9.26265e-05
-7.55539e-05
-6.48932e-05
-7.13181e-05
-8.74128e-05
-0.000105843
-9.88966e-05
-9.00596e-05
-7.42712e-05
-5.11606e-05
-3.07229e-05
-5.62889e-06
9.15732e-06
2.37001e-06
-2.60261e-05
-5.60962e-05
-6.74129e-05
-4.64683e-05
-5.56701e-06
1.4264e-05
-8.82799e-06
-6.22314e-05
-0.00011278
-0.000138064
-0.000129659
-0.000109204
-7.46318e-05
-4.04119e-05
-2.42028e-05
-2.25114e-05
-2.75206e-05
-1.69138e-05
-8.60867e-06
-1.58591e-05
-3.98146e-05
-7.55245e-05
-0.00010802
-0.000128167
-0.000129797
-0.000127305
-0.000113604
-9.04485e-05
-7.46737e-05
-7.80352e-05
-9.22933e-05
-9.00996e-05
-7.51842e-05
-6.45313e-05
-6.29947e-05
-4.30251e-05
-1.38728e-06
2.61345e-05
3.59691e-05
1.45428e-05
-3.45098e-05
-8.50898e-05
-0.00011133
-9.95437e-05
-6.69402e-05
-3.61574e-05
-2.45851e-05
-4.65162e-05
-8.3092e-05
-0.000110639
-0.000124779
4.73726e-06
-2.2394e-08
4.24298e-05
8.14423e-05
8.07915e-05
2.836e-05
-5.22057e-05
-0.00012573
-0.000175752
-0.000198049
-0.000195596
-0.000176784
-0.000155551
-0.000145112
-0.000147005
-0.000142564
-0.000114671
-6.8953e-05
-2.6352e-05
-5.5768e-06
-9.90641e-06
-2.3667e-05
-3.62506e-05
-5.24246e-05
-9.83857e-05
-0.000167703
-0.00023072
-0.000238154
-0.000141258
1.30581e-05
0.000106736
0.000103491
8.15515e-05
7.58385e-05
7.29433e-05
8.40884e-05
0.000117102
0.000142261
0.000119922
5.67296e-05
4.94197e-06
-7.25014e-08
4.30448e-05
8.28097e-05
8.3418e-05
3.14129e-05
-4.93896e-05
-0.000123546
-0.000174492
-0.00019761
-0.000195671
-0.000177071
-0.00015589
-0.000145574
-0.000147694
-0.000143597
-0.000115825
-7.01519e-05
-2.73931e-05
-6.24146e-06
-1.02556e-05
-2.39018e-05
-3.62956e-05
-5.21735e-05
-9.78919e-05
-0.000167377
-0.000231645
-0.000241074
-0.000145961
8.36152e-06
0.000103392
0.000100637
7.86602e-05
7.3258e-05
7.04948e-05
8.13152e-05
0.000114477
0.00014079
0.000119761
5.70684e-05
5.01066e-06
-1.52341e-07
4.3926e-05
8.57834e-05
8.73556e-05
3.49514e-05
-4.76738e-05
-0.000123648
-0.000175883
-0.000199472
-0.000197437
-0.000178428
-0.000156851
-0.000146483
-0.000148953
-0.000145292
-0.000117793
-7.20952e-05
-2.88588e-05
-6.94629e-06
-1.046e-05
-2.40733e-05
-3.63758e-05
-5.17915e-05
-9.72188e-05
-0.000167262
-0.000233168
-0.000244852
-0.000151026
4.5341e-06
0.000100574
9.85268e-05
7.55605e-05
7.072e-05
6.84076e-05
7.85488e-05
0.000111374
0.000139018
0.000119935
5.77508e-05
4.58441e-06
-4.54648e-07
4.63376e-05
9.07361e-05
9.2792e-05
3.82694e-05
-4.86489e-05
-0.000127961
-0.000181625
-0.000204804
-0.000201549
-0.000181126
-0.000158412
-0.000147659
-0.00015062
-0.000147567
-0.000120435
-7.46529e-05
-3.06104e-05
-7.46755e-06
-1.02056e-05
-2.38642e-05
-3.5251e-05
-5.12265e-05
-9.63684e-05
-0.000167444
-0.000234994
-0.000248832
-0.00015545
2.91765e-06
0.000100871
9.7812e-05
7.22495e-05
6.80191e-05
6.66292e-05
7.61316e-05
0.000108263
0.000137023
0.000120005
5.82157e-05
2.48432e-06
-2.01385e-06
4.94667e-05
9.73273e-05
9.9777e-05
4.17463e-05
-5.26946e-05
-0.000137302
-0.00019252
-0.000214081
-0.000208225
-0.000185269
-0.000160572
-0.000148923
-0.000152172
-0.000149808
-0.000123164
-7.74815e-05
-3.26366e-05
-7.95984e-06
-9.50894e-06
-2.31066e-05
-3.38617e-05
-5.04086e-05
-9.54811e-05
-0.000168033
-0.000237451
-0.000254093
-0.000161313
9.51002e-07
0.000102278
9.77149e-05
6.83555e-05
6.45981e-05
6.47032e-05
7.42804e-05
0.000105793
0.00013504
0.00011939
5.7382e-05
-2.21887e-06
-6.75759e-06
5.17875e-05
0.000106982
0.000109183
4.73647e-05
-5.84257e-05
-0.000151206
-0.000208726
-0.000227529
-0.000217601
-0.000191052
-0.000163536
-0.000150259
-0.000153363
-0.000151275
-0.000124933
-7.96111e-05
-3.4448e-05
-8.53965e-06
-8.6954e-06
-2.19066e-05
-3.20768e-05
-4.90498e-05
-9.44133e-05
-0.000168308
-0.000241786
-0.000264398
-0.000175379
-9.19165e-06
9.74678e-05
9.36714e-05
6.17856e-05
5.94521e-05
6.16366e-05
7.24854e-05
0.00010427
0.000133471
0.000118143
5.49565e-05
-8.42523e-06
-1.49752e-05
5.12322e-05
0.000118779
0.000126346
5.73111e-05
-6.08258e-05
-0.000166907
-0.000229345
-0.000245218
-0.000229834
-0.000198612
-0.000167476
-0.000152021
-0.000154347
-0.000152027
-0.000125369
-7.98667e-05
-3.46816e-05
-8.4863e-06
-7.91371e-06
-2.07949e-05
-2.99862e-05
-4.70027e-05
-9.29517e-05
-0.000169494
-0.000249084
-0.000282004
-0.000201994
-3.34704e-05
8.17858e-05
7.95007e-05
4.54655e-05
4.82043e-05
5.43573e-05
6.7831e-05
0.000102111
0.000131871
0.00011654
5.20261e-05
-1.0193e-05
-2.17828e-05
4.83711e-05
0.000131032
0.000151536
7.95858e-05
-5.05093e-05
-0.000175436
-0.000250721
-0.000267028
-0.000246053
-0.000208673
-0.000172233
-0.000153514
-0.000155351
-0.000153328
-0.000126006
-7.87902e-05
-3.22289e-05
-5.90145e-06
-6.07315e-06
-2.00209e-05
-2.8172e-05
-4.46188e-05
-9.15217e-05
-0.000171119
-0.000258878
-0.000301123
-0.000232027
-6.66585e-05
5.85974e-05
6.05875e-05
1.91727e-05
2.6308e-05
3.94722e-05
5.54922e-05
9.23004e-05
0.000126205
0.000114374
5.15221e-05
-3.23962e-07
-1.5884e-05
4.81977e-05
0.00014278
0.000183302
0.000118762
-2.18269e-05
-0.000169169
-0.000264126
-0.000290994
-0.000267225
-0.000222999
-0.00017992
-0.000155421
-0.000154785
-0.000153471
-0.000128016
-8.18138e-05
-3.14009e-05
-1.16264e-06
-1.06003e-06
-1.83284e-05
-2.71895e-05
-4.29032e-05
-9.10644e-05
-0.000173966
-0.000264942
-0.000306753
-0.000240718
-8.63182e-05
3.53289e-05
4.42031e-05
-6.89588e-06
-3.85282e-06
1.58342e-05
3.8292e-05
7.55211e-05
0.000109281
0.00010416
5.32334e-05
1.11676e-05
3.09014e-06
5.58782e-05
0.00015006
0.000214521
0.000170949
2.77397e-05
-0.000144201
-0.000264748
-0.000312548
-0.000294533
-0.000242358
-0.000189484
-0.000159179
-0.000155776
-0.000152881
-0.0001283
-8.66978e-05
-3.77249e-05
-3.98872e-06
2.92431e-06
-1.51886e-05
-2.70135e-05
-4.28814e-05
-9.20696e-05
-0.00017871
-0.000270456
-0.000302912
-0.000226898
-7.7289e-05
2.67497e-05
3.28712e-05
-2.5688e-05
-4.13317e-05
-1.92167e-05
1.19207e-05
5.85753e-05
9.65792e-05
9.32538e-05
5.19438e-05
3.01394e-05
2.51269e-05
6.49137e-05
0.000145808
0.000230112
0.0002213
9.46304e-05
-9.48948e-05
-0.000247929
-0.000322189
-0.00032463
-0.000268669
-0.000200283
-0.00016125
-0.000156281
-0.0001535
-0.000132735
-9.07361e-05
-4.44528e-05
-1.14159e-05
-2.39156e-06
-1.80114e-05
-3.06401e-05
-4.72161e-05
-9.52133e-05
-0.000184159
-0.000274714
-0.000295344
-0.000205025
-5.41751e-05
3.46242e-05
3.42771e-05
-3.28317e-05
-6.95254e-05
-5.49705e-05
-2.38362e-05
3.3775e-05
8.45924e-05
9.23225e-05
5.7436e-05
4.70153e-05
4.89059e-05
7.35403e-05
0.00012257
0.000221896
0.000247769
0.000161251
-2.61444e-05
-0.000202144
-0.000312191
-0.000341203
-0.000302546
-0.000215823
-0.000162478
-0.000154188
-0.000153375
-0.000133103
-9.53287e-05
-5.31331e-05
-2.19734e-05
-1.33077e-05
-3.1729e-05
-4.52465e-05
-5.95395e-05
-0.000101602
-0.000187119
-0.000278571
-0.000292724
-0.000195353
-5.30041e-05
3.40259e-05
4.78925e-05
-2.16778e-05
-7.66046e-05
-8.2663e-05
-5.82609e-05
1.68924e-06
5.9497e-05
7.76704e-05
5.83392e-05
5.73785e-05
6.78408e-05
8.00511e-05
0.000103499
0.000189359
0.000246966
0.000204356
4.26826e-05
-0.000137326
-0.000270641
-0.000343807
-0.000337368
-0.000239342
-0.000168279
-0.000152437
-0.000152915
-0.000134993
-0.000100068
-6.33662e-05
-3.60831e-05
-2.94842e-05
-5.195e-05
-6.99966e-05
-9.12124e-05
-0.000111374
-0.000180804
-0.000279549
-0.000280047
-0.000190862
-7.0197e-05
3.79196e-06
5.56766e-05
1.76355e-06
-5.98385e-05
-8.31796e-05
-7.59816e-05
-2.96476e-05
2.16182e-05
4.94323e-05
4.98741e-05
5.73459e-05
7.77226e-05
8.38144e-05
8.58345e-05
0.000153789
0.000227404
0.000220079
9.36281e-05
-7.30401e-05
-0.000210225
-0.000312186
-0.000339807
-0.000266053
-0.000180064
-0.000150919
-0.00015095
-0.000138895
-0.000108258
-7.06082e-05
-4.27248e-05
-3.71797e-05
-6.51795e-05
-9.22982e-05
-0.00010977
-0.00011071
-0.000159963
-0.000276564
-0.000249479
-0.000173378
-8.08995e-05
-8.2659e-06
4.74534e-05
2.43093e-05
-3.01154e-05
-6.06308e-05
-7.03156e-05
-4.61374e-05
-1.29518e-05
1.41669e-05
3.1471e-05
3.31261e-05
6.87315e-05
8.12365e-05
7.55064e-05
0.000114499
0.000188444
0.000211317
0.000119344
-2.50175e-05
-0.000151515
-0.000260817
-0.000324094
-0.000282479
-0.000193851
-0.000152118
-0.000147209
-0.000142263
-0.000120674
-7.56243e-05
-4.05147e-05
-3.08989e-05
-5.48679e-05
-8.34213e-05
-7.9556e-05
-9.7114e-05
-0.000136234
-0.000223667
-0.000216852
-0.000149591
-7.93066e-05
-2.5772e-05
3.27527e-05
3.83402e-05
-7.94363e-07
-3.23776e-05
-5.59523e-05
-5.05251e-05
-3.47603e-05
-1.215e-05
1.08237e-05
1.88802e-05
5.94762e-05
8.29062e-05
7.56674e-05
8.44773e-05
0.000136694
0.000177057
0.000125053
8.24758e-06
-0.000102295
-0.000202406
-0.00028215
-0.000279169
-0.000203364
-0.000153993
-0.000141997
-0.000144915
-0.000131946
-7.98985e-05
-3.24889e-05
-1.93794e-05
-4.53917e-05
-7.57084e-05
-8.05562e-05
-8.89516e-05
-0.000135957
-0.000191588
-0.000186983
-0.000121732
-7.02358e-05
-4.35511e-05
1.29506e-05
4.61964e-05
2.66071e-05
-1.03239e-05
-3.8692e-05
-5.16904e-05
-4.4227e-05
-3.15699e-05
-6.9252e-06
1.06226e-05
5.56075e-05
8.58729e-05
7.75806e-05
6.0736e-05
8.70326e-05
0.000120163
9.86886e-05
1.4751e-05
-6.93796e-05
-0.000137406
-0.000205871
-0.000239508
-0.000210438
-0.00016488
-0.000147231
-0.000146571
-0.000130845
-8.09467e-05
-2.88952e-05
-1.27479e-05
-4.06266e-05
-6.76404e-05
-8.15205e-05
-8.91283e-05
-0.000115274
-0.000157602
-0.000160831
-0.000102278
-5.34166e-05
-4.08698e-05
1.56377e-06
4.09551e-05
4.43941e-05
1.21686e-05
-2.55661e-05
-4.71327e-05
-5.05002e-05
-4.61501e-05
-2.00287e-05
9.76985e-06
5.16133e-05
8.4255e-05
7.93759e-05
4.76974e-05
4.49269e-05
5.85605e-05
4.37564e-05
-2.34126e-06
-4.13103e-05
-6.51594e-05
-0.000105142
-0.000163202
-0.000184751
-0.000169587
-0.000155749
-0.000157836
-0.000138714
-8.28448e-05
-2.5076e-05
-7.21726e-06
-3.27722e-05
-6.41508e-05
-8.29959e-05
-9.15036e-05
-0.000101707
-0.000128672
-0.000139758
-9.90786e-05
-4.97593e-05
-2.45359e-05
1.87239e-05
3.7552e-05
4.62025e-05
1.92179e-05
-1.28371e-05
-3.81486e-05
-5.03999e-05
-4.92829e-05
-2.70538e-05
5.55214e-06
4.51387e-05
7.11007e-05
6.75171e-05
2.90576e-05
9.26077e-06
1.71235e-05
1.85033e-05
-1.06641e-05
-4.52283e-05
-2.43098e-05
-8.20399e-06
-5.14283e-05
-0.000114619
-0.000150306
-0.000156954
-0.000153879
-0.000136347
-0.000104626
-6.33534e-05
-3.817e-05
-3.77992e-05
-5.47238e-05
-7.96197e-05
-9.74812e-05
-8.79057e-05
-9.15416e-05
-0.000103694
-9.36152e-05
-5.96081e-05
-2.72491e-05
6.39711e-06
3.78178e-05
4.9064e-05
1.28954e-05
-2.60455e-05
-4.30325e-05
-4.61631e-05
-4.44211e-05
-3.02018e-05
1.3279e-05
3.22505e-05
4.23156e-05
3.54922e-05
1.20819e-05
-8.02602e-06
-1.8665e-05
-1.60444e-05
-2.76832e-06
-2.08798e-05
-1.15706e-05
-1.07611e-05
-2.85435e-05
-6.25435e-05
-9.70344e-05
-0.000123275
-0.00013363
-0.000130356
-0.000112936
-9.27294e-05
-8.1914e-05
-8.01681e-05
-8.23022e-05
-8.07917e-05
-7.66302e-05
-7.00531e-05
-6.66088e-05
-7.20495e-05
-7.85282e-05
-7.75699e-05
-4.92469e-05
-9.86232e-06
3.18619e-05
5.17928e-05
6.25045e-06
-4.41676e-05
-6.5461e-05
-5.84514e-05
-3.65813e-05
-1.12393e-05
1.5344e-05
3.88821e-05
4.70869e-05
3.2011e-05
6.46308e-06
-7.85683e-06
-2.5005e-05
-3.13734e-05
-4.63776e-05
-3.80235e-05
-4.21996e-05
-2.50386e-05
-2.06607e-05
-4.07206e-05
-7.25613e-05
-0.000101732
-0.00011675
-0.00011976
-0.00012166
-0.000123115
-0.00011775
-0.000114406
-0.000117956
-0.000107426
-8.13424e-05
-6.45408e-05
-6.13091e-05
-6.65187e-05
-7.55575e-05
-6.64507e-05
-4.40883e-05
3.14687e-06
3.82825e-05
4.31353e-05
4.32852e-06
-6.39643e-05
-0.000108262
-0.000104981
-7.11911e-05
-2.42372e-05
-5.80749e-06
3.56788e-05
4.36638e-05
2.06244e-05
-9.93366e-06
-1.50645e-05
2.12036e-05
1.00449e-05
-1.29532e-05
-3.65211e-05
-5.2105e-05
-4.79557e-05
-3.49093e-05
-3.62301e-05
-6.13518e-05
-9.37508e-05
-0.000113219
-0.000116064
-0.000112932
-0.000118835
-0.000124895
-0.000135577
-0.000152679
-0.000173778
-0.000125877
-8.71983e-05
-5.8594e-05
-4.79294e-05
-5.35979e-05
-5.6977e-05
-4.06881e-05
1.37862e-05
3.45716e-05
5.317e-05
2.1645e-05
-4.9632e-05
-0.000111979
-0.000128419
-0.000115668
-6.29115e-05
-4.75548e-05
-4.50152e-06
2.06609e-05
1.5124e-05
-6.50656e-06
-1.5838e-05
-1.83259e-05
-5.02269e-06
-7.89936e-06
-1.81792e-05
-3.20288e-05
-3.83287e-05
-3.89721e-05
-4.32682e-05
-6.7481e-05
-9.4308e-05
-0.000106127
-0.000105718
-0.000102194
-9.38331e-05
-8.75507e-05
-8.54801e-05
-9.59999e-05
-0.000114644
-0.000106393
-7.86291e-05
-5.06825e-05
-4.38677e-05
-5.52941e-05
-6.55822e-05
-5.5331e-05
-2.69103e-05
9.82365e-07
2.47268e-05
2.04328e-05
-2.2991e-05
-7.75862e-05
-0.000114685
-0.000134535
-9.28903e-05
-7.22239e-05
-3.33266e-05
-6.13997e-06
-1.51558e-06
-1.23014e-05
-1.10359e-05
-8.2526e-06
1.53737e-06
-4.77455e-06
-2.45291e-05
-4.80956e-05
-6.55951e-05
-6.79224e-05
-8.2936e-05
-9.1555e-05
-9.44436e-05
-8.53554e-05
-7.50359e-05
-7.68756e-05
-8.79606e-05
-9.66786e-05
-9.18005e-05
-8.44843e-05
-7.96019e-05
-6.74227e-05
-4.88161e-05
-2.98416e-05
-2.02291e-05
-2.26384e-05
-4.04955e-05
-5.66003e-05
-5.63471e-05
-3.93814e-05
-1.45393e-05
-4.18489e-06
-2.22045e-05
-6.27863e-05
-0.000104959
-0.000120152
-0.000105563
-8.54923e-05
-5.98792e-05
-3.49483e-05
-2.22882e-05
-1.89913e-05
-1.87786e-05
-1.63486e-05
-2.37905e-06
-1.07238e-05
-3.45013e-05
-6.47906e-05
-8.95653e-05
-0.000116638
-0.000120016
-0.000128689
-0.00012137
-9.91828e-05
-7.92496e-05
-7.47543e-05
-8.09274e-05
-8.15357e-05
-7.27838e-05
-6.75237e-05
-6.81959e-05
-5.14286e-05
-1.47743e-05
1.20716e-05
1.8062e-05
1.833e-06
-3.49686e-05
-7.7881e-05
-9.34987e-05
-8.24227e-05
-6.5665e-05
-3.7684e-05
-2.92329e-05
-4.48018e-05
-7.4916e-05
-9.80904e-05
-9.9805e-05
9.89203e-05
8.2727e-05
5.77867e-05
4.60097e-05
3.94745e-05
2.33232e-05
-1.3245e-05
-5.77113e-05
-0.000104163
-0.000143049
-0.000161491
-0.000155003
-0.000139173
-0.000138743
-0.000157256
-0.000164229
-0.000134445
-8.3048e-05
-4.06146e-05
-1.99877e-05
-2.19655e-05
-3.15282e-05
-3.18786e-05
-4.355e-05
-8.29789e-05
-0.000133977
-0.000180449
-0.000203983
-0.000164897
-6.36556e-05
2.5666e-05
7.45475e-05
0.000110977
0.000140292
0.000140327
0.000126433
0.000126091
0.000136034
0.000125789
0.00010413
9.8808e-05
8.37888e-05
5.91378e-05
4.82306e-05
4.24339e-05
2.6733e-05
-9.96732e-06
-5.49185e-05
-0.000102198
-0.000142069
-0.000160862
-0.00015524
-0.000139413
-0.000138756
-0.000157348
-0.000164809
-0.000135408
-8.39733e-05
-4.1437e-05
-2.07577e-05
-2.27177e-05
-3.23123e-05
-3.24812e-05
-4.38079e-05
-8.28787e-05
-0.000133761
-0.000180292
-0.000204474
-0.000166598
-6.60564e-05
2.31516e-05
7.19289e-05
0.000108047
0.000137356
0.000137062
0.000122384
0.000121658
0.000132273
0.000123359
0.000102694
0.000100385
8.65555e-05
6.182e-05
5.11005e-05
4.53296e-05
2.94198e-05
-8.15171e-06
-5.40275e-05
-0.000102193
-0.000142417
-0.000161733
-0.000156512
-0.000140182
-0.00013903
-0.000158026
-0.000166417
-0.00013734
-8.54261e-05
-4.24089e-05
-2.14884e-05
-2.33806e-05
-3.30362e-05
-3.27877e-05
-4.36297e-05
-8.25485e-05
-0.000133722
-0.000180637
-0.000205776
-0.00016934
-6.87714e-05
2.20476e-05
6.9595e-05
0.000105483
0.000135401
0.000135142
0.000119187
0.000116808
0.000127405
0.000120321
0.000101562
0.000103219
9.14469e-05
6.6535e-05
5.48808e-05
4.79244e-05
3.05588e-05
-9.07784e-06
-5.64513e-05
-0.000105379
-0.000145314
-0.000164529
-0.000159054
-0.000141657
-0.000139793
-0.000159613
-0.000169426
-0.000140735
-8.787e-05
-4.38904e-05
-2.23874e-05
-2.40874e-05
-3.38286e-05
-3.37349e-05
-4.34865e-05
-8.20361e-05
-0.000134038
-0.00018197
-0.000208064
-0.000173063
-7.13513e-05
2.1797e-05
6.83964e-05
0.000104042
0.000135066
0.000135213
0.000117922
0.000112809
0.000122119
0.00011651
0.000100343
0.000106275
9.86704e-05
7.39149e-05
6.00387e-05
5.09088e-05
2.99506e-05
-1.32228e-05
-6.27367e-05
-0.000111845
-0.000150787
-0.000169023
-0.000162695
-0.000143762
-0.000140985
-0.000161897
-0.000173752
-0.00014544
-9.16289e-05
-4.6626e-05
-2.42075e-05
-2.54354e-05
-3.52408e-05
-3.47985e-05
-4.30407e-05
-8.16122e-05
-0.000134997
-0.000184329
-0.000211824
-0.00017877
-7.50857e-05
2.18986e-05
6.85293e-05
0.000103855
0.00013601
0.000136771
0.000118897
0.000111004
0.000117415
0.000111708
9.79606e-05
0.000108261
0.000107929
8.49086e-05
6.79481e-05
5.50143e-05
2.83821e-05
-2.02974e-05
-7.29004e-05
-0.000121634
-0.000158619
-0.000174856
-0.000167125
-0.000146295
-0.000142332
-0.000164147
-0.000177773
-0.000150163
-9.59156e-05
-5.05231e-05
-2.74155e-05
-2.8054e-05
-3.786e-05
-3.66261e-05
-4.28363e-05
-8.15398e-05
-0.000137112
-0.000187996
-0.000218513
-0.000189895
-8.48811e-05
1.80301e-05
6.75343e-05
0.000104222
0.000137254
0.000138179
0.000121097
0.000112066
0.000114659
0.000106635
9.38624e-05
0.000104605
0.000117678
9.9795e-05
8.07828e-05
6.32283e-05
2.85972e-05
-2.88482e-05
-8.62396e-05
-0.000134126
-0.000168477
-0.000181814
-0.000172141
-0.000148916
-0.000143399
-0.000165439
-0.000180275
-0.000153727
-9.95576e-05
-5.40347e-05
-3.06556e-05
-3.15487e-05
-4.187e-05
-3.95467e-05
-4.3058e-05
-8.17e-05
-0.000140345
-0.000193777
-0.000229646
-0.00021016
-0.000108149
1.08578e-06
5.63744e-05
9.96017e-05
0.000136161
0.000135808
0.000120399
0.000114165
0.000114441
0.000102587
8.84716e-05
0.000100156
0.000123468
0.000116059
9.86421e-05
7.87828e-05
3.54302e-05
-3.4258e-05
-0.000100915
-0.000148184
-0.000179568
-0.000189732
-0.000178375
-0.000152162
-0.000143992
-0.000164924
-0.000179505
-0.00015508
-0.000104777
-6.07777e-05
-3.45865e-05
-3.452e-05
-4.66826e-05
-4.35919e-05
-4.37542e-05
-8.20388e-05
-0.000144846
-0.000201841
-0.000242405
-0.000236864
-0.000143598
-3.0101e-05
2.93173e-05