/*--------------------------------*- C++ -*----------------------------------*\
| =========                 |                                                 |
| \\      /  F ield         | OpenFOAM: The Open Source CFD Toolbox           |
|  \\    /   O peration     | Version:  2306                                  |
|   \\  /    A nd           | Website:  www.openfoam.com                      |
|    \\/     M anipulation  |                                                 |
\*---------------------------------------------------------------------------*/
FoamFile
{
    version     2.0;
    format      ascii;
    arch        "LSB;label=32;scalar=64";
    class       surfaceScalarField;
    location    "8";
    object      phi;
}
// * * * * * * * * * * * * * * * * * * * * * * * * * * * * * * * * * * * * * //

dimensions      [0 3 -1 0 0 0 0];

oriented        oriented;

internalField   nonuniform List<scalar> 
175300
(
4.46501e-06
4.82267e-07
-6.57646e-07
4.76777e-06
4.61478e-07
-3.99412e-07
5.14399e-06
3.38701e-07
-4.46524e-08
5.54049e-06
3.51167e-07
2.99005e-07
5.80931e-06
5.35457e-07
7.24756e-07
5.82795e-06
7.89888e-07
1.20628e-06
5.62689e-06
9.06778e-07
1.66774e-06
5.36146e-06
7.81914e-07
1.98681e-06
5.15036e-06
5.53354e-07
2.02856e-06
5.00208e-06
3.71464e-07
1.81683e-06
4.8826e-06
2.54732e-07
1.50673e-06
4.7451e-06
1.63677e-07
1.27012e-06
4.55398e-06
5.54617e-08
1.19584e-06
4.27992e-06
-4.08858e-08
1.24472e-06
3.92842e-06
-9.60709e-08
1.31781e-06
3.60307e-06
-1.76709e-07
1.34228e-06
3.42305e-06
-2.98702e-07
1.28098e-06
3.40261e-06
-4.05809e-07
1.11675e-06
3.47902e-06
-4.72622e-07
8.67925e-07
3.58327e-06
-5.06848e-07
6.06311e-07
3.70276e-06
-4.84159e-07
3.66097e-07
3.87517e-06
-3.43562e-07
9.85491e-08
4.0913e-06
-1.33375e-07
-1.47698e-07
4.30998e-06
1.53182e-07
-3.56908e-07
4.50486e-06
3.28582e-07
-3.98282e-07
4.67526e-06
2.75608e-07
-3.24847e-07
4.82522e-06
-5.89537e-08
-2.46815e-07
5.00479e-06
-5.99881e-07
-3.40734e-07
5.22695e-06
-1.00573e-06
-7.10521e-07
5.38336e-06
-9.4923e-07
-1.21457e-06
5.34315e-06
-5.06331e-07
-1.59174e-06
5.10171e-06
-5.96134e-09
-1.83402e-06
4.72749e-06
3.6686e-07
-2.06819e-06
4.30146e-06
4.82595e-07
-2.1588e-06
3.94392e-06
2.843e-07
-2.02299e-06
3.75268e-06
-1.23543e-08
-1.83795e-06
3.7516e-06
-1.47624e-07
-1.71554e-06
3.89377e-06
-7.96073e-08
-1.55316e-06
4.07608e-06
1.39748e-07
-1.27537e-06
3.71612e-07
-9.42949e-07
1.48006e-05
1.40296e-06
-1.82404e-06
1.59305e-05
1.18651e-06
-9.98291e-07
1.72242e-05
7.58056e-07
4.49611e-08
1.84982e-05
8.64788e-07
1.16022e-06
1.93885e-05
1.48541e-06
2.5372e-06
1.9559e-05
2.27387e-06
4.02007e-06
1.90142e-05
2.64534e-06
5.33294e-06
1.81571e-05
2.32904e-06
6.10429e-06
1.74057e-05
1.6762e-06
6.07224e-06
1.68907e-05
1.09547e-06
5.37932e-06
1.65202e-05
7.03491e-07
4.46526e-06
1.61055e-05
4.14319e-07
3.77923e-06
1.54803e-05
1.1816e-07
3.52117e-06
1.45642e-05
-1.39245e-07
3.59291e-06
1.34546e-05
-3.61321e-07
3.7788e-06
1.24573e-05
-7.36963e-07
3.88801e-06
1.18428e-05
-1.26315e-06
3.77163e-06
1.16447e-05
-1.70122e-06
3.34679e-06
1.17234e-05
-1.89854e-06
2.6598e-06
1.19304e-05
-1.86435e-06
1.8883e-06
1.22457e-05
-1.60217e-06
1.12935e-06
1.27313e-05
-1.03071e-06
3.33452e-07
1.33486e-05
-2.49248e-07
-3.73414e-07
1.40246e-05
5.93257e-07
-8.71235e-07
1.47359e-05
8.84338e-07
-9.29598e-07
1.54976e-05
3.10883e-07
-7.12788e-07
1.63159e-05
-1.15304e-06
-5.46537e-07
1.72098e-05
-3.08895e-06
-8.85523e-07
1.80334e-05
-4.25226e-06
-1.93314e-06
1.84118e-05
-3.70721e-06
-3.28624e-06
1.80983e-05
-1.9152e-06
-4.38694e-06
1.72163e-05
-7.2922e-08
-5.16714e-06
1.60526e-05
1.11437e-06
-5.71558e-06
1.48439e-05
1.29593e-06
-5.77642e-06
1.37809e-05
5.61664e-07
-5.41944e-06
1.30228e-05
-2.87549e-07
-5.09996e-06
1.27118e-05
-5.78592e-07
-4.89293e-06
1.28636e-05
-2.67715e-07
-4.44524e-06
1.33081e-05
4.71323e-07
-3.62682e-06
1.1827e-06
-2.67479e-06
2.7097e-05
2.25366e-06
-3.49292e-06
2.9265e-05
1.55051e-06
-2.14281e-06
3.17263e-05
4.99265e-07
-3.78651e-07
3.418e-05
6.59163e-07
1.59321e-06
3.60851e-05
1.88562e-06
4.05342e-06
3.6821e-05
3.45368e-06
6.69937e-06
3.61622e-05
4.32935e-06
9.01872e-06
3.4631e-05
4.0365e-06
1.04007e-05
3.30745e-05
3.05978e-06
1.04501e-05
3.19706e-05
2.01537e-06
9.37798e-06
3.12618e-05
1.21137e-06
7.88512e-06
3.05799e-05
6.25861e-07
6.68143e-06
2.95621e-05
1.07129e-07
6.07388e-06
2.80337e-05
-3.12591e-07
5.96188e-06
2.61324e-05
-7.29451e-07
6.12991e-06
2.42921e-05
-1.50279e-06
6.35228e-06
2.29275e-05
-2.60823e-06
6.33337e-06
2.21886e-05
-3.57735e-06
5.82401e-06
2.19771e-05
-4.05011e-06
4.84082e-06
2.21147e-05
-3.96783e-06
3.64094e-06
2.25474e-05
-3.36894e-06
2.39603e-06
2.33142e-05
-2.1283e-06
1.07635e-06
2.43443e-05
-4.2151e-07
-1.65892e-07
2.55603e-05
1.13843e-06
-9.77859e-07
2.69642e-05
1.33048e-06
-1.03375e-06
2.85749e-05
-3.87733e-07
-5.50397e-07
3.03732e-05
-3.91262e-06
-1.05314e-07
3.23179e-05
-8.1961e-06
-4.51775e-07
3.40553e-05
-1.05486e-05
-2.03469e-06
3.48744e-05
-9.06978e-06
-4.33006e-06
3.43808e-05
-4.92353e-06
-6.41331e-06
3.28731e-05
-7.71077e-07
-7.97392e-06
3.09277e-05
1.79276e-06
-8.93486e-06
2.89366e-05
2.12292e-06
-8.97669e-06
2.70502e-05
6.62765e-07
-8.41349e-06
2.53733e-05
-8.92645e-07
-8.04264e-06
2.42072e-05
-1.32459e-06
-7.95808e-06
2.38756e-05
-6.68778e-07
-7.51052e-06
2.43448e-05
7.17888e-07
-6.3607e-06
2.01177e-06
-4.87527e-06
4.09233e-05
2.52399e-06
-6.35095e-06
4.42266e-05
8.89727e-07
-4.69132e-06
4.80936e-05
-1.41212e-06
-2.4914e-06
5.21258e-05
-1.73142e-06
5.97699e-07
5.56598e-05
2.64307e-07
4.17502e-06
5.7726e-05
3.00222e-06
8.2375e-06
5.75751e-05
4.87272e-06
1.19693e-05
5.55211e-05
5.16252e-06
1.44456e-05
5.287e-05
4.33639e-06
1.50304e-05
5.08055e-05
3.00712e-06
1.38864e-05
4.95731e-05
1.70791e-06
1.19465e-05
4.86525e-05
7.0676e-07
1.02159e-05
4.74045e-05
-7.5456e-08
9.10699e-06
4.54665e-05
-6.14925e-07
8.51594e-06
4.28961e-05
-1.12002e-06
8.34729e-06
4.01015e-05
-2.16445e-06
8.55055e-06
3.75538e-05
-3.76095e-06
8.77057e-06
3.56303e-05
-5.33209e-06
8.47286e-06
3.45235e-05
-6.38265e-06
7.4899e-06
3.41838e-05
-6.62942e-06
6.10222e-06
3.45124e-05
-5.91578e-06
4.5438e-06
3.54553e-05
-3.91804e-06
2.77231e-06
3.687e-05
-9.46277e-07
9.52151e-07
3.86693e-05
1.54258e-06
-2.46076e-07
4.08778e-05
1.42583e-06
-2.39669e-07
4.34759e-05
-2.03198e-06
6.89509e-07
4.63698e-05
-8.68451e-06
1.96562e-06
4.95692e-05
-1.6615e-05
2.1896e-06
5.26752e-05
-2.10907e-05
3.58572e-07
5.45583e-05
-1.85603e-05
-3.08561e-06
5.44285e-05
-1.09731e-05
-6.70289e-06
5.26428e-05
-3.1921e-06
-9.65303e-06
5.01081e-05
1.76167e-06
-1.15195e-05
4.74446e-05
2.73988e-06
-1.17695e-05
4.47472e-05
6.02385e-07
-1.09367e-05
4.18978e-05
-1.75636e-06
-1.03969e-05
3.91969e-05
-2.32924e-06
-1.0558e-05
3.74832e-05
-1.34521e-06
-1.05547e-05
3.72882e-05
5.7826e-07
-9.61894e-06
2.37237e-06
-8.00093e-06
5.5605e-05
1.87274e-06
-1.07828e-05
5.96914e-05
-1.29386e-06
-9.4264e-06
6.49068e-05
-5.92242e-06
-7.25947e-06
7.08023e-05
-8.10286e-06
-3.5663e-06
7.66987e-05
-5.91027e-06
1.38313e-06
8.12781e-05
-1.24463e-06
7.04509e-06
8.29275e-05
2.56936e-06
1.28813e-05
8.11469e-05
4.50507e-06
1.73197e-05
7.73923e-05
4.81846e-06
1.9275e-05
7.39074e-05
3.80942e-06
1.86429e-05
7.17932e-05
2.13018e-06
1.6541e-05
7.05917e-05
5.94925e-07
1.44458e-05
6.93261e-05
-5.49858e-07
1.29324e-05
6.73269e-05
-1.19076e-06
1.17132e-05
6.445e-05
-1.58764e-06
1.07491e-05
6.08977e-05
-2.55381e-06
1.04651e-05
5.69384e-05
-4.21599e-06
1.08134e-05
5.30676e-05
-6.08877e-06
1.09889e-05
5.00358e-05
-7.89642e-06
1.03919e-05
4.83346e-05
-9.19049e-06
9.18959e-06
4.80049e-05
-9.1355e-06
7.66904e-06
4.88385e-05
-6.66681e-06
5.69364e-06
5.04927e-05
-2.13491e-06
3.34669e-06
5.27835e-05
1.71428e-06
1.67264e-06
5.57176e-05
1.37934e-06
1.70732e-06
5.91186e-05
-4.4038e-06
3.56209e-06
6.26655e-05
-1.52472e-05
6.44389e-06
6.66636e-05
-2.81612e-05
8.24441e-06
7.14362e-05
-3.68245e-05
6.92558e-06
7.56304e-05
-3.44329e-05
2.48458e-06
7.73358e-05
-2.25045e-05
-3.58333e-06
7.63677e-05
-9.26164e-06
-9.11576e-06
7.38819e-05
-1.47006e-07
-1.30021e-05
7.08805e-05
2.70734e-06
-1.41321e-05
6.7594e-05
4.02107e-07
-1.30603e-05
6.3673e-05
-2.68863e-06
-1.20463e-05
5.90905e-05
-3.35969e-06
-1.22733e-05
5.49756e-05
-2.05804e-06
-1.29452e-05
5.28045e-05
1.38704e-07
-1.28932e-05
2.10684e-06
-1.19698e-05
7.15201e-05
8.21858e-07
-1.58283e-05
7.49079e-05
-4.65153e-06
-1.58927e-05
8.02306e-05
-1.31311e-05
-1.48835e-05
8.71483e-05
-1.9115e-05
-1.18923e-05
9.54261e-05
-1.88521e-05
-6.61582e-06
0.000103951
-1.33127e-05
7.43926e-07
0.00010982
-5.84445e-06
9.22085e-06
0.000110459
-2.42965e-07
1.70898e-05
0.000106561
3.07196e-06
2.19355e-05
0.000101475
3.70259e-06
2.29427e-05
9.7994e-05
2.23408e-06
2.11743e-05
9.63258e-05
1.99998e-07
1.896e-05
9.51942e-05
-1.45894e-06
1.74999e-05
9.34989e-05
-2.29328e-06
1.60717e-05
9.08518e-05
-2.41804e-06
1.41051e-05
8.72025e-05
-2.86832e-06
1.25634e-05
8.22998e-05
-3.95957e-06
1.24067e-05
7.62249e-05
-5.38603e-06
1.29942e-05
7.01193e-05
-7.47951e-06
1.30997e-05
6.55145e-05
-1.02636e-05
1.24579e-05
6.32592e-05
-1.20952e-05
1.13825e-05
6.32364e-05
-1.01282e-05
9.62466e-06
6.47212e-05
-4.05287e-06
7.00802e-06
6.71932e-05
1.70843e-06
4.94076e-06
7.05571e-05
1.4824e-06
5.12826e-06
7.44314e-05
-6.93818e-06
8.08626e-06
7.78404e-05
-2.24292e-05
1.27765e-05
8.08606e-05
-4.09699e-05
1.6694e-05
8.56866e-05
-5.55261e-05
1.72539e-05
9.29507e-05
-5.66887e-05
1.3194e-05
9.93834e-05
-4.26958e-05
5.4271e-06
0.000102086
-2.22597e-05
-4.29095e-06
0.000101423
-6.12633e-06
-1.21756e-05
9.89769e-05
9.42551e-07
-1.5712e-05
9.55652e-05
-1.86335e-07
-1.49587e-05
9.10334e-05
-3.5198e-06
-1.32071e-05
8.49649e-05
-4.1006e-06
-1.30142e-05
7.81993e-05
-2.32634e-06
-1.40719e-05
7.28718e-05
4.43402e-08
-1.50708e-05
1.85827e-06
-1.555e-05
9.24852e-05
6.62567e-07
-1.90906e-05
9.31149e-05
-7.2158e-06
-2.12412e-05
9.5771e-05
-2.03967e-05
-2.27167e-05
0.000100517
-3.17456e-05
-2.21164e-05
0.000107735
-3.54023e-05
-1.88207e-05
0.000118456
-3.19755e-05
-1.24234e-05
0.000130862
-2.43079e-05
-2.13476e-06
0.000138696
-1.38203e-05
1.00706e-05
0.000138162
-4.18115e-06
2.03774e-05
0.00013259
8.82637e-07
2.53581e-05
0.00012753
1.14256e-06
2.50596e-05
0.000125179
-8.38849e-07
2.28196e-05
0.00012429
-3.00317e-06
2.17772e-05
0.000123129
-4.19787e-06
2.12824e-05
0.000121129
-4.03663e-06
1.91345e-05
0.000118289
-3.64012e-06
1.58693e-05
0.000113811
-3.62745e-06
1.40676e-05
0.000106619
-3.78315e-06
1.43796e-05
9.72871e-05
-5.02805e-06
1.52234e-05
8.81891e-05
-8.56973e-06
1.54246e-05
8.18472e-05
-1.2972e-05
1.50521e-05
7.92956e-05
-1.30393e-05
1.38821e-05
7.97122e-05
-6.19495e-06
1.13325e-05
8.19342e-05
1.79202e-06
8.95936e-06
8.55582e-05
2.2372e-06
9.18446e-06
9.01875e-05
-8.61084e-06
1.27341e-05
9.42113e-05
-2.82902e-05
1.80481e-05
9.59205e-05
-5.07234e-05
2.26985e-05
9.7219e-05
-7.00628e-05
2.55183e-05
0.000103036
-7.79917e-05
2.51458e-05
0.000113886
-6.78325e-05
1.91403e-05
0.000124152
-4.43571e-05
7.15381e-06
0.000129465
-1.9569e-05
-6.67374e-06
0.000129926
-4.7304e-06
-1.52108e-05
0.00012729
-1.96028e-06
-1.64449e-05
0.000122694
-4.19641e-06
-1.42632e-05
0.000116099
-4.32136e-06
-1.3123e-05
0.000107733
-1.88885e-06
-1.38871e-05
9.96525e-05
7.87896e-07
-1.54109e-05
2.44944e-06
-1.71186e-05
0.000122421
2.21307e-06
-1.90093e-05
0.000120496
-6.5846e-06
-2.26167e-05
0.000118317
-2.2974e-05
-2.6827e-05
0.000117369
-3.98807e-05
-3.02938e-05
0.000119327
-4.86841e-05
-3.08304e-05
0.000126153
-4.90642e-05
-2.73693e-05
0.000140074
-4.5556e-05
-1.89552e-05
0.000156655
-3.6314e-05
-5.40528e-06
0.000165439
-2.13952e-05
1.12112e-05
0.000163421
-8.11518e-06
2.33262e-05
0.000157845
-3.22139e-06
2.71019e-05
0.000155051
-3.7919e-06
2.51387e-05
0.000154977
-5.88039e-06
2.38745e-05
0.000154707
-7.19265e-06
2.51296e-05
0.000153288
-6.6594e-06
2.49167e-05
0.000151682
-5.34252e-06
2.10399e-05
0.000149363
-4.18807e-06
1.67476e-05
0.00014373
-2.85827e-06
1.54918e-05
0.000133292
-2.27836e-06
1.66108e-05
0.00011981
-4.75352e-06
1.783e-05
0.000107329
-1.05014e-05
1.83029e-05
9.95248e-05
-1.33931e-05
1.7886e-05
9.70912e-05
-7.41787e-06
1.57247e-05
9.84419e-05
2.26793e-06
1.30484e-05
0.000102299
4.09573e-06
1.28158e-05
0.000108047
-8.08556e-06
1.60374e-05
0.000114249
-3.0772e-05
2.04026e-05
0.000117817
-5.50807e-05
2.35738e-05
0.000116699
-7.48599e-05
2.66916e-05
0.00011574
-8.70549e-05
3.11262e-05
0.000122857
-8.5852e-05
3.19281e-05
0.000137615
-6.79154e-05
2.27988e-05
0.00015193
-4.04153e-05
5.60685e-06
0.000159482
-1.65711e-05
-1.02523e-05
0.000159666
-6.13165e-06
-1.63319e-05
0.000155504
-4.60563e-06
-1.52496e-05
0.000149224
-3.78351e-06
-1.30154e-05
0.000141047
-9.74093e-07
-1.25968e-05
0.000132197
2.1981e-06
-1.38117e-05
4.05502e-06
-1.60378e-05
0.000158188
4.42101e-06
-1.49225e-05
0.000157524
-2.80869e-06
-1.90043e-05
0.000152389
-1.84354e-05
-2.49198e-05
0.000144268
-3.82991e-05
-3.28625e-05
0.000138576
-5.2952e-05
-3.96734e-05
0.000138479
-5.79219e-05
-4.11696e-05
0.000146959
-5.94391e-05
-3.54731e-05
0.000165012
-5.7643e-05
-2.28678e-05
0.000183265
-4.50788e-05
-4.5252e-06
0.000189231
-2.51282e-05
1.53821e-05
0.000184739
-1.1898e-05
2.60683e-05
0.000181267
-9.65761e-06
2.57537e-05
0.000183303
-1.19259e-05
2.26809e-05
0.000185821
-1.25579e-05
2.42771e-05
0.000184876
-9.90422e-06
2.73307e-05
0.000183201
-6.84104e-06
2.55748e-05
0.000183618
-5.56182e-06
1.99628e-05
0.000183074
-4.44175e-06
1.6378e-05
0.000176332
-2.51719e-06
1.70161e-05
0.000162026
-2.32497e-06
1.938e-05
0.000143769
-6.13965e-06
2.09204e-05
0.000128118
-9.8251e-06
2.12762e-05
0.000119739
-5.83055e-06
1.99032e-05
0.000118455
3.68154e-06
1.73886e-05
0.000122067
6.41311e-06
1.64739e-05
0.000128781
-6.04914e-06
1.82338e-05
0.000136989
-3.00679e-05
2.03302e-05
0.000143954
-5.47879e-05
2.09407e-05
0.000145338
-7.23057e-05
2.26437e-05
0.000140483
-8.25652e-05
2.96781e-05
0.000138456
-8.7433e-05
3.84018e-05
0.000148617
-8.19939e-05
3.69033e-05
0.00016786
-6.22057e-05
2.09802e-05
0.000183838
-3.44279e-05
3.14896e-07
0.000187047
-1.18981e-05
-1.2834e-05
0.000179865
-1.09781e-06
-1.54275e-05
0.000171743
2.10756e-07
-1.28828e-05
0.000166496
-6.08818e-07
-1.02364e-05
0.000162161
1.42698e-06
-9.837e-06
4.71101e-06
-1.17205e-05
0.0001867
2.87541e-06
-4.78265e-06
0.000193991
-1.22076e-06
-8.72761e-06
0.000193197
-1.05323e-05
-1.59068e-05
0.000181766
-2.69245e-05
-2.7647e-05
0.000168061
-4.53213e-05
-4.16817e-05
0.000160613
-5.66455e-05
-5.17149e-05
0.000161969
-6.23241e-05
-5.15545e-05
0.000173862
-6.7538e-05
-4.08602e-05
0.000194609
-6.56751e-05
-2.20583e-05
0.000211315
-4.91652e-05
1.86296e-06
0.000212866
-2.67115e-05
2.07588e-05
0.000206238
-1.64335e-05
2.5484e-05
0.000205942
-1.94016e-05
2.07274e-05
0.000212789
-2.27138e-05
1.91309e-05
0.0002156
-1.62165e-05
2.31566e-05
0.000211263
-5.4888e-06
2.46732e-05
0.000208718
-2.00585e-06
2.02082e-05
0.000212895
-6.13974e-06
1.51309e-05
0.000216626
-9.226e-06
1.50282e-05
0.000210214
-7.84749e-06
1.89243e-05
0.000191898
-5.52781e-06
2.21906e-05
0.000168955
-3.86757e-06
2.33922e-05
0.000151486
7.41696e-07
2.31519e-05
0.000144382
7.72629e-06
2.20126e-05
0.000146395
7.83881e-06
2.11483e-05
0.00015411
-6.77959e-06
2.06118e-05
0.00016431
-3.16956e-05
1.8502e-05
0.000173868
-5.4303e-05
1.43705e-05
0.000178563
-6.69604e-05
1.32771e-05
0.000174733
-7.11061e-05
2.18821e-05
0.000166316
-7.48378e-05
3.72788e-05
0.000166495
-8.01379e-05
4.46823e-05
0.000181934
-7.61167e-05
3.32007e-05
0.000200884
-5.35507e-05
1.12001e-05
0.000205984
-1.92134e-05
-7.45167e-06
0.000194714
6.13809e-06
-1.4835e-05
0.000180767
1.12433e-05
-1.3329e-05
0.000174632
4.21904e-06
-7.86848e-06
0.000175376
1.64075e-07
-3.69502e-06
1.91635e-06
-2.93633e-06
0.000200153
1.25276e-06
9.61281e-06
0.000216082
-3.65538e-06
9.23967e-06
0.000227855
-8.22804e-06
2.21341e-06
0.000223253
-1.29425e-05
-1.42453e-05
0.00020599
-2.72192e-05
-3.48018e-05
0.000190744
-4.44522e-05
-5.41884e-05
0.000186138
-5.66938e-05
-6.41381e-05
0.000191562
-6.59412e-05
-5.92366e-05
0.000206282
-7.30854e-05
-4.22273e-05
0.000227318
-7.00122e-05
-1.70601e-05
0.000242057
-5.16908e-05
8.66169e-06
0.000240795
-2.97775e-05
2.23481e-05
0.000232509
-2.35407e-05
2.0614e-05
0.000232985
-2.93571e-05
1.47362e-05
0.000240974
-2.69482e-05
1.5227e-05
0.00024281
-9.77911e-06
1.88552e-05
0.000236709
4.24806e-06
1.8343e-05
0.000234421
3.83667e-07
1.39023e-05
0.000242113
-1.4745e-05
1.19622e-05
0.000250088
-2.39625e-05
1.61024e-05
0.000243801
-1.802e-05
2.13367e-05
0.000221526
-2.8636e-06
2.33125e-05
0.000195979
1.10021e-05
2.3905e-05
0.000180155
1.71131e-05
2.56005e-05
0.0001775
1.05753e-05
2.71256e-05
0.000184364
-1.04463e-05
2.50928e-05
0.000195992
-3.85153e-05
1.73263e-05
0.000208463
-5.90257e-05
5.57158e-06
0.000216444
-6.42338e-05
-1.95643e-06
0.000214572
-5.93036e-05
6.54491e-06
0.000203202
-5.59482e-05
2.85629e-05
0.000193506
-6.4313e-05
4.61173e-05
0.00019884
-7.58402e-05
4.18521e-05
0.000214462
-6.60929e-05
2.02236e-05
0.000221422
-2.75241e-05
-1.47432e-06
0.000211942
1.09192e-05
-1.32656e-05
0.00019663
2.34203e-05
-1.48724e-05
0.000187589
1.3407e-05
-8.71054e-06
0.000186557
3.66823e-06
-1.52521e-07
2.26233e-06
6.09747e-06
0.000213257
4.37659e-06
1.32112e-05
0.000228111
-6.63147e-06
2.11933e-05
0.00024999
-1.17996e-05
2.02182e-05
0.000259955
-6.50305e-06
5.67253e-06
0.000249207
-6.38656e-06
-2.12951e-05
0.000229501
-2.28705e-05
-4.76437e-05
0.000217537
-4.2732e-05
-6.76346e-05
0.000218353
-5.72828e-05
-7.35707e-05
0.000227713
-6.87602e-05
-6.29942e-05
0.000243772
-7.79551e-05
-3.94475e-05
0.000263762
-7.45483e-05
-1.04904e-05
0.000274975
-5.45188e-05
1.32062e-05
0.000269662
-3.27967e-05
1.8938e-05
0.000259475
-2.77168e-05
1.24984e-05
0.000260058
-2.97321e-05
8.59793e-06
0.000268621
-1.95436e-05
1.23227e-05
0.000271812
-9.51097e-07
1.67959e-05
0.000267123
5.9516e-06
1.56999e-05
0.000265232
-8.9786e-06
1.17773e-05
0.000274095
-3.42865e-05
1.29642e-05
0.000283302
-4.134e-05
1.85865e-05
0.000275426
-1.76776e-05
2.12141e-05
0.000251776
1.43716e-05
2.1807e-05
0.000229669
2.78248e-05
2.67796e-05
0.000219206
1.84978e-05
3.28668e-05
0.000219321
-7.29036e-06
3.02484e-05
0.000226935
-3.98361e-05
1.61442e-05
0.000241086
-6.53996e-05
-1.93183e-06
0.000254978
-7.01137e-05
-1.45666e-05
0.00025773
-5.46266e-05
-1.1836e-05
0.000246116
-4.01796e-05
1.33588e-05
0.000229233
-4.17423e-05
4.1459e-05
0.000222648
-6.08269e-05
4.80405e-05
0.000229829
-6.5557e-05
2.98684e-05
0.000236984
-3.37468e-05
6.77188e-06
0.00023437
1.04503e-05
-9.67678e-06
0.000225393
2.9771e-05
-1.69968e-05
0.000217257
2.25075e-05
-1.52666e-05
0.000212181
1.15525e-05
-6.22695e-06
9.08479e-06
3.57837e-06
0.000239913
1.28724e-05
2.84498e-07
0.000247435
-5.57162e-06
1.25856e-05
0.000269481
-1.8367e-05
2.22774e-05
0.000290859
-8.46636e-06
1.62832e-05
0.000292943
6.58059e-06
-7.86422e-06
0.000276487
-2.78821e-07
-3.70054e-05
0.000258195
-2.25916e-05
-6.25168e-05
0.00025231
-4.28748e-05
-7.8691e-05
0.000258841
-5.81166e-05
-7.89479e-05
0.00027095
-7.40835e-05
-6.19762e-05
0.000286618
-8.5968e-05
-3.23701e-05
0.00030117
-7.76873e-05
-2.50856e-06
0.000303892
-4.97551e-05
1.27427e-05
0.000294348
-2.73683e-05
1.0007e-05
0.000286582
-2.3463e-05
4.28435e-06
0.000290787
-2.23463e-05
7.09567e-06
0.000301041
-1.18518e-05
1.54976e-05
0.000305788
-8.80642e-08
1.94211e-05
0.0003023
-3.59329e-06
1.56458e-05
0.00029981
-2.79726e-05
1.13854e-05
0.000306562
-5.09128e-05
1.30948e-05
0.000313014
-3.95727e-05
1.63221e-05
0.000305441
-1.85374e-06
1.9271e-05
0.000287364
2.46013e-05
2.77199e-05
0.000270724
2.56754e-05
3.73595e-05
0.000260315
8.16029e-06
3.29857e-05
0.000257259
-2.19505e-05
1.2267e-05
0.000266513
-5.73135e-05
-9.7537e-06
0.000286126
-7.64222e-05
-2.34277e-05
0.000298527
-6.30024e-05
-2.31141e-05
0.000291676
-3.54785e-05
-2.23604e-06
0.000271692
-2.39416e-05
3.26203e-05
0.000255325
-3.77398e-05
5.12705e-05
0.000252041
-5.05202e-05
4.0815e-05
0.000255987
-3.00038e-05
1.66362e-05
0.000258808
9.3213e-06
-4.25961e-06
0.000259013
2.96447e-05
-1.78033e-05
0.000256935
2.59612e-05
-2.22077e-05
0.000251566
1.91132e-05
-1.70705e-05
1.88463e-05
-8.44362e-06
0.000286274
2.10108e-05
-1.79266e-05
0.000284842
3.73701e-07
-8.12477e-06
0.000298158
-1.99039e-05
6.5417e-06
0.000322294
-1.53562e-05
1.14047e-05
0.00033704
6.54598e-06
-2.20486e-06
0.000329459
1.38014e-05
-2.79203e-05
0.000308701
-1.57945e-06
-5.4768e-05
0.000294645
-2.24596e-05
-7.71287e-05
0.000296723
-4.1499e-05
-8.73265e-05
0.000308173
-6.27634e-05
-7.97754e-05
0.000320399
-8.5217e-05
-5.47163e-05
0.000331011
-9.04357e-05
-2.18776e-05
0.000335448
-6.57502e-05
1.78434e-06
0.000329917
-3.12774e-05
6.16749e-06
0.000321027
-1.52044e-05
1.02781e-06
0.000319741
-1.60801e-05
2.2029e-06
0.000328303
-1.57462e-05
1.26907e-05
0.000339787
-9.36726e-06
2.33381e-05
0.000345106
-6.69728e-06
2.37147e-05
0.00034078
-1.89942e-05
1.50557e-05
0.000334002
-4.04616e-05
8.64229e-06
0.000332605
-4.54061e-05
1.13812e-05
0.000331063
-2.32061e-05
2.07335e-05
0.000321992
5.42392e-06
3.30922e-05
0.000309735
2.16085e-05
3.94177e-05
0.000300687
2.02135e-05
2.91e-05
0.000295062
7.77956e-07
3.9767e-06
0.000297646
-3.61851e-05
-1.88916e-05
0.000315391
-7.08752e-05
-3.01575e-05
0.000335333
-7.30631e-05
-2.71678e-05
0.000336599
-4.37026e-05
-9.7017e-06
0.00031761
-1.91666e-05
2.38284e-05
0.000295541
-1.88282e-05
5.10711e-05
0.00028387
-2.75055e-05
5.08068e-05
0.000283102
-1.49243e-05
2.92426e-05
0.000287602
1.35175e-05
4.36699e-06
0.000294381
2.83353e-05
-1.52915e-05
0.000300119
2.34119e-05
-2.58506e-05
0.000300223
1.94339e-05
-2.6291e-05
2.3996e-05
-2.23047e-05
0.000342021
1.93093e-05
-3.10553e-05
0.000335282
6.71467e-06
-2.20329e-05
0.000335415
-1.17219e-05
-8.23074e-06
0.000352157
-1.51674e-05
3.14298e-07
0.000374884
1.65296e-06
-5.38388e-06
0.000381186
1.72299e-05
-2.31189e-05
0.000365842
1.4169e-05
-4.66133e-05
0.000347087
7.22752e-07
-7.1408e-05
0.000343101
-1.75397e-05
-8.94329e-05
0.000353425
-4.36525e-05
-9.16091e-05
0.000365693
-7.50206e-05
-7.47973e-05
0.000372792
-9.18943e-05
-4.38823e-05
0.000374128
-7.49749e-05
-1.44103e-05
0.000369147
-3.62262e-05
-1.27004e-06
0.00036076
-9.06863e-06
-1.58724e-06
0.00035666
-4.87788e-06
-1.62195e-06
0.000361472
-1.03807e-05
9.43268e-06
0.000373666
-1.30016e-05
2.50531e-05
0.000384806
-1.27072e-05
3.15147e-05
0.000383982
-1.62345e-05
2.32164e-05
0.000369065
-2.59702e-05
1.12113e-05
0.000350911
-3.2695e-05
9.97668e-06
0.000339441
-2.6112e-05
1.90943e-05
0.000335356
-9.52859e-06
2.7092e-05
0.000337244
7.44534e-06
2.56803e-05
0.000341574
1.77653e-05
1.18996e-05
0.000342061
1.30122e-05
-8.82262e-06
0.000341991
-1.46149e-05
-2.7878e-05
0.000353403
-5.54963e-05
-3.53645e-05
0.000373724
-7.60058e-05
-2.8617e-05
0.000380959
-5.55938e-05
-1.06999e-05
0.000364218
-2.31649e-05
1.9485e-05
0.000338945
-9.67981e-06
4.77995e-05
0.000322983
-8.75426e-06
5.46528e-05
0.000320321
2.49164e-06
3.78223e-05
0.000324248
2.39664e-05
1.37122e-05
0.000329435
3.36804e-05
-7.01845e-06
0.000335159
2.48853e-05
-2.1329e-05
0.000340996
1.51605e-05
-2.90332e-05
1.72214e-05
-3.21229e-05
0.000381764
4.49611e-06
-2.72951e-05
0.000378811
3.11413e-06
-1.73673e-05
0.000371532
-3.01401e-06
-5.87337e-06
0.000376855
-4.39778e-06
-1.22837e-06
0.000399293
4.57188e-06
-6.14304e-06
0.000419552
1.7387e-05
-1.95859e-05
0.00041886
2.40172e-05
-3.92013e-05
0.000404672
2.14742e-05
-6.30635e-05
0.000398785
9.1722e-06
-8.52902e-05
0.000407733
-1.77061e-05
-9.64153e-05
0.000420181
-5.60336e-05
-9.01664e-05
0.000425382
-8.35255e-05
-6.64132e-05
0.000422786
-7.61669e-05
-3.5513e-05
0.000415474
-3.98006e-05
-1.34018e-05
0.000406751
-6.01153e-06
-5.09546e-06
0.000401613
5.29236e-06
-2.08259e-06
0.000403194
4.69837e-07
6.23358e-06
0.000410996
-7.3114e-06
2.03349e-05
0.000419873
-1.30689e-05
3.20548e-05
0.000420955
-1.71406e-05
3.09083e-05
0.000408344
-1.84432e-05
1.80333e-05
0.000387069
-1.58749e-05
6.67473e-06
0.000370167
-1.23256e-05
5.30615e-06
0.000367001
-1.10078e-05
8.48837e-06
0.000376591
-8.55976e-06
8.04388e-06
0.000387754
1.20862e-06
5.10881e-07
0.000389876
1.10191e-05
-1.18821e-05
0.000387478
9.40441e-07
-2.36684e-05
0.000393825
-3.5535e-05
-2.81414e-05
0.000411287
-7.06919e-05
-2.22882e-05
0.000422736
-6.57084e-05
-6.7989e-06
0.000412215
-3.35304e-05
1.89418e-05
0.000388575
-9.55421e-06
4.58683e-05
0.000369913
2.966e-06
5.49151e-05
0.000362098
1.91531e-05
4.07876e-05
0.000359152
3.84574e-05
2.13233e-05
0.000356177
4.34877e-05
8.28969e-06
0.000355745
2.83928e-05
-2.96685e-06
0.000362021
9.03888e-06
-1.64008e-05
1.83028e-06
-2.68849e-05
0.000414769
-1.04795e-05
-1.56164e-05
0.00041739
-5.64803e-06
-1.01728e-05
0.000410589
1.55752e-06
2.33329e-06
0.000407826
1.13246e-05
9.3835e-06
0.000421481
2.0865e-05
3.77335e-06
0.00044613
2.71491e-05
-1.2739e-05
0.00046353
3.06007e-05
-3.10275e-05
0.000466334
3.3197e-05
-4.98396e-05
0.000467346
3.07077e-05
-7.1227e-05
0.000476918
1.0695e-05
-9.0263e-05
0.000488121
-2.85475e-05
-9.72528e-05
0.000489848
-6.36006e-05
-8.47926e-05
0.000481972
-6.55185e-05
-5.79032e-05
0.000469682
-3.49362e-05
-3.10699e-05
0.000457753
-2.3949e-06
-1.36349e-05
0.000451097
1.03883e-05
-3.29231e-06
0.000451036
7.90866e-06
5.58571e-06
0.000453865
1.65812e-06
1.69277e-05
0.000455039
-5.65595e-06
2.90937e-05
0.000451425
-1.25061e-05
3.22225e-05
0.000441981
-1.28816e-05
2.09298e-05
0.00042957
-5.08585e-06
3.85481e-06
0.000421215
-2.81706e-07
-5.86523e-06
0.00042236
-8.96112e-06
-4.15405e-06
0.000430907
-2.20629e-05
2.2794e-06
0.000436752
-1.83938e-05
4.27843e-06
0.000433198
1.53253e-06
-1.2164e-06
0.000427622
1.00023e-05
-8.53617e-06
0.000431156
-1.44356e-05
-1.27544e-05
0.000446396
-5.48047e-05
-1.02687e-05
0.000462128
-6.92719e-05
1.52954e-06
0.000462713
-4.64185e-05
2.13538e-05
0.000446702
-1.33534e-05
4.31764e-05
0.000425378
1.23327e-05
5.28068e-05
0.000407231
3.32215e-05
4.40443e-05
0.00039282
5.09705e-05
2.78368e-05
0.000382917
5.36781e-05
1.69992e-05
0.000380554
3.50299e-05
1.13481e-05
0.000387141
8.1911e-06
3.47964e-06
-8.9219e-06
-8.76288e-06
0.00045236
-4.98501e-06
3.89928e-06
0.000455333
-1.13316e-06
2.58521e-06
0.000450388
1.01105e-05
9.64833e-06
0.000446678
2.68604e-05
1.6864e-05
0.000453917
4.14695e-05
1.67628e-05
0.000472623
4.50393e-05
7.04097e-06
0.000494672
3.86128e-05
-1.02829e-05
0.00051397
3.16656e-05
-2.85106e-05
0.000532796
2.97123e-05
-4.8259e-05
0.00055227
2.17191e-05
-6.99611e-05
0.000564973
-4.3024e-06
-8.82377e-05
0.000563298
-3.56959e-05
-9.14652e-05
0.000549786
-4.46137e-05
-7.39042e-05
0.000532329
-2.41784e-05
-4.58676e-05
0.000516196
1.68005e-06
-2.26498e-05
0.000504784
1.33936e-05
-8.44442e-06
0.000498818
1.34627e-05
2.27074e-06
0.000495697
1.02258e-05
1.40577e-05
0.000491511
4.39292e-06
2.60171e-05
0.000484477
-2.15398e-06
2.9859e-05
0.000477305
-2.55246e-06
1.80894e-05
0.000476704
3.64094e-06
-2.43265e-06
0.000485003
5.12471e-06
-1.45834e-05
0.000495783
-1.08433e-05
-8.62102e-06
0.000498035
-3.23461e-05
6.76835e-06
0.00048845
-3.4235e-05
1.6382e-05
0.000475275
-1.0087e-05
1.72262e-05
0.000470151
1.17026e-05
1.68776e-05
0.000477388
4.8509e-06
1.41222e-05
0.000493144
-2.94374e-05
6.6976e-06
0.000509373
-5.73465e-05
5.87086e-06
0.000515126
-4.99751e-05
2.00144e-05
0.000504387
-1.53061e-05
4.08006e-05
0.000481659
2.03415e-05
4.89563e-05
0.000454544
4.49004e-05
3.85918e-05
0.000431058
5.85951e-05
2.54094e-05
0.000418476
5.88433e-05
2.36928e-05
0.000418488
4.38981e-05
2.80877e-05
0.000427748
2.09111e-05
2.51931e-05
2.0521e-06
1.36338e-05
0.000501976
1.61195e-05
1.31281e-05
0.000511925
1.57293e-05
5.00092e-06
0.000511953
2.15755e-05
1.07586e-05
0.000507267
3.39492e-05
2.49112e-05
0.000507808
4.96633e-05
3.42876e-05
0.000517375
5.83574e-05
2.87687e-05
0.000532535
5.07674e-05
1.09072e-05
0.000552039
3.03597e-05
-7.03692e-06
0.000577871
1.16197e-05
-1.98011e-05
0.000607366
2.16739e-06
-3.63053e-05
0.000627711
-4.3767e-06
-6.16955e-05
0.00062895
-1.47669e-05
-8.2699e-05
0.000617125
-2.05018e-05
-8.37928e-05
0.00060442
-1.1181e-05
-6.60348e-05
0.000593917
3.35556e-06
-4.13658e-05
0.00058175
1.22833e-05
-1.98146e-05
0.000567057
1.66298e-05
-4.25238e-06
0.000551954
1.85506e-05
6.28413e-06
0.000538917
1.46671e-05
1.59051e-05
0.000530235
5.62194e-06
2.51283e-05
0.00052934
-2.10917e-06
2.70694e-05
0.000541006
-6.89051e-06
1.70513e-05
0.00056385
-1.50901e-05
3.21482e-06
0.000583322
-3.06166e-05
-6.98588e-07
0.000582656
-4.6637e-05
1.40914e-05
0.000561689
-4.57312e-05
3.77518e-05
0.000538228
-1.91093e-05
5.39989e-05
0.000528938
1.64097e-05
5.46229e-05
0.000534796
3.10431e-05
3.78227e-05
0.000547992
9.73468e-06
1.27354e-05
0.000561386
-2.7402e-05
-4.99052e-07
0.000566796
-4.17892e-05
6.73297e-06
0.000554947
-1.72475e-05
2.65671e-05
0.000527532
2.35778e-05
4.02203e-05
0.000494868
5.4625e-05
3.63607e-05
0.000469762
6.99629e-05
2.60749e-05
0.000459461
7.1982e-05
2.54352e-05
0.000462108
6.12564e-05
3.30729e-05
0.000472183
4.24494e-05
3.63744e-05
2.50542e-05
2.79032e-05
0.000562621
2.97905e-05
1.10643e-05
0.000569958
2.59832e-05
1.51787e-05
0.000569352
2.77783e-05
2.15558e-05
0.000564019
3.35411e-05
3.03355e-05
0.000562506
4.13218e-05
3.91974e-05
0.000570068
4.43914e-05
4.30324e-05
0.000584598
3.56786e-05
3.53517e-05
0.000601919
1.57383e-05
1.59249e-05
0.000621346
-4.21707e-06
-7.42383e-06
0.000646396
-1.63539e-05
-2.83265e-05
0.000674149
-1.95154e-05
-4.69565e-05
0.000691849
-1.67325e-05
-6.35696e-05
0.000691417
-8.45054e-06
-7.39033e-05
0.000679699
5.40625e-06
-7.31762e-05
0.000667683
1.69663e-05
-6.19586e-05
0.000658629
2.05449e-05
-4.42171e-05
0.000649701
1.96613e-05
-2.58689e-05
0.000637501
1.79568e-05
-1.29063e-05
0.000621379
1.45954e-05
-4.43065e-06
0.000606138
8.92212e-06
5.59024e-06
0.000600541
3.24687e-07
1.92773e-05
0.000609756
-1.53115e-05
2.88502e-05
0.000629023
-3.74928e-05
2.80374e-05
0.000644991
-5.67539e-05
2.12541e-05
0.000644952
-6.16681e-05
2.32725e-05
0.00062867
-4.77899e-05
4.16173e-05
0.000607944
-1.61194e-05
6.18283e-05
0.000592948
2.3053e-05
6.13616e-05
0.000586705
4.39992e-05
3.52695e-05
0.00058873
2.93338e-05
3.69997e-07
0.000599207
-1.11435e-05
-1.84887e-05
0.000609013
-4.07495e-05
-1.10306e-05
0.000604811
-3.04813e-05
1.20337e-05
0.000582299
1.19446e-05
3.23379e-05
0.000553862
5.45029e-05
3.84179e-05
0.000534759
8.23701e-05
3.11592e-05
0.000529993
9.33698e-05
2.00431e-05
0.000534344
8.56938e-05