/*--------------------------------*- C++ -*----------------------------------*\
| =========                 |                                                 |
| \\      /  F ield         | OpenFOAM: The Open Source CFD Toolbox           |
|  \\    /   O peration     | Version:  2306                                  |
|   \\  /    A nd           | Website:  www.openfoam.com                      |
|    \\/     M anipulation  |                                                 |
\*---------------------------------------------------------------------------*/
FoamFile
{
    version     2.0;
    format      ascii;
    arch        "LSB;label=32;scalar=64";
    class       surfaceScalarField;
    location    "8";
    object      phi_0;
}
// * * * * * * * * * * * * * * * * * * * * * * * * * * * * * * * * * * * * * //

dimensions      [0 3 -1 0 0 0 0];

oriented        oriented;

internalField   nonuniform List<scalar> 
175300
(
4.49544e-06
4.93668e-07
-6.30586e-07
4.81047e-06
4.57991e-07
-3.68006e-07
5.19453e-06
3.41941e-07
-1.11799e-08
5.58839e-06
3.71442e-07
3.35288e-07
5.83675e-06
5.7213e-07
7.66892e-07
5.83032e-06
8.18883e-07
1.25357e-06
5.61499e-06
9.06467e-07
1.71088e-06
5.35182e-06
7.5108e-07
2.01284e-06
5.14847e-06
5.17188e-07
2.02928e-06
5.00544e-06
3.43773e-07
1.79884e-06
4.88747e-06
2.35624e-07
1.48263e-06
4.74682e-06
1.49808e-07
1.25221e-06
4.54869e-06
4.2356e-08
1.1898e-06
4.26231e-06
-4.69603e-08
1.2457e-06
3.90282e-06
-1.00838e-07
1.31883e-06
3.58397e-06
-1.87705e-07
1.33904e-06
3.41764e-06
-3.115e-07
1.27089e-06
3.4089e-06
-4.19008e-07
1.10121e-06
3.49189e-06
-4.86616e-07
8.51275e-07
3.59875e-06
-5.16505e-07
5.93291e-07
3.71939e-06
-4.74685e-07
3.50484e-07
3.89485e-06
-3.19202e-07
7.45918e-08
4.11256e-06
-1.02912e-07
-1.68771e-07
4.32994e-06
1.80594e-07
-3.68375e-07
4.52177e-06
3.37558e-07
-4.00099e-07
4.68983e-06
2.55977e-07
-3.25374e-07
4.84126e-06
-1.02022e-07
-2.5831e-07
5.02811e-06
-6.4722e-07
-3.78125e-07
5.25522e-06
-1.01462e-06
-7.71121e-07
5.39726e-06
-9.07378e-07
-1.26801e-06
5.33688e-06
-4.51613e-07
-1.62444e-06
5.07827e-06
3.97991e-08
-1.86201e-06
4.69178e-06
3.92041e-07
-2.08939e-06
4.2637e-06
4.74455e-07
-2.15332e-06
3.92014e-06
2.473e-07
-2.0004e-06
3.74817e-06
-4.0563e-08
-1.82294e-06
3.76357e-06
-1.53108e-07
-1.70744e-06
3.91296e-06
-6.62002e-08
-1.53886e-06
4.09528e-06
1.62114e-07
-1.25142e-06
3.89217e-07
-9.15648e-07
1.49169e-05
1.43458e-06
-1.74013e-06
1.60776e-05
1.16989e-06
-9.01318e-07
1.73869e-05
7.93215e-07
1.28765e-07
1.86467e-05
9.39476e-07
1.28072e-06
1.94819e-05
1.60387e-06
2.67361e-06
1.95812e-05
2.35842e-06
4.16135e-06
1.89881e-05
2.63658e-06
5.44822e-06
1.81283e-05
2.23229e-06
6.15743e-06
1.73994e-05
1.56019e-06
6.0554e-06
1.69051e-05
1.00424e-06
5.31764e-06
1.6541e-05
6.42358e-07
4.39478e-06
1.61137e-05
3.72494e-07
3.72943e-06
1.54598e-05
8.50373e-08
3.50193e-06
1.45075e-05
-1.57048e-07
3.59426e-06
1.33801e-05
-3.84724e-07
3.78581e-06
1.23999e-05
-7.83806e-07
3.88737e-06
1.18199e-05
-1.31833e-06
3.75347e-06
1.16531e-05
-1.74993e-06
3.30984e-06
1.17503e-05
-1.93432e-06
2.61418e-06
1.19667e-05
-1.87277e-06
1.84218e-06
1.22904e-05
-1.5603e-06
1.0762e-06
1.27871e-05
-9.45963e-07
2.6872e-07
1.34126e-05
-1.53573e-07
-4.28631e-07
1.40922e-05
6.58481e-07
-8.97756e-07
1.48057e-05
8.78724e-07
-9.35637e-07
1.55719e-05
2.27415e-07
-7.20576e-07
1.6401e-05
-1.31592e-06
-5.9183e-07
1.73051e-05
-3.23222e-06
-1e-06
1.81156e-05
-4.24606e-06
-2.10127e-06
1.84389e-05
-3.53619e-06
-3.43736e-06
1.80642e-05
-1.71036e-06
-4.49037e-06
1.71391e-05
8.17861e-08
-5.24327e-06
1.59527e-05
1.17771e-06
-5.74789e-06
1.4743e-05
1.24693e-06
-5.74631e-06
1.37027e-05
4.45721e-07
-5.3728e-06
1.29826e-05
-3.62643e-07
-5.08203e-06
1.27172e-05
-5.856e-07
-4.88107e-06
1.29041e-05
-2.22641e-07
-4.40226e-06
1.33692e-05
5.40942e-07
-3.55326e-06
1.23302e-06
-2.59263e-06
2.73174e-05
2.26407e-06
-3.35573e-06
2.95399e-05
1.5049e-06
-1.98401e-06
3.20281e-05
5.10977e-07
-1.65888e-07
3.4465e-05
8.10356e-07
1.81117e-06
3.629e-05
2.1205e-06
4.30339e-06
3.69041e-05
3.62193e-06
6.95265e-06
3.6138e-05
4.32798e-06
9.21937e-06
3.45726e-05
3.87439e-06
1.04919e-05
3.30471e-05
2.84819e-06
1.04214e-05
3.19899e-05
1.83586e-06
9.27334e-06
3.13034e-05
1.0875e-06
7.76571e-06
3.06049e-05
5.45972e-07
6.59135e-06
2.95381e-05
5.2501e-08
6.02595e-06
2.79474e-05
-3.39566e-07
5.947e-06
2.60088e-05
-7.72993e-07
6.13609e-06
2.41798e-05
-1.59591e-06
6.36185e-06
2.28591e-05
-2.72434e-06
6.32178e-06
2.21706e-05
-3.68277e-06
5.77951e-06
2.19974e-05
-4.12108e-06
4.77501e-06
2.21605e-05
-3.97441e-06
3.56592e-06
2.26153e-05
-3.27907e-06
2.30669e-06
2.34058e-05
-1.95839e-06
9.74417e-07
2.44563e-05
-2.44318e-07
-2.49576e-07
2.56888e-05
1.23529e-06
-1.01763e-06
2.71084e-05
1.26738e-06
-1.03433e-06
2.87358e-05
-6.20965e-07
-5.50965e-07
3.0557e-05
-4.28201e-06
-1.63825e-07
3.25152e-05
-8.49783e-06
-6.24228e-07
3.4216e-05
-1.05058e-05
-2.3175e-06
3.493e-05
-8.67381e-06
-4.60992e-06
3.43268e-05
-4.45841e-06
-6.62485e-06
3.27487e-05
-4.30022e-07
-8.11886e-06
3.07717e-05
1.91999e-06
-8.98227e-06
2.87736e-05
2.01714e-06
-8.92015e-06
2.68974e-05
4.42312e-07
-8.344e-06
2.52523e-05
-1.02447e-06
-8.03335e-06
2.41543e-05
-1.33077e-06
-7.96765e-06
2.39039e-05
-5.88665e-07
-7.4646e-06
2.444e-05
8.38744e-07
-6.25095e-06
2.09435e-06
-4.74253e-06
4.12481e-05
2.49061e-06
-6.18408e-06
4.46447e-05
7.48311e-07
-4.48878e-06
4.8567e-05
-1.46136e-06
-2.20791e-06
5.25996e-05
-1.48899e-06
9.06858e-07
5.60499e-05
6.56497e-07
4.55997e-06
5.79476e-05
3.3076e-06
8.63902e-06
5.75981e-05
4.93375e-06
1.23015e-05
5.54273e-05
4.98185e-06
1.46209e-05
5.27888e-05
4.05148e-06
1.5022e-05
5.08055e-05
2.731e-06
1.37518e-05
4.96335e-05
1.50178e-06
1.1779e-05
4.87097e-05
5.77711e-07
1.00786e-05
4.74025e-05
-1.51495e-07
9.01152e-06
4.5377e-05
-6.39706e-07
8.45437e-06
4.27366e-05
-1.16493e-06
8.32535e-06
3.99187e-05
-2.28445e-06
8.5635e-06
3.73933e-05
-3.92897e-06
8.78057e-06
3.55281e-05
-5.51024e-06
8.44432e-06
3.44906e-05
-6.52619e-06
7.42616e-06
3.42112e-05
-6.66833e-06
6.01683e-06
3.459e-05
-5.78448e-06
4.43032e-06
3.55778e-05
-3.64306e-06
2.6334e-06
3.70318e-05
-6.64788e-07
8.32213e-07
3.88664e-05
1.66353e-06
-2.92187e-07
4.11074e-05
1.25242e-06
-2.05735e-07
4.37317e-05
-2.49925e-06
7.42966e-07
4.66622e-05
-9.38753e-06
1.95699e-06
4.98997e-05
-1.71768e-05
1.98892e-06
5.29707e-05
-2.104e-05
-4.33106e-08
5.47016e-05
-1.78467e-05
-3.55306e-06
5.43999e-05
-1.01057e-05
-7.09824e-06
5.25023e-05
-2.54029e-06
-9.93613e-06
4.99184e-05
2.02707e-06
-1.16277e-05
4.72336e-05
2.59632e-06
-1.16926e-05
4.45147e-05
2.65293e-07
-1.08234e-05
4.16529e-05
-1.95226e-06
-1.03841e-05
3.90067e-05
-2.3358e-06
-1.06124e-05
3.74215e-05
-1.24441e-06
-1.05584e-05
3.73705e-05
7.27692e-07
-9.52348e-06
2.46767e-06
-7.852e-06
5.59772e-05
1.73778e-06
-1.06591e-05
6.0226e-05
-1.63187e-06
-9.24039e-06
6.55625e-05
-6.175e-06
-6.95197e-06
7.15186e-05
-7.92897e-06
-3.09562e-06
7.73751e-05
-5.2953e-06
1.89442e-06
8.17687e-05
-6.93882e-07
7.64765e-06
8.31067e-05
2.81062e-06
1.34279e-05
8.10516e-05
4.4161e-06
1.76686e-05
7.722e-05
4.5387e-06
1.93587e-05
7.38374e-05
3.4642e-06
1.8512e-05
7.18494e-05
1.83204e-06
1.63345e-05
7.06894e-05
4.03267e-07
1.42683e-05
6.93757e-05
-6.51071e-07
1.27891e-05
6.7275e-05
-1.19974e-06
1.15765e-05
6.42932e-05
-1.60019e-06
1.06478e-05
6.06572e-05
-2.65133e-06
1.04417e-05
5.66477e-05
-4.38467e-06
1.08416e-05
5.27964e-05
-6.31934e-06
1.09998e-05
4.98574e-05
-8.15614e-06
1.03612e-05
4.82778e-05
-9.34346e-06
9.12603e-06
4.80568e-05
-9.01482e-06
7.55898e-06
4.89747e-05
-6.27963e-06
5.52837e-06
5.06939e-05
-1.70881e-06
3.18595e-06
5.30394e-05
1.8743e-06
1.62506e-06
5.6016e-05
1.07083e-06
1.79154e-06
5.94281e-05
-5.20043e-06
3.75317e-06
6.30048e-05
-1.64036e-05
6.59774e-06
6.71115e-05
-2.91912e-05
8.14606e-06
7.19567e-05
-3.69511e-05
6.46607e-06
7.60089e-05
-3.34133e-05
1.80619e-06
7.74603e-05
-2.10534e-05
-4.29327e-06
7.62965e-05
-8.09408e-06
-9.67806e-06
7.37109e-05
4.14877e-07
-1.32836e-05
7.06545e-05
2.60836e-06
-1.40759e-05
6.73046e-05
-3.62833e-08
-1.28762e-05
6.32997e-05
-2.94985e-06
-1.19876e-05
5.86997e-05
-3.36265e-06
-1.2361e-05
5.47082e-05
-1.95144e-06
-1.30406e-05
5.27561e-05
2.7669e-07
-1.28928e-05
2.17149e-06
-1.18894e-05
7.17621e-05
5.23308e-07
-1.58712e-05
7.53987e-05
-5.32584e-06
-1.58595e-05
8.09466e-05
-1.38021e-05
-1.46793e-05
8.80574e-05
-1.92143e-05
-1.14714e-05
9.64626e-05
-1.82301e-05
-5.9492e-06
0.000104918
-1.2374e-05
1.48567e-06
0.000110387
-5.19485e-06
1.01055e-05
0.000110506
-2.12977e-08
1.77684e-05
0.000106306
2.96465e-06
2.22556e-05
0.000101267
3.38321e-06
2.28976e-05
9.79903e-05
1.86695e-06
2.09488e-05
9.64493e-05
-6.13735e-08
1.87599e-05
9.53114e-05
-1.59564e-06
1.73503e-05
9.35225e-05
-2.28015e-06
1.58752e-05
9.07574e-05
-2.36373e-06
1.38734e-05
8.69712e-05
-2.88237e-06
1.24222e-05
8.19049e-05
-4.04622e-06
1.24049e-05
7.57224e-05
-5.58436e-06
1.30469e-05
6.96589e-05
-7.83636e-06
1.31291e-05
6.52334e-05
-1.06211e-05
1.24504e-05
6.31938e-05
-1.21008e-05
1.13137e-05
6.33388e-05
-9.66389e-06
9.45888e-06
6.4931e-05
-3.44011e-06
6.81971e-06
6.74779e-05
1.95394e-06
4.89617e-06
7.08885e-05
1.02691e-06
5.29662e-06
7.47283e-05
-8.12097e-06
8.44646e-06
7.80623e-05
-2.41118e-05
1.31606e-05
8.11896e-05
-4.26194e-05
1.68508e-05
8.63566e-05
-5.61617e-05
1.69657e-05
9.37747e-05
-5.57245e-05
1.24187e-05
9.99666e-05
-4.06814e-05
4.38633e-06
0.000102306
-2.02785e-05
-5.34998e-06
0.000101396
-4.97501e-06
-1.28439e-05
9.88024e-05
1.07287e-06
-1.58033e-05
9.52643e-05
-6.4835e-07
-1.47156e-05
9.05782e-05
-3.82883e-06
-1.30478e-05
8.43894e-05
-4.08596e-06
-1.30778e-05
7.76631e-05
-2.20666e-06
-1.42378e-05
7.25535e-05
1.53827e-07
-1.52059e-05
1.86153e-06
-1.56322e-05
9.24118e-05
2.38717e-07
-1.93516e-05
9.32659e-05
-8.27103e-06
-2.14927e-05
9.62069e-05
-2.16645e-05
-2.28199e-05
0.000101253
-3.23612e-05
-2.1947e-05
0.000108815
-3.50286e-05
-1.83469e-05
0.000119906
-3.10429e-05
-1.15785e-05
0.000132212
-2.33222e-05
-9.77544e-07
0.000139304
-1.29704e-05
1.1297e-05
0.000138006
-3.76767e-06
2.12021e-05
0.000132219
8.08694e-07
2.55963e-05
0.000127388
8.01491e-07
2.48731e-05
0.000125289
-1.15151e-06
2.25961e-05
0.000124464
-3.17724e-06
2.16835e-05
0.000123233
-4.16547e-06
2.11329e-05
0.000121141
-3.89446e-06
1.8796e-05
0.000118173
-3.52794e-06
1.55213e-05
0.000113444
-3.56414e-06
1.393e-05
0.000105946
-3.83787e-06
1.44304e-05
9.64542e-05
-5.35509e-06
1.53237e-05
8.74786e-05
-9.1155e-06
1.54984e-05
8.14681e-05
-1.32313e-05
1.50562e-05
7.92506e-05
-1.26111e-05
1.37483e-05
7.98811e-05
-5.38971e-06
1.1124e-05
8.22329e-05
2.18157e-06
8.90251e-06
8.59457e-05
1.66184e-06
9.3947e-06
9.05498e-05
-1.01735e-05
1.31664e-05
9.43597e-05
-3.04125e-05
1.8524e-05
9.58746e-05
-5.28472e-05
2.3087e-05
9.74774e-05
-7.14397e-05
2.56952e-05
0.000103973
-7.77051e-05
2.4782e-05
0.000115141
-6.57672e-05
1.80392e-05
0.000125096
-4.16478e-05
5.56996e-06
0.000129892
-1.74603e-05
-8.02166e-06
0.000129945
-4.02983e-06
-1.57051e-05
0.000127029
-2.24557e-06
-1.62582e-05
0.000122217
-4.48999e-06
-1.39818e-05
0.000115433
-4.2795e-06
-1.30838e-05
0.000107003
-1.74162e-06
-1.40443e-05
9.90764e-05
8.8141e-07
-1.56292e-05
2.42972e-06
-1.73594e-05
0.000122161
1.82996e-06
-1.93942e-05
0.000120178
-7.79368e-06
-2.31135e-05
0.000118097
-2.47812e-05
-2.7379e-05
0.000117517
-4.12105e-05
-3.06296e-05
0.000119933
-4.87752e-05
-3.07351e-05
0.000127435
-4.84314e-05
-2.67848e-05
0.000142018
-4.47933e-05
-1.78031e-05
0.00015832
-3.51995e-05
-3.7744e-06
0.000165913
-2.01204e-05
1.28068e-05
0.000163045
-7.52042e-06
2.41965e-05
0.000157519
-3.32912e-06
2.71353e-05
0.000155117
-4.07215e-06
2.48543e-05
0.000155207
-6.04767e-06
2.38174e-05
0.000154852
-7.11367e-06
2.51773e-05
0.000153371
-6.41454e-06
2.46551e-05
0.000151751
-5.10611e-06
2.04987e-05
0.000149233
-3.98785e-06
1.63524e-05
0.000143139
-2.73427e-06
1.54441e-05
0.000132206
-2.4234e-06
1.67666e-05
0.000118546
-5.29013e-06
1.80052e-05
0.000106356
-1.09894e-05
1.8399e-05
9.90999e-05
-1.31499e-05
1.78177e-05
9.71244e-05
-6.52285e-06
1.55124e-05
9.87598e-05
2.82662e-06
1.29448e-05
0.000102809
3.48252e-06
1.29775e-05
0.000108637
-9.94166e-06
1.63914e-05
0.000114663
-3.31926e-05
2.07297e-05
0.000117718
-5.73221e-05
2.39207e-05
0.000116274
-7.65654e-05
2.72736e-05
0.000115912
-8.77152e-05
3.16008e-05
0.000124109
-8.47281e-05
3.14288e-05
0.000139326
-6.52336e-05
2.10924e-05
0.00015323
-3.7543e-05
3.55002e-06
0.000159993
-1.49373e-05
-1.14774e-05
0.000159525
-5.86472e-06
-1.64653e-05
0.000155022
-4.73438e-06
-1.49201e-05
0.000148564
-3.74083e-06
-1.27988e-05
0.000140289
-8.255e-07
-1.26321e-05
0.000131545
2.31074e-06
-1.40184e-05
4.09286e-06
-1.63449e-05
0.000158196
4.27268e-06
-1.53188e-05
0.000157126
-3.78611e-06
-1.95906e-05
0.000151491
-2.03273e-05
-2.58446e-05
0.000143522
-4.03127e-05
-3.39114e-05
0.000138464
-5.37916e-05
-4.02707e-05
0.000139147
-5.76914e-05
-4.09763e-05
0.000148686
-5.92221e-05
-3.44621e-05
0.000167423
-5.70858e-05
-2.11272e-05
0.000184848
-4.36104e-05
-2.24195e-06
0.000189247
-2.3467e-05
1.71351e-05
0.0001842
-1.14028e-05
2.66143e-05
0.000181248
-9.86598e-06
2.5416e-05
0.000183722
-1.20889e-05
2.24816e-05
0.000186051
-1.22699e-05
2.44987e-05
0.000184848
-9.35946e-06
2.73549e-05
0.000183305
-6.46362e-06
2.50436e-05
0.000183862
-5.42074e-06
1.93116e-05
0.000182961
-4.34135e-06
1.61421e-05
0.000175426
-2.49508e-06
1.72036e-05
0.000160399
-2.59415e-06
1.96879e-05
0.000142032
-6.53845e-06
2.11245e-05
0.000126974
-9.74085e-06
2.13031e-05
0.000119396
-5.04015e-06
1.97476e-05
0.000118709
4.29181e-06
1.72634e-05
0.000122701
5.7814e-06
1.65356e-05
0.000129607
-8.07184e-06
1.83809e-05
0.000137771
-3.26312e-05
2.03825e-05
0.000144259
-5.69508e-05
2.10836e-05
0.000144808
-7.37882e-05
2.33511e-05
0.000139707
-8.35902e-05
3.0905e-05
0.000138763
-8.76173e-05
3.89316e-05
0.000150355
-8.05514e-05
3.56792e-05
0.000169986
-5.948e-05
1.86061e-05
0.000184986
-3.16286e-05
-1.84612e-06
0.000186717
-1.03431e-05
-1.35944e-05
0.000178838
-6.81449e-07
-1.52672e-05
0.000170913
-4.01465e-08
-1.24547e-05
0.000165973
-8.10206e-07
-9.9903e-06
0.000161821
1.51891e-06
-9.88644e-06
4.93253e-06
-1.19896e-05
0.000187654
2.98698e-06
-5.07509e-06
0.000194403
-1.46584e-06
-9.35138e-06
0.000192338
-1.17416e-05
-1.71083e-05
0.000180226
-2.90302e-05
-2.93804e-05
0.000167071
-4.70556e-05
-4.33001e-05
0.000160634
-5.70638e-05
-5.2364e-05
0.000163043
-6.25028e-05
-5.08592e-05
0.000176116
-6.79205e-05
-3.90768e-05
0.000197204
-6.50555e-05
-1.95234e-05
0.000212513
-4.71907e-05
4.49591e-06
0.000212421
-2.50789e-05
2.21519e-05
0.000205701
-1.61943e-05
2.53402e-05
0.000206381
-1.98609e-05
2.01965e-05
0.00021346
-2.23703e-05
1.92021e-05
0.000215526
-1.48652e-05
2.34115e-05
0.000210841
-4.38927e-06
2.43544e-05
0.000208867
-2.05665e-06
1.94739e-05
0.000213519
-6.8037e-06
1.47076e-05
0.000216685
-9.62042e-06
1.52552e-05
0.000208955
-7.76846e-06
1.94308e-05
0.000189674
-5.26614e-06
2.25478e-05
0.000166873
-3.46258e-06
2.35291e-05
0.000150387
1.39959e-06
2.31494e-05
0.000144334
8.05335e-06
2.19984e-05
0.000147089
6.90566e-06
2.1139e-05
0.000155179
-9.0492e-06
2.04352e-05
0.000165414
-3.42369e-05
1.80719e-05
0.000174568
-5.60804e-05
1.41077e-05
0.000178351
-6.78738e-05
1.40177e-05
0.000173594
-7.17662e-05
2.37e-05
0.000165478
-7.57404e-05
3.88696e-05
0.000167372
-8.05042e-05
4.43007e-05
0.000184119
-7.46578e-05
3.08751e-05
0.000202357
-5.02886e-05
8.72594e-06
0.000205428
-1.59363e-05
-8.88656e-06
0.000192959
7.68827e-06
-1.50349e-05
0.000179407
1.07833e-05
-1.27741e-05
0.000174204
3.24492e-06
-7.17758e-06
0.000175601
-2.2355e-07
-3.30304e-06
2.07453e-06
-2.92228e-06
0.000201817
1.07701e-06
9.88601e-06
0.000217959
-3.7269e-06
8.78971e-06
0.000228304
-8.29768e-06
6.54381e-07
0.000221809
-1.3965e-05
-1.66369e-05
0.000204163
-2.92933e-05
-3.73961e-05
0.000190025
-4.58827e-05
-5.60981e-05
0.000186726
-5.73734e-05
-6.43893e-05
0.000193201
-6.68345e-05
-5.77336e-05
0.000208877
-7.3798e-05
-3.95509e-05
0.000229861
-6.91012e-05
-1.38961e-05
0.000242977
-4.91423e-05
1.11546e-05
0.00024003
-2.80962e-05
2.29704e-05
0.000231897
-2.35851e-05
1.99614e-05
0.000233544
-2.95316e-05
1.42793e-05
0.000241629
-2.54455e-05
1.54003e-05
0.000242522
-7.50917e-06
1.89216e-05
0.000236153
4.94124e-06
1.78728e-05
0.000234775
-1.0728e-06
1.33497e-05
0.000243225
-1.67798e-05
1.20481e-05
0.000250335
-2.44591e-05
1.67557e-05
0.000242165
-1.66972e-05
2.18636e-05
0.000218886
-1.19161e-06
2.35239e-05
0.00019391
1.20946e-05
2.41075e-05
0.000179428
1.69704e-05
2.59285e-05
0.000177954
8.92411e-06
2.72232e-05
0.000185524
-1.33023e-05
2.45484e-05
0.000197449
-4.12255e-05
1.61518e-05
0.000209647
-6.02155e-05
4.45692e-06
0.000216638
-6.40626e-05
-1.70526e-06
0.000213453
-5.91064e-05
8.92218e-06
0.000201547
-5.66042e-05
3.127e-05
0.000193102
-6.60175e-05
4.6877e-05
0.00020028
-7.62361e-05
3.99092e-05
0.000215949
-6.32678e-05
1.74568e-05
0.000221146
-2.28445e-05
-3.47116e-06
0.000210239
1.38088e-05
-1.39448e-05
0.000195042
2.32015e-05
-1.44863e-05
0.000186894
1.18367e-05
-7.67983e-06
0.000186647
2.83754e-06
7.39728e-07
2.08065e-06
6.78928e-06
0.000214472
3.49063e-06
1.44006e-05
0.00023065
-7.33922e-06
2.17032e-05
0.000252191
-1.1235e-05
1.91609e-05
0.000259858
-5.8083e-06
2.95169e-06
0.000247322
-7.62013e-06
-2.46419e-05
0.000227911
-2.50311e-05
-5.06382e-05
0.00021756
-4.43865e-05
-6.92456e-05
0.000219701
-5.85816e-05
-7.30644e-05
0.00022982
-7.02427e-05
-6.06222e-05
0.000246479
-7.8779e-05
-3.59718e-05
0.000266064
-7.31725e-05
-7.07632e-06
0.000275359
-5.14596e-05
1.49707e-05
0.000268471
-3.09799e-05
1.86959e-05
0.000258753
-2.75605e-05
1.16547e-05
0.000260683
-2.91043e-05
8.49442e-06
0.000269412
-1.74556e-05
1.27656e-05
0.0002717
7.67816e-07
1.68917e-05
0.000266639
5.25986e-06
1.5212e-05
0.000265698
-1.21372e-05
1.14516e-05
0.000275405
-3.69064e-05
1.34367e-05
0.000283477
-4.02763e-05
1.91884e-05
0.000273542
-1.42197e-05
2.143e-05
0.000249268
1.69453e-05
2.21667e-05
0.000228109
2.78328e-05
2.76119e-05
0.000218839
1.6506e-05
3.32159e-05
0.000219844
-1.06219e-05
2.92311e-05
0.000228343
-4.32638e-05
1.40948e-05
0.000242962
-6.71088e-05
-3.69472e-06
0.000256004
-6.91486e-05
-1.50102e-05
0.000256999
-5.2841e-05
-9.86073e-06
0.000244074
-3.95896e-05
1.70209e-05
0.000227636
-4.35891e-05
4.36512e-05
0.000222838
-6.27302e-05
4.69523e-05
0.000230923
-6.39213e-05
2.70322e-05
0.000237247
-2.88749e-05
4.43078e-06
0.000233544
1.42135e-05
-1.09666e-05
0.000224264
3.01851e-05
-1.72587e-05
0.000216379
2.10352e-05
-1.4539e-05
0.000211689
1.04782e-05
-4.95374e-06
8.603e-06
4.82109e-06
0.000240205
1.13869e-05
1.74767e-06
0.000249478
-7.51375e-06
1.41961e-05
0.000272528
-1.82086e-05
2.25783e-05
0.000292418
-6.50529e-06
1.43661e-05
0.00029201
7.15039e-06
-1.14964e-05
0.000274495
-2.26391e-06
-4.05321e-05
0.000257338
-2.51004e-05
-6.52123e-05
0.00025333
-4.48856e-05
-7.95571e-05
0.000260855
-6.00572e-05
-7.75076e-05
0.000273251
-7.61258e-05
-5.86735e-05
0.000288984
-8.64167e-05
-2.83808e-05
0.000302466
-7.52627e-05
7.87017e-07
0.00030335
-4.61602e-05
1.33095e-05
0.000293058
-2.56189e-05
9.23658e-06
0.000286318
-2.31777e-05
3.97364e-06
0.000291788
-2.15342e-05
7.76176e-06
0.000302042
-1.03522e-05
1.61911e-05
0.000305804
3.77682e-07
1.92544e-05
0.000301779
-5.85097e-06
1.48986e-05
0.00030008
-3.17359e-05
1.11315e-05
0.000307538
-5.18957e-05
1.34779e-05
0.000312983
-3.63472e-05
1.66955e-05
0.000303814
2.12673e-06
1.99485e-05
0.000285348
2.59981e-05
2.89983e-05
0.000269244
2.48525e-05
3.78056e-05
0.000259513
5.62074e-06
3.12852e-05
0.000257632
-2.57729e-05
9.25878e-06
0.000268535
-6.08365e-05
-1.19627e-05
0.000288365
-7.65484e-05
-2.41524e-05
0.000298838
-6.01984e-05
-2.16647e-05
0.000289756
-3.37367e-05
2.14312e-06
0.000269304
-2.45573e-05
3.60982e-05
0.000254222
-3.99453e-05
5.14787e-05
0.000252359
-5.01029e-05
3.82622e-05
0.0002565
-2.5941e-05
1.38666e-05
0.00025895
1.31828e-05
-6.2262e-06
0.000258819
3.04651e-05
-1.88141e-05
0.000256378
2.50195e-05
-2.21055e-05
0.000250723
1.83992e-05
-1.62004e-05
1.82876e-05
-7.34757e-06
0.000285774
1.95175e-05
-1.69373e-05
0.000285731
-1.93732e-06
-6.30369e-06
0.000300819
-2.09105e-05
7.99602e-06
0.000324996
-1.34482e-05
1.08765e-05
0.000337534
8.59887e-06
-5.06323e-06
0.00032774
1.30099e-05
-3.13814e-05
0.000307029
-4.01788e-06
-5.80609e-05
0.000294931
-2.50189e-05
-7.9138e-05
0.000298734
-4.40205e-05
-8.70989e-05
0.00031048
-6.5585e-05
-7.72234e-05
0.000322325
-8.71308e-05
-5.06239e-05
0.000332234
-8.90206e-05
-1.81544e-05
0.000335373
-6.14818e-05
3.55364e-06
0.000328835
-2.77824e-05
5.86929e-06
0.000320277
-1.4267e-05
5.925e-07
0.000320247
-1.61949e-05
2.87853e-06
0.000329679
-1.53512e-05
1.39818e-05
0.000340907
-8.80643e-06
2.38698e-05
0.000345063
-7.58485e-06
2.28797e-05
0.000339858
-2.17439e-05
1.38106e-05
0.000333402
-4.25902e-05
8.36845e-06
0.000332367
-4.43302e-05
1.21703e-05
0.000330157
-1.99616e-05
2.21455e-05
0.000320361
8.13826e-06
3.43185e-05
0.000308366
2.2732e-05
3.91192e-05
0.000299809
1.92978e-05
2.66113e-05
0.000294694
-2.51945e-06
8.96502e-07
0.000298897
-4.08871e-05
-2.11644e-05
0.00031805
-7.33107e-05
-3.05654e-05
0.000336776
-7.1107e-05
-2.57446e-05
0.000335303
-4.04624e-05
-6.39702e-06
0.000314862
-1.80057e-05
2.78904e-05
0.000293468
-1.99406e-05
5.265e-05
0.000283339
-2.74206e-05
4.89994e-05
0.00028353
-1.19605e-05
2.62211e-05
0.000288355
1.65364e-05
1.68909e-06
0.000295133
2.8835e-05
-1.70202e-05
0.000300387
2.26455e-05
-2.64559e-05
0.000299757
1.92059e-05
-2.60578e-05
2.3905e-05
-2.18285e-05
0.000341469
1.86334e-05
-3.0344e-05
0.000334963
4.83566e-06
-2.03142e-05
0.000336714
-1.32917e-05
-6.61375e-06
0.000354987
-1.43588e-05
6.46304e-07
0.000376869
3.80038e-06
-6.95461e-06
0.00038062
1.77235e-05
-2.58923e-05
0.000363988
1.28027e-05
-4.99617e-05
0.000346572
-1.59527e-06
-7.42435e-05
0.000344794
-2.04688e-05
-9.04027e-05
0.000356002
-4.73399e-05
-9.0109e-05
0.000367615
-7.81144e-05
-7.1212e-05
0.000373647
-9.16617e-05
-3.96063e-05
0.000373953
-7.08328e-05
-1.16187e-05
0.000368174
-3.15295e-05
-6.9526e-07
0.000359836
-6.98465e-06
-1.77496e-06
0.000356678
-5.10378e-06
-9.2444e-07
0.000362642
-1.10285e-05
1.10969e-05
0.000375305
-1.32076e-05
2.63107e-05
0.000385491
-1.3031e-05
3.10826e-05
0.000382735
-1.73833e-05
2.15689e-05
0.000366612
-2.73639e-05
1.0216e-05
0.000348763
-3.28343e-05
1.05118e-05
0.000338217
-2.4586e-05
2.01873e-05
0.000334972
-7.40407e-06
2.74306e-05
0.000337548
9.38475e-06
2.4519e-05
0.00034183
1.85769e-05
9.35263e-06
0.000341898
1.1274e-05
-1.162e-05
0.000342566
-1.90537e-05
-2.97806e-05
0.000355647
-5.97172e-05
-3.54602e-05
0.000375748
-7.59132e-05
-2.69619e-05
0.000380301
-5.20782e-05
-7.60755e-06
0.000361296
-2.07161e-05
2.33313e-05
0.000336293
-9.30609e-06
5.0056e-05
0.00032196
-8.20841e-06
5.36895e-05
0.000320598
4.80118e-06
3.5041e-05
0.00032491
2.62324e-05
1.09583e-05
0.000330097
3.38016e-05
-9.06455e-06
0.000335771
2.35366e-05
-2.26071e-05
0.000341439
1.44586e-05
-2.9689e-05
1.73295e-05
-3.22781e-05
0.000382027
4.57749e-06
-2.65784e-05
0.000378147
2.68592e-06
-1.57991e-05
0.000371528
-3.57924e-06
-4.6621e-06
0.00037886
-4.0821e-06
-1.12674e-06
0.000402198
5.89532e-06
-7.27234e-06
0.000420836
1.86672e-05
-2.17826e-05
0.000418004
2.3856e-05
-4.22376e-05
0.000404065
2.00443e-05
-6.62209e-05
0.000400219
6.37364e-06
-8.72523e-05
0.000410427
-2.20369e-05
-9.6206e-05
0.000422274
-6.02901e-05
-8.7628e-05
0.000426034
-8.45003e-05
-6.23634e-05
0.000422292
-7.2676e-05
-3.18297e-05
0.000414372
-3.46971e-05
-1.15135e-05
0.000405746
-2.90248e-06
-4.48729e-06
0.000401321
5.65057e-06
-1.35898e-06
0.000403797
-4.67403e-07
7.67269e-06
0.000412147
-8.27277e-06
2.18915e-05
0.000420576
-1.3804e-05
3.25446e-05
0.000420102
-1.76475e-05
2.97827e-05
0.000405883
-1.84894e-05
1.63025e-05
0.000384353
-1.55871e-05
5.81432e-06
0.00036876
-1.20598e-05
5.38724e-06
0.00036736
-1.08294e-05
8.56128e-06
0.000377869
-7.53621e-06
7.36437e-06
0.000388446
2.84291e-06
-8.28283e-07
0.00038968
1.14107e-05
-1.37341e-05
0.000387712
-2.12758e-06
-2.49975e-05
0.000395651
-4.05266e-05
-2.83289e-05
0.000413567
-7.27109e-05
-2.10226e-05
0.0004229
-6.30184e-05
-4.18943e-06
0.000409766
-3.00918e-05
2.23478e-05
0.000385735
-7.55522e-06
4.82356e-05
0.000368287
4.63344e-06
5.43511e-05
0.000361542
2.14934e-05
3.84355e-05
0.000358811
4.01192e-05
1.93318e-05
0.000355885
4.28143e-05
6.94101e-06
0.000356002
2.60797e-05
-4.40495e-06
0.000363032
7.23316e-06
-1.78758e-05
1.46317e-06
-2.7543e-05
0.000415785
-1.02393e-05
-1.56512e-05
0.000417103
-4.86646e-06
-8.847e-06
0.000410063
2.75303e-06
3.84675e-06
0.000408716
1.24561e-05
9.56588e-06
0.000424162
2.17114e-05
2.36979e-06
0.000448893
2.75958e-05
-1.51261e-05
0.000464759
3.06607e-05
-3.35551e-05
0.000466798
3.26628e-05
-5.26338e-05
0.000468868
2.88107e-05
-7.38397e-05
0.000479445
6.44878e-06
-9.15914e-05
0.000489958
-3.35916e-05
-9.62698e-05
0.000490031
-6.57156e-05
-8.1601e-05
0.000480889
-6.28746e-05
-5.39815e-05
0.000468073
-3.01201e-05
-2.8155e-05
0.000456452
7.45442e-07
-1.19202e-05
0.000450581
1.10128e-05
-2.04163e-06
0.00045118
7.28192e-06
6.92226e-06
0.000454101
7.12437e-07
1.84235e-05
0.000454852
-6.68809e-06
3.00005e-05
0.000450519
-1.31546e-05
3.15901e-05
0.00044043
-1.24485e-05
1.89774e-05
0.000428091
-4.27723e-06
2.01004e-06
0.000420652
-5.93735e-07
-6.39145e-06
0.000422922
-1.05092e-05
-3.63224e-06
0.000431736
-2.25025e-05
2.74649e-06
0.000436715
-1.63667e-05
3.72399e-06
0.000432462
3.75906e-06
-2.22358e-06
0.000427577
8.96651e-06
-9.47349e-06
0.000432656
-1.89929e-05
-1.31655e-05
0.000448774
-5.8651e-05
-9.53195e-06
0.000463388
-6.85142e-05
3.53983e-06
0.000461526
-4.26e-05
2.40795e-05
0.000444097
-9.56536e-06
4.52233e-05
0.000422835
1.53212e-05
5.26995e-05
0.000405221
3.56739e-05
4.23286e-05
0.000391291
5.21503e-05
2.62082e-05
0.000382137
5.24608e-05
1.61531e-05
0.000380855
3.19963e-05
1.06661e-05
0.000388481
5.36164e-06
2.31206e-06
-1.00973e-05
-9.93216e-06
0.000453273
-5.07727e-06
3.1987e-06
0.000455278
-2.13375e-07
3.06385e-06
0.000449966
1.20096e-05
1.08341e-05
0.00044716
2.88471e-05
1.75295e-05
0.000455912
4.24763e-05
1.61575e-05
0.000475467
4.4542e-05
5.2636e-06
0.000497367
3.7315e-05
-1.27311e-05
0.000516462
3.05949e-05
-3.12235e-05
0.000535589
2.8627e-05
-5.10941e-05
0.000554911
1.90034e-05
-7.24795e-05
0.000566242
-8.50009e-06
-8.92583e-05
0.000562656
-3.82976e-05
-8.99007e-05
0.000547925
-4.3181e-05
-7.03549e-05
0.000530141
-2.04221e-05
-4.22988e-05
0.000514265
4.49673e-06
-2.03275e-05
0.000503532
1.42422e-05
-6.94744e-06
0.000498147
1.32849e-05
3.70946e-06
0.000495143
9.58381e-06
1.56509e-05
0.000490681
3.42406e-06
2.70968e-05
0.000483474
-2.85166e-06
2.93206e-05
0.000476766
-2.28643e-06
1.59215e-05
0.000477246
4.06379e-06
-4.60648e-06
0.000486262
4.15129e-06
-1.49435e-05
0.000496439
-1.34023e-05
-7.15588e-06
0.000497205
-3.37337e-05
8.38834e-06
0.000486643
-3.22291e-05
1.67864e-05
0.000474007
-6.57412e-06
1.70106e-05
0.000470435
1.28143e-05
1.64742e-05
0.000479096
1.93019e-06
1.30421e-05
0.000495414
-3.3872e-05
5.83417e-06
0.000510919
-5.88075e-05
6.85258e-06
0.000514587
-4.69242e-05
2.25988e-05
0.0005019
-1.03728e-05
4.27541e-05
0.00047825
2.44136e-05
4.86362e-05
0.000451213
4.72988e-05
3.69405e-05
0.000428733
5.92227e-05
2.46269e-05
0.000417722
5.76066e-05
2.41793e-05
0.000419124
4.13545e-05
2.83472e-05
0.000429185
1.82948e-05
2.42237e-05
4.24558e-07
1.21993e-05
0.000503621
1.55301e-05
1.14094e-05
0.000512578
1.60744e-05
4.78335e-06
0.000511737
2.27781e-05
1.22477e-05
0.000507236
3.57345e-05
2.66803e-05
0.000508841
5.11227e-05
3.46284e-05
0.000519323
5.80876e-05
2.7118e-05
0.000534983
4.83348e-05
8.36393e-06
0.000555182
2.71024e-05
-9.19185e-06
0.000581751
9.34981e-06
-2.19433e-05
0.000610904
8.54992e-07
-3.93541e-05
0.000629155
-5.70989e-06
-6.47647e-05
0.000628161
-1.59628e-05
-8.37528e-05
0.000615579
-1.99838e-05
-8.21884e-05
0.000603014
-8.9457e-06
-6.29665e-05
0.00059245
5.29622e-06
-3.82504e-05
0.000579845
1.33866e-05
-1.74276e-05
0.000564912
1.72027e-05
-2.64027e-06
0.000549939
1.84158e-05
7.56217e-06
0.000537339
1.36177e-05
1.72485e-05
0.000529518
4.11652e-06
2.60347e-05
0.00053009
-3.22255e-06
2.65799e-05
0.000543488
-8.0773e-06
1.54491e-05
0.000566888
-1.68982e-05
2.03299e-06
0.000584452
-3.274e-05
1.96028e-07
0.000580769
-4.73404e-05
1.67962e-05
0.000558354
-4.33421e-05
4.04855e-05
0.000536041
-1.44668e-05
5.50591e-05
0.00052892
1.99715e-05
5.31876e-05
0.000536192
3.05137e-05
3.42063e-05
0.000549835
5.50478e-06
9.57038e-06
0.000562745
-3.1241e-05
-7.95198e-07
0.000566259
-4.08979e-05
8.92549e-06
0.000552048
-1.23504e-05
2.90095e-05
0.000523326
2.85942e-05
4.08276e-05
0.000491052
5.7591e-05
3.5364e-05
0.000467611
7.09178e-05
2.5552e-05
0.000459157
7.12914e-05
2.6114e-05
0.000463032
5.92971e-05
3.37173e-05
0.000473754
4.0136e-05
3.57189e-05
2.3373e-05
2.59937e-05
0.000563956
2.86345e-05
1.12976e-05
0.000570455
2.58397e-05
1.57657e-05
0.000569013
2.82927e-05
2.25861e-05
0.00056369
3.43992e-05
3.16619e-05
0.000563148
4.18543e-05
4.02701e-05
0.00057184
4.35884e-05
4.29489e-05
0.000586945
3.31763e-05
3.34758e-05
0.000604557
1.2361e-05
1.28506e-05
0.000624513
-6.74323e-06
-1.06593e-05
0.000650279
-1.76255e-05
-3.12288e-05
0.000677482
-1.96259e-05
-4.93228e-05
0.000692916
-1.58603e-05
-6.51734e-05
0.000690223
-6.6243e-06
-7.42393e-05
0.0006778
7.59855e-06
-7.20756e-05
0.000666096
1.82553e-05
-5.97746e-05
0.000657306
2.0827e-05
-4.16304e-05
0.000648159
1.95708e-05
-2.37792e-05
0.000635455
1.76794e-05
-1.16334e-05
0.000619095
1.39504e-05
-3.17956e-06
0.000604575
7.77252e-06
7.37174e-06
0.000600691
-1.65899e-06
2.10555e-05
0.000611706
-1.84016e-05
2.95119e-05
0.000631504
-4.07381e-05
2.74278e-05
0.000646077
-5.84292e-05
2.07558e-05
0.000643715
-6.07178e-05
2.46573e-05
0.000626059
-4.4245e-05
4.44306e-05
0.000605629
-1.09884e-05
6.31539e-05
0.000591687
2.71412e-05
5.91865e-05
0.000586493
4.41631e-05
3.05491e-05
0.000589682
2.52694e-05
-3.68667e-06
0.000600708
-1.62277e-05
-1.91824e-05
0.000609474
-4.19373e-05
-8.66535e-06
0.000602868
-2.64098e-05
1.50862e-05
0.000578795
1.79153e-05
3.41414e-05
0.000551005
5.90911e-05
3.83168e-05
0.000533892
8.47052e-05
2.99774e-05
0.000530782
9.33177e-05
1.86164e-05
0.000535808