/*--------------------------------*- C++ -*----------------------------------*\
| =========                 |                                                 |
| \\      /  F ield         | OpenFOAM: The Open Source CFD Toolbox           |
|  \\    /   O peration     | Version:  2306                                  |
|   \\  /    A nd           | Website:  www.openfoam.com                      |
|    \\/     M anipulation  |                                                 |
\*---------------------------------------------------------------------------*/
FoamFile
{
    version     2.0;
    format      ascii;
    arch        "LSB;label=32;scalar=64";
    class       volScalarField;
    location    "8";
    object      pMean;
}
// * * * * * * * * * * * * * * * * * * * * * * * * * * * * * * * * * * * * * //

dimensions      [0 2 -2 0 0 0 0];

internalField   nonuniform List<scalar> 
60000
(
-9.34469e-06
-8.3344e-06
-2.1461e-06
4.47031e-06
1.01003e-05
1.4082e-05
1.39262e-05
8.37167e-06
1.72204e-06
2.52203e-06
1.43412e-05
3.24614e-05
4.94996e-05
6.10258e-05
6.71516e-05
6.86386e-05
6.33293e-05
4.89488e-05
2.67222e-05
1.45519e-06
-2.01679e-05
-3.43148e-05
-4.16101e-05
-4.21754e-05
-3.48903e-05
-1.8828e-05
7.33694e-06
4.25984e-05
7.70884e-05
9.88915e-05
0.000106892
0.000109093
0.000112512
0.0001178
0.00012044
0.000114876
9.68749e-05
6.58338e-05
2.99471e-05
2.44296e-06
-9.33839e-06
-8.74687e-06
-2.76872e-06
3.70824e-06
9.19907e-06
1.30603e-05
1.28242e-05
7.21731e-06
5.11152e-07
1.25648e-06
1.31178e-05
3.1349e-05
4.85206e-05
6.02278e-05
6.65787e-05
6.8329e-05
6.32575e-05
4.90566e-05
2.69506e-05
1.7559e-06
-1.986e-05
-3.40803e-05
-4.15877e-05
-4.258e-05
-3.58241e-05
-2.02835e-05
5.52689e-06
4.0748e-05
7.55152e-05
9.77376e-05
0.000106148
0.000108746
0.000112539
0.000118206
0.000121239
0.000116095
9.83913e-05
6.73559e-05
3.11018e-05
3.01615e-06
-1.07471e-05
-1.04679e-05
-4.54456e-06
1.90604e-06
7.35648e-06
1.12622e-05
1.11843e-05
5.69901e-06
-1.09437e-06
-4.75306e-07
1.14699e-05
2.99398e-05
4.73552e-05
5.92906e-05
6.5902e-05
6.79681e-05
6.31987e-05
4.91849e-05
2.71448e-05
1.92977e-06
-1.97725e-05
-3.41655e-05
-4.19838e-05
-4.3429e-05
-3.71674e-05
-2.21462e-05
3.18972e-06
3.82965e-05
7.33262e-05
9.5902e-05
0.000104655
0.000107653
0.000111908
0.000118024
0.000121455
0.000116641
9.91214e-05
6.79281e-05
3.10766e-05
2.21257e-06
-1.36107e-05
-1.35542e-05
-7.52773e-06
-1.05189e-06
4.37787e-06
8.3824e-06
8.64277e-06
3.5249e-06
-3.21891e-06
-2.73141e-06
9.34524e-06
2.824e-05
4.60889e-05
5.83486e-05
6.52503e-05
6.76657e-05
6.32541e-05
4.94288e-05
2.73914e-05
2.08943e-06
-1.97681e-05
-3.44324e-05
-4.26561e-05
-4.45878e-05
-3.87451e-05
-2.41735e-05
5.91885e-07
3.54451e-05
7.06201e-05
9.33563e-05
0.000102228
0.000105593
0.000110466
0.000117219
0.000121098
0.000116474
9.89251e-05
6.74097e-05
2.97803e-05
-3.83857e-08
-1.72738e-05
-1.75084e-05
-1.14374e-05
-5.01374e-06
2.8502e-07
4.27874e-06
5.01475e-06
6.56221e-07
-5.62542e-06
-5.15924e-06
7.00209e-06
2.64005e-05
4.48778e-05
5.75848e-05
6.47801e-05
6.7519e-05
6.34427e-05
4.98108e-05
2.7766e-05
2.36055e-06
-1.96771e-05
-3.4767e-05
-4.36914e-05
-4.63429e-05
-4.09826e-05
-2.69638e-05
-2.90913e-06
3.15886e-05
6.70215e-05
9.0104e-05
9.909e-05
0.000102727
0.000108392
0.000116142
0.000120778
0.000116403
9.86031e-05
6.65696e-05
2.80422e-05
-2.90617e-06
-2.14863e-05
-2.23627e-05
-1.64015e-05
-1.01994e-05
-5.39646e-06
-1.54376e-06
-4.011e-08
-3.0442e-06
-8.15654e-06
-7.27554e-06
4.9656e-06
2.47869e-05
4.403e-05
5.73532e-05
6.48631e-05
6.78492e-05
6.40157e-05
5.04503e-05
2.8244e-05
2.58363e-06
-1.9833e-05
-3.57057e-05
-4.61383e-05
-5.05589e-05
-4.6411e-05
-3.31375e-05
-9.86385e-06
2.43002e-05
6.06378e-05
8.51241e-05
9.5135e-05
9.95678e-05
0.000106209
0.000115423
0.000121372
0.00011771
9.98122e-05
6.67967e-05
2.67101e-05
-5.85625e-06
-2.56462e-05
-2.7812e-05
-2.21156e-05
-1.64252e-05
-1.29127e-05
-1.02396e-05
-8.30504e-06
-8.86107e-06
-1.14144e-05
-8.93517e-06
3.82079e-06
2.39765e-05
4.39702e-05
5.80605e-05
6.59493e-05
6.90826e-05
6.53243e-05
5.15914e-05
2.89163e-05
2.60515e-06
-2.0564e-05
-3.75484e-05
-4.99581e-05
-5.71428e-05
-5.55692e-05
-4.38654e-05
-2.15967e-05
1.23608e-05
5.01318e-05
7.70812e-05
8.95778e-05
9.58525e-05
0.000104231
0.000115256
0.000123146
0.000121076
0.000104005
7.04666e-05
2.8238e-05
-7.43393e-06
-2.91473e-05
-3.37771e-05
-2.85328e-05
-2.29993e-05
-2.10741e-05
-2.07043e-05
-1.96962e-05
-1.87298e-05
-1.80519e-05
-1.25689e-05
2.52761e-06
2.39919e-05
4.5019e-05
5.99705e-05
6.83379e-05
7.16118e-05
6.77205e-05
5.35446e-05
3.00418e-05
2.70099e-06
-2.13211e-05
-3.87724e-05
-5.19135e-05
-6.0797e-05
-6.14388e-05
-5.17522e-05
-3.10055e-05
2.01792e-06
4.00982e-05
6.81319e-05
8.17146e-05
8.98808e-05
0.000100563
0.000114062
0.000124255
0.000124446
0.000109952
7.77489e-05
3.35821e-05
-6.47383e-06
-3.00245e-05
-3.88819e-05
-3.52319e-05
-2.9974e-05
-2.94259e-05
-3.19492e-05
-3.29267e-05
-3.15159e-05
-2.79395e-05
-1.96213e-05
-2.49487e-06
2.12863e-05
4.47542e-05
6.15402e-05
7.08586e-05
7.46891e-05
7.12035e-05
5.68294e-05
3.22663e-05
4.03299e-06
-1.99298e-05
-3.60011e-05
-4.73586e-05
-5.55905e-05
-5.6811e-05
-4.87481e-05
-2.98406e-05
1.11085e-06
3.72078e-05
6.3193e-05
7.41325e-05
8.03787e-05
9.15507e-05
0.000107354
0.000120472
0.000123199
0.000111991
8.36328e-05
4.10308e-05
-1.98155e-06
-2.60204e-05
-3.98761e-05
-3.95199e-05
-3.55934e-05
-3.66501e-05
-4.24881e-05
-4.66627e-05
-4.60701e-05
-4.08223e-05
-2.96217e-05
-1.05953e-05
1.4082e-05
3.90994e-05
5.82925e-05
6.94318e-05
7.43418e-05
7.20084e-05
5.89487e-05
3.51827e-05
7.02004e-06
-1.60449e-05
-2.89598e-05
-3.58107e-05
-4.0489e-05
-4.02483e-05
-3.26152e-05
-1.5403e-05
1.25623e-05
4.42265e-05
6.44915e-05
6.87903e-05
6.97386e-05
7.87871e-05
9.57199e-05
0.00011219
0.000117882
0.000110403
8.76528e-05
4.95829e-05
6.37196e-06
-1.32832e-05
-3.27742e-05
-3.79342e-05
-3.68791e-05
-3.9451e-05
-4.8516e-05
-5.69884e-05
-5.91775e-05
-5.39359e-05
-4.10582e-05
-2.05899e-05
4.43583e-06
2.87437e-05
4.79298e-05
6.03718e-05
6.69144e-05
6.64693e-05
5.55739e-05
3.40756e-05
8.4942e-06
-1.15986e-05
-2.07263e-05
-2.1631e-05
-2.02583e-05
-1.63248e-05
-7.40432e-06
8.58066e-06
3.27654e-05
5.8516e-05
7.12617e-05
6.68955e-05
5.96698e-05
6.43092e-05
8.15257e-05
0.00010122
0.000111262
0.000108765
9.37473e-05
6.28277e-05
2.22191e-05
1.12179e-05
-1.49669e-05
-2.75121e-05
-3.22971e-05
-3.65568e-05
-4.75081e-05
-6.02335e-05
-6.68041e-05
-6.40553e-05
-5.12412e-05
-2.91984e-05
-3.79246e-06
1.91701e-05
3.55506e-05
4.56455e-05
5.16001e-05
5.24105e-05
4.45982e-05
2.67088e-05
4.68e-06
-1.07131e-05
-1.40075e-05
-8.40309e-06
7.75643e-07
1.01624e-05
2.14613e-05
3.60158e-05
5.52196e-05
7.42698e-05
8.13922e-05
7.1106e-05
5.68566e-05
5.58804e-05
7.10479e-05
9.22383e-05
0.000106844
0.000110055
0.00010361
8.21303e-05
4.72307e-05
3.77075e-05
8.17495e-06
-1.07479e-05
-2.15011e-05
-2.90194e-05
-4.04482e-05
-5.56397e-05
-6.66765e-05
-6.85969e-05
-5.88744e-05
-3.74854e-05
-1.03752e-05
1.26809e-05
2.64756e-05
3.2071e-05
3.44909e-05
3.47611e-05
2.89423e-05
1.54568e-05
-1.64515e-06
-1.28055e-05
-1.13979e-05
1.64582e-06
1.93047e-05
3.52909e-05
4.86871e-05
6.16712e-05
7.54299e-05
8.80832e-05
9.17099e-05
8.18646e-05
6.52723e-05
5.89681e-05
6.90629e-05
8.8919e-05
0.000105656
0.000112969
0.000112422
9.97583e-05
7.18922e-05
5.8123e-05
2.95977e-05
7.74979e-06
-6.38986e-06
-1.59867e-05
-2.70081e-05
-4.29007e-05
-5.77208e-05
-6.50548e-05
-6.08067e-05
-4.30923e-05
-1.59541e-05
8.43518e-06
2.12808e-05
2.38158e-05
2.33795e-05
2.28077e-05
1.82845e-05
7.54687e-06
-5.42182e-06
-1.4575e-05
-1.25615e-05
2.85411e-06
2.63194e-05
4.80877e-05
6.4631e-05
7.74789e-05
8.78869e-05
9.59487e-05
9.8112e-05
9.23576e-05
7.94462e-05
7.18946e-05
7.65796e-05
9.06383e-05
0.000104997
0.000113623
0.000115759
0.000108604
8.74793e-05
7.33045e-05
4.98715e-05
2.94497e-05
1.43767e-05
4.05991e-06
-6.85772e-06
-2.32784e-05
-4.13219e-05
-5.36315e-05
-5.55341e-05
-4.37772e-05
-1.97125e-05
5.35112e-06
1.98129e-05
2.28679e-05
2.18435e-05
2.07332e-05
1.75785e-05
8.80478e-06
-2.42148e-06
-1.09224e-05
-1.08268e-05
1.92469e-06
2.4791e-05
5.00258e-05
7.02666e-05
8.33477e-05
9.16216e-05
9.56018e-05
9.64261e-05
9.42929e-05
8.75326e-05
8.21647e-05
8.40168e-05
9.29764e-05
0.000102997
0.000109805
0.00011155
0.000107237
9.44416e-05
8.58728e-05
6.82818e-05
5.00551e-05
3.56981e-05
2.54508e-05
1.4293e-05
-2.02702e-06
-2.24083e-05
-3.85405e-05
-4.51085e-05
-3.92154e-05
-2.07572e-05
1.83305e-06
1.74516e-05
2.30909e-05
2.34535e-05
2.23956e-05
1.95527e-05
1.20422e-05
2.45512e-06
-4.00627e-06
-3.54872e-06
6.47435e-06
2.57084e-05
5.01456e-05
7.16856e-05
8.52744e-05
9.1435e-05
9.05891e-05
8.78514e-05
8.71734e-05
8.45593e-05
8.16511e-05
8.35651e-05
9.03718e-05
9.79661e-05
0.000102807
0.000104162
0.000102829
9.7967e-05
9.34466e-05
7.99882e-05
6.36639e-05
4.9506e-05
3.97884e-05
3.00239e-05
1.49668e-05
-4.89384e-06
-2.24466e-05
-3.24492e-05
-3.17284e-05
-1.95444e-05
-8.75008e-07
1.41793e-05
2.1319e-05
2.32926e-05
2.30805e-05
2.0794e-05
1.49332e-05
7.46131e-06
4.07035e-06
7.06462e-06
1.63736e-05
3.17378e-05
5.15808e-05
7.05234e-05
8.36018e-05
8.92488e-05
8.65057e-05
8.15242e-05
7.99182e-05
8.02765e-05
7.98933e-05
8.05253e-05
8.46609e-05
9.014e-05
9.44537e-05
9.65864e-05
9.78141e-05
9.89274e-05
9.25434e-05
8.3538e-05
6.95241e-05
5.63834e-05
4.77294e-05
3.9643e-05
2.64611e-05
8.64978e-06
-7.88044e-06
-1.93335e-05
-2.33131e-05
-1.75634e-05
-3.18126e-06
1.25825e-05
2.22003e-05
2.53326e-05
2.54486e-05
2.36588e-05
1.92519e-05
1.38039e-05
1.08541e-05
1.31742e-05
2.04625e-05
3.35435e-05
5.02677e-05
6.64607e-05
7.84209e-05
8.34922e-05
8.10714e-05
7.49819e-05
7.17162e-05
7.33046e-05
7.6754e-05
8.04201e-05
8.43049e-05
8.86947e-05
9.19213e-05
9.32714e-05
9.44654e-05
9.49997e-05
8.54035e-05
7.69928e-05
6.40384e-05
5.20459e-05
4.53597e-05
4.14917e-05
3.32897e-05
1.85575e-05
1.27055e-06
-1.1645e-05
-1.81302e-05
-1.83675e-05
-1.10496e-05
1.73643e-06
1.36545e-05
2.09311e-05
2.47023e-05
2.59427e-05
2.55083e-05
2.44175e-05
2.35069e-05
2.49017e-05
3.04536e-05
4.05145e-05
5.47285e-05
6.92717e-05
7.86206e-05
8.12767e-05
7.81084e-05
7.17081e-05
6.66463e-05
6.73677e-05
7.10554e-05
7.5201e-05
7.90503e-05
8.42106e-05
8.8717e-05
8.98198e-05
8.87988e-05
8.80763e-05
6.71234e-05
5.8883e-05
4.76275e-05
3.72159e-05
3.09945e-05
2.77461e-05
2.325e-05
1.51716e-05
3.55093e-06
-7.84373e-06
-1.6313e-05
-2.06012e-05
-1.83857e-05
-1.06554e-05
-2.02009e-06
4.56014e-06
9.21875e-06
1.301e-05
1.58102e-05
1.75908e-05
1.98239e-05
2.41147e-05
3.1745e-05
4.27511e-05
5.50165e-05
6.57675e-05
7.10654e-05
6.89888e-05
6.31993e-05
5.73956e-05
5.58447e-05
5.75791e-05
6.16478e-05
6.42185e-05
6.62143e-05
7.02403e-05
7.50969e-05
7.70678e-05
7.53199e-05
7.18178e-05
6.01719e-05
5.13969e-05
3.93796e-05
2.8187e-05
2.00091e-05
1.43207e-05
8.47202e-06
1.5793e-06
-6.03835e-06
-1.25999e-05
-1.82866e-05
-2.28922e-05
-2.54441e-05
-2.41196e-05
-1.90313e-05
-1.24186e-05
-6.11286e-06
-8.9358e-07
3.63265e-06
7.50922e-06
1.07435e-05
1.57724e-05
2.5142e-05
3.91153e-05
5.35365e-05
6.34621e-05
6.5101e-05
5.85711e-05
4.72142e-05
3.90851e-05
3.65472e-05
3.7725e-05
4.02287e-05
4.14773e-05
4.25148e-05
4.6472e-05
5.32013e-05
6.09083e-05
6.51854e-05
6.48577e-05
6.95496e-05
6.08794e-05
4.89244e-05
3.86712e-05
3.15387e-05
2.61393e-05
1.83766e-05
7.90533e-06
-2.77084e-06
-1.145e-05
-1.73244e-05
-2.06962e-05
-2.36655e-05
-2.57029e-05
-2.49932e-05
-2.02946e-05
-1.39863e-05
-8.22881e-06
-3.00295e-06
2.278e-06
8.05788e-06
1.49758e-05
2.55402e-05
4.08487e-05
5.64187e-05
6.77724e-05
7.07112e-05
6.27684e-05
4.79982e-05
3.5439e-05
2.98894e-05
2.96113e-05
3.16583e-05
2.98508e-05
2.69111e-05
2.75745e-05
3.53938e-05
4.88792e-05
6.27303e-05
7.04752e-05
6.40662e-05
5.93567e-05
4.92e-05
3.88156e-05
3.13699e-05
2.59485e-05
2.10015e-05
1.4008e-05
5.09344e-06
-4.36665e-06
-1.21526e-05
-1.71182e-05
-1.92616e-05
-1.91038e-05
-1.69324e-05
-1.174e-05
-4.94185e-06
1.57748e-06
7.41442e-06
1.36403e-05
2.04279e-05
2.68988e-05
3.43152e-05
4.47811e-05
5.69564e-05
6.64177e-05
6.93908e-05
6.42646e-05
5.28801e-05
4.11917e-05
3.51114e-05
3.54145e-05
3.83106e-05
3.89213e-05
3.51791e-05
3.27572e-05
3.55654e-05
4.31443e-05
5.33318e-05
6.16231e-05
5.168e-05
4.64733e-05
3.6701e-05
2.71797e-05
2.01953e-05
1.52665e-05
1.0966e-05
4.87236e-06
-1.90075e-06
-7.5558e-06
-1.13773e-05
-1.26835e-05
-1.12381e-05
-8.61962e-06
-4.72364e-06
1.70675e-07
5.56834e-06
1.05648e-05
1.51627e-05
2.03416e-05
2.74334e-05
3.45859e-05
4.09639e-05
4.769e-05
5.45193e-05
5.93078e-05
6.00317e-05
5.50239e-05
4.46353e-05
3.24978e-05
2.44367e-05
2.35129e-05
2.70385e-05
2.9763e-05
3.00753e-05
2.90729e-05
3.05407e-05
3.59051e-05
4.36361e-05
5.00536e-05
3.93455e-05
3.36694e-05
2.39277e-05
1.40542e-05
7.29569e-06
3.86115e-06
7.97371e-07
-3.92607e-06
-9.04651e-06
-1.4191e-05
-1.77592e-05
-1.71821e-05
-1.33727e-05
-8.36311e-06
-2.41564e-06
4.83238e-06
1.25671e-05
2.07801e-05
2.93226e-05
3.78692e-05
4.52561e-05
4.95636e-05
5.05615e-05
5.09697e-05
5.22634e-05
5.20313e-05
4.81597e-05
3.99658e-05
2.8581e-05
1.69353e-05
9.49757e-06
1.01476e-05
1.53122e-05
2.06993e-05
2.54417e-05
2.77156e-05
2.96637e-05
3.31258e-05
3.69876e-05
3.97654e-05
1.96159e-05
6.57922e-09
-1.26604e-05
-2.32146e-05
-3.1468e-05
-3.67262e-05
-4.01593e-05
-4.31665e-05
-4.35124e-05
-3.65365e-05
-2.1739e-05
-4.41705e-06
9.94718e-06
2.01802e-05
2.85968e-05
3.58635e-05
3.87322e-05
3.33868e-05
1.89553e-05
-6.41649e-08
-1.54963e-05
-2.13346e-05
-1.77379e-05
-7.61179e-06
8.96329e-06
3.39615e-05
6.846e-05
0.000110515
0.000150512
0.000175244
0.00018296
0.000185038
0.000189443
0.000192336
0.000190829
0.000185506
0.000171473
0.000140946
9.63928e-05
5.20221e-05
2.09204e-05
9.87441e-07
-1.20382e-05
-2.29022e-05
-3.14373e-05
-3.69617e-05
-4.06398e-05
-4.39038e-05
-4.44746e-05
-3.76069e-05
-2.2779e-05
-5.3882e-06
9.0319e-06
1.93113e-05
2.78052e-05
3.52103e-05
3.82659e-05
3.3111e-05
1.88064e-05
-2.43335e-07
-1.59166e-05
-2.21576e-05
-1.90645e-05
-9.49182e-06
6.53039e-06
3.10812e-05
6.53282e-05
0.000107384
0.000147627
0.00017272
0.000180748
0.000183124
0.000187907
0.000191263
0.000190234
0.000185481
0.000172191
0.000142329
9.80834e-05
5.3621e-05
2.16231e-05
1.31294e-06
-1.21321e-05
-2.34107e-05
-3.23572e-05
-3.81954e-05
-4.21009e-05
-4.55552e-05
-4.62891e-05
-3.94451e-05
-2.44726e-05
-6.89387e-06
7.62857e-06
1.7952e-05
2.6551e-05
3.41888e-05
3.75626e-05
3.2738e-05
1.86469e-05
-4.32796e-07
-1.63806e-05
-2.30064e-05
-2.0351e-05
-1.1234e-05
4.28432e-06
2.84373e-05
6.25333e-05
0.000104681
0.00014519
0.000170483
0.000178509
0.000180999
0.000186243
0.000190185
0.00018964
0.000185512
0.000173102
0.000143939
9.97555e-05
5.48425e-05
2.12911e-05
5.85909e-07
-1.33503e-05
-2.52808e-05
-3.49401e-05
-4.12464e-05
-4.52409e-05
-4.85763e-05
-4.91649e-05
-4.21188e-05
-2.68206e-05
-8.91872e-06
5.75696e-06
1.61143e-05
2.48403e-05
3.27999e-05
3.66174e-05
3.22737e-05
1.85196e-05
-4.98085e-07
-1.66164e-05
-2.34618e-05
-2.10024e-05
-1.2115e-05
3.06449e-06
2.68872e-05
6.09047e-05
0.000103165
0.000143858
0.000169035
0.000176518
0.000178691
0.000184332
0.000188993
0.00018895
0.000185471
0.000174
0.000145454
0.000101003
5.52347e-05
1.97699e-05
-1.22849e-06
-1.56991e-05
-2.8656e-05
-3.95333e-05
-4.65805e-05
-5.04379e-05
-5.30084e-05
-5.27787e-05
-4.52066e-05
-2.95043e-05
-1.12169e-05
3.67808e-06
1.40547e-05
2.28422e-05
3.11025e-05
3.53982e-05
3.15921e-05
1.829e-05
-5.29004e-07
-1.66924e-05
-2.36419e-05
-2.12411e-05
-1.24567e-05
2.44934e-06
2.59935e-05
5.98321e-05
0.000102105
0.000142991
0.000168088
0.00017481
0.000176217
0.000181939
0.000187326
0.000187838
0.000185019
0.000174532
0.000146545
0.000101587
5.45957e-05
1.74002e-05
-3.79456e-06
-1.87916e-05
-3.34068e-05
-4.62115e-05
-5.45752e-05
-5.82342e-05
-5.9206e-05
-5.70052e-05
-4.81075e-05
-3.18399e-05
-1.32245e-05
1.95199e-06
1.24066e-05
2.1176e-05
2.95762e-05
3.42009e-05
3.08494e-05
1.79564e-05
-7.0526e-07
-1.70192e-05
-2.4344e-05
-2.24687e-05
-1.44265e-05
-4.9347e-07
2.21416e-05
5.53956e-05
9.76582e-05
0.000139284
0.000165355
0.00017238
0.000173377
0.000179012
0.000184848
0.000185902
0.000183842
0.000174461
0.000147212
0.000101691
5.32088e-05
1.61712e-05
-5.004e-06
-2.01646e-05
-3.69674e-05
-5.34962e-05
-6.4632e-05
-6.8982e-05
-6.8188e-05
-6.28887e-05
-5.13378e-05
-3.37175e-05
-1.45737e-05
1.01513e-06
1.17817e-05
2.06001e-05
2.89934e-05
3.36926e-05
3.05138e-05
1.76756e-05
-1.39978e-06
-1.8753e-05
-2.74906e-05
-2.73429e-05
-2.15088e-05
-1.01559e-05
1.0125e-05
4.19823e-05
8.43283e-05
0.000127769
0.00015677
0.000166098
0.0001682
0.000174454
0.00018078
0.000182123
0.000181128
0.00017355
0.000147873
0.000102724
5.30812e-05
1.98099e-05
-1.55555e-06
-1.65729e-05
-3.53292e-05
-5.65614e-05
-7.29456e-05
-8.04729e-05
-7.94882e-05
-7.14457e-05
-5.70012e-05
-3.73601e-05
-1.68523e-05
-1.61024e-07
1.14584e-05
2.07682e-05
2.93816e-05
3.42487e-05
3.10875e-05
1.78086e-05
-2.72595e-06
-2.27035e-05
-3.44791e-05
-3.73027e-05
-3.48455e-05
-2.71679e-05
-1.01084e-05
1.97883e-05
6.20752e-05
0.000107733
0.000140632
0.000153821
0.000158213
0.000165944
0.000173395
0.000175025
0.000175138
0.000170798
0.000149011
0.000106552
5.75154e-05
3.15124e-05
8.84692e-06
-6.53931e-06
-2.69572e-05
-5.30365e-05
-7.62349e-05
-8.93464e-05
-9.06103e-05
-8.17857e-05
-6.49706e-05
-4.35381e-05
-2.15819e-05
-3.26768e-06
9.7463e-06
1.97987e-05
2.87691e-05
3.41414e-05
3.1595e-05
1.83047e-05
-3.97516e-06
-2.74627e-05
-4.30617e-05
-4.87783e-05
-4.87595e-05
-4.38005e-05
-2.92598e-05
-1.33199e-06
3.99059e-05
8.57383e-05
0.000120703
0.000136935
0.000143252
0.000152178
0.000161595
0.000164425
0.00016572
0.000165471
0.000150768
0.000115081
6.95449e-05
5.01052e-05
2.51755e-05
8.1289e-06
-1.36724e-05
-4.34537e-05
-7.34386e-05
-9.37928e-05
-9.99577e-05
-9.26262e-05
-7.50302e-05
-5.17673e-05
-2.82422e-05
-8.84093e-06
5.20318e-06
1.59736e-05
2.53749e-05
3.12217e-05
2.93959e-05
1.69394e-05
-5.08277e-06
-3.01582e-05
-4.851e-05
-5.60458e-05
-5.68232e-05
-5.29093e-05
-3.99572e-05
-1.37194e-05
2.52446e-05
6.8529e-05
0.000102134
0.000118713
0.00012603
0.00013568
0.000147377
0.000153405
0.000157515
0.000161577
0.000154536
0.000127085
8.71922e-05
7.23548e-05
4.33455e-05
2.30488e-05
6.46721e-07
-3.00532e-05
-6.42033e-05
-9.1769e-05
-0.000104602
-0.000101237
-8.4692e-05
-6.06813e-05
-3.55469e-05
-1.5405e-05
-1.715e-06
8.5104e-06
1.78995e-05
2.43759e-05
2.34251e-05
1.19607e-05
-8.66376e-06
-3.22996e-05
-5.00999e-05
-5.70413e-05
-5.62016e-05
-5.13212e-05
-3.89848e-05
-1.45331e-05
2.08472e-05
5.87766e-05
8.81305e-05
0.000102655
0.000109481
0.000119667
0.000134347
0.00014577
0.000155083
0.000164397
0.000165135
0.000145477
0.00010997
9.54417e-05
6.13938e-05
3.58958e-05
1.2827e-05
-1.60124e-05
-5.02788e-05
-8.24302e-05
-0.000102707
-0.00010537
-9.30888e-05
-7.03182e-05
-4.34067e-05
-2.19851e-05
-9.32798e-06
-1.20951e-06
6.94087e-06
1.36198e-05
1.36615e-05
3.16004e-06
-1.60204e-05
-3.69358e-05
-5.13363e-05
-5.48611e-05
-5.05422e-05
-4.28351e-05
-3.04422e-05
-8.3217e-06
2.29637e-05
5.45057e-05
7.85707e-05
9.11682e-05
9.67531e-05
0.000105801
0.000121433
0.000137731
0.00015292
0.000167578
0.000175662
0.000164561
0.000133838
0.000114613
7.7304e-05
4.71893e-05
2.30857e-05
-2.37916e-06
-3.42468e-05
-6.81227e-05
-9.43238e-05
-0.000104712
-9.89558e-05
-7.93415e-05
-5.19864e-05
-2.78335e-05
-1.47803e-05
-8.80131e-06
-3.18785e-06
2.51457e-06
2.69289e-06
-7.3923e-06
-2.55447e-05
-4.40388e-05
-5.5134e-05
-5.52042e-05
-4.66746e-05
-3.48615e-05
-2.11685e-05
-1.03077e-06
2.64214e-05
5.18731e-05
7.13968e-05
8.32455e-05
8.96336e-05
9.69907e-05
0.00011128
0.00012887
0.000147049
0.000164737
0.000178418
0.000175841
0.000151708
0.00012597
8.96228e-05
5.81046e-05
3.39547e-05
1.17491e-05
-1.68351e-05
-5.04182e-05
-8.02391e-05
-9.69356e-05
-9.83501e-05
-8.42331e-05
-5.79199e-05
-3.14868e-05
-1.62167e-05
-1.08877e-05
-7.35052e-06
-2.99266e-06
-2.23862e-06
-1.04603e-05
-2.61871e-05
-4.21678e-05
-5.15004e-05
-5.01755e-05
-3.96473e-05
-2.47729e-05
-9.43232e-06
9.09907e-06
3.30797e-05
5.29767e-05
6.77747e-05
7.83027e-05
8.57762e-05
9.20764e-05
0.000103788
0.000119661
0.000136669
0.000153569
0.000169317
0.000173814
0.000158
0.000128459
9.86121e-05
6.93873e-05
4.57617e-05
2.52364e-05
-3.1843e-07
-3.26291e-05
-6.39843e-05
-8.45365e-05
-9.09018e-05
-8.24138e-05
-5.91832e-05
-3.1886e-05
-1.35193e-05
-5.73066e-06
-2.57952e-06
7.46033e-08
8.04442e-07
-5.46649e-06
-1.80753e-05
-3.13845e-05
-3.92954e-05
-3.82165e-05
-2.84307e-05
-1.30821e-05
3.96561e-06
2.33531e-05
4.36439e-05
5.86342e-05
6.80069e-05
7.58894e-05
8.35576e-05
8.90579e-05
9.7801e-05
0.000110216
0.000123958
0.000137437
0.000150962
0.000158553
0.000150965
0.000130655
0.000108978
8.30354e-05
5.92051e-05
3.82652e-05
1.4544e-05
-1.5519e-05
-4.68881e-05
-6.96697e-05
-7.89537e-05
-7.43443e-05
-5.61272e-05
-3.04623e-05
-9.95512e-06
2.45806e-07
3.98887e-06
5.1871e-06
3.69459e-06
-2.68636e-06
-1.41014e-05
-2.53125e-05
-3.06772e-05
-2.79505e-05
-1.81e-05
-2.60225e-06
1.67837e-05
3.76794e-05
5.50486e-05
6.47284e-05
6.88465e-05
7.40384e-05
8.15164e-05
8.70428e-05
9.35135e-05
0.000103723
0.000115719
0.00012731
0.000137519
0.000144586
0.000143367
0.000132151
0.00011655
9.41736e-05
7.09111e-05
4.98056e-05
2.78759e-05
1.6964e-06
-2.73768e-05
-5.06501e-05
-6.25179e-05
-6.24718e-05
-5.13313e-05
-3.09796e-05
-1.02907e-05
3.05295e-06
9.51124e-06
1.19867e-05
1.10536e-05
5.04791e-06
-5.10458e-06
-1.48496e-05
-1.79669e-05
-1.39245e-05
-4.26007e-06
1.04732e-05
2.9694e-05
4.89576e-05
6.37693e-05
6.97528e-05
7.01591e-05
7.29629e-05
8.01596e-05
8.70263e-05
9.29842e-05
0.000101136
0.000110963
0.000120142
0.000127879
0.000134905
0.000137786
0.00012597
0.000115891
9.79885e-05
7.72318e-05
5.82544e-05
3.98588e-05
1.82739e-05
-4.42911e-06
-2.37117e-05
-3.5729e-05
-4.16516e-05
-3.96926e-05
-2.82773e-05
-1.12963e-05
3.30734e-06
1.17616e-05
1.64574e-05
1.81757e-05
1.4993e-05
5.50318e-06
-4.1158e-06
-7.13581e-06
-2.57767e-06
7.19691e-06
2.15564e-05
3.95787e-05
5.67706e-05
6.88389e-05
7.33065e-05
7.2781e-05
7.34593e-05
7.87326e-05
8.55523e-05
9.24223e-05
9.96282e-05
0.000107172
0.000113314
0.00011791
0.00012311
0.00012757
0.000108298
0.000102162
8.98186e-05
7.52352e-05
6.19438e-05
4.9534e-05
3.48498e-05
1.73147e-05
-2.24538e-07
-1.19653e-05
-1.86146e-05
-2.29969e-05
-2.1806e-05
-1.22872e-05
4.86843e-07
1.00688e-05
1.57404e-05
1.83782e-05
1.78028e-05
1.29528e-05
6.35562e-06
3.6512e-06
6.80313e-06
1.61418e-05
3.07508e-05
4.70398e-05
6.09545e-05
7.00052e-05
7.34106e-05
7.32125e-05
7.32039e-05
7.60297e-05
8.01817e-05
8.49662e-05
9.08319e-05
9.76277e-05
0.000102409
0.00010361
0.000104556
0.000107593
8.58165e-05
8.04529e-05
7.1715e-05
6.16791e-05
5.26595e-05
4.45854e-05
3.512e-05
2.35028e-05
9.87527e-06
-3.24945e-06
-1.35767e-05
-2.09192e-05
-2.29956e-05
-1.8972e-05
-1.06267e-05
-1.77389e-06
5.23639e-06
1.04166e-05
1.27095e-05
1.1687e-05
7.9095e-06
5.49684e-06
9.47685e-06
1.92131e-05
3.17883e-05
4.48181e-05
5.49326e-05
6.09358e-05
6.30024e-05
6.39594e-05
6.7193e-05
7.05476e-05
7.31695e-05
7.53203e-05
7.86368e-05
8.41184e-05
8.90951e-05
9.06986e-05
8.98244e-05
8.8292e-05
7.65293e-05
6.97687e-05
6.0699e-05
5.14522e-05
4.37951e-05
3.59981e-05
2.667e-05
1.63351e-05
5.74832e-06
-4.93102e-06
-1.54438e-05
-2.48805e-05
-3.20131e-05
-3.43458e-05
-3.12663e-05
-2.46785e-05
-1.72866e-05
-1.05014e-05
-4.93475e-06
-9.04266e-07
8.16053e-07
2.44313e-06
8.74766e-06
2.05305e-05
3.3139e-05
4.36693e-05
5.08948e-05
5.43057e-05
5.46916e-05
5.4714e-05
5.66431e-05
5.94981e-05
6.02593e-05
6.00612e-05
6.1706e-05
6.67306e-05
7.46085e-05
8.05062e-05
8.27273e-05
8.10434e-05
8.0333e-05
7.32888e-05
6.42828e-05
5.64293e-05
5.12086e-05
4.51638e-05
3.62133e-05
2.37994e-05
1.1049e-05
-1.94459e-07
-1.01643e-05
-2.0014e-05
-2.9313e-05
-3.70149e-05
-4.05719e-05
-3.94262e-05
-3.43395e-05
-2.80067e-05
-2.25789e-05
-1.7574e-05
-1.23643e-05
-6.27171e-06
3.34552e-06
1.83787e-05
3.54622e-05
4.89224e-05
5.65361e-05
5.79764e-05
5.43607e-05
5.00474e-05
4.89697e-05
5.08351e-05
5.24072e-05
5.2109e-05
5.08334e-05
5.30911e-05
6.03936e-05
7.03144e-05
7.91219e-05
8.27847e-05
7.14273e-05
6.74601e-05
5.98236e-05
5.17076e-05
4.50806e-05
3.96003e-05
3.37425e-05
2.59142e-05
1.71973e-05
9.01832e-06
1.99087e-06
-4.04279e-06
-9.94087e-06
-1.55154e-05
-1.88951e-05
-1.8636e-05
-1.50619e-05
-1.02479e-05
-5.91352e-06
-2.48233e-06
1.04759e-06
4.80638e-06
1.03852e-05
1.96872e-05
3.20509e-05
4.31217e-05
4.89546e-05
4.92532e-05
4.52102e-05
4.04775e-05
3.86626e-05
4.03542e-05
4.39314e-05
4.6296e-05
4.58868e-05
4.62081e-05
4.99639e-05
5.68458e-05
6.41872e-05
7.02343e-05
5.98048e-05
5.5451e-05
4.72595e-05
3.84426e-05
3.14606e-05
2.62334e-05
2.16399e-05
1.57291e-05
8.91528e-06
2.07293e-06
-3.67585e-06
-7.26353e-06
-8.54236e-06
-8.41823e-06
-6.73933e-06
-3.58576e-06
2.21678e-07
3.87707e-06
7.38802e-06
1.11811e-05
1.6031e-05
2.1704e-05
2.6417e-05
3.18473e-05
3.87245e-05
4.49394e-05
4.76966e-05
4.60292e-05
4.00587e-05
3.22391e-05
2.71779e-05
2.72668e-05
3.06939e-05
3.38556e-05
3.55699e-05
3.64518e-05
3.89805e-05
4.44869e-05
5.19591e-05
5.81375e-05
4.65294e-05
3.99476e-05
3.00841e-05
2.01562e-05
1.2698e-05
8.24465e-06
4.54891e-06
-1.43524e-07
-5.19193e-06
-1.014e-05
-1.37158e-05
-1.42097e-05
-1.2152e-05
-8.22121e-06
-2.61627e-06
4.46437e-06
1.20723e-05
1.94397e-05
2.64434e-05
3.28255e-05
3.78689e-05
4.06504e-05
4.15336e-05
4.31234e-05
4.62286e-05
4.80303e-05
4.63425e-05
4.10095e-05
3.28956e-05
2.47139e-05
2.07549e-05
2.13959e-05
2.53224e-05
2.95746e-05
3.3205e-05
3.56503e-05
3.8033e-05
4.14834e-05
4.55879e-05
4.80913e-05
7.0355e-05
3.54394e-05
7.22719e-06
-1.2495e-05
-2.32383e-05
-2.74244e-05
-2.90042e-05
-3.15142e-05
-3.448e-05
-3.39965e-05
-2.86882e-05
-2.18455e-05
-1.69407e-05
-1.30955e-05
-6.28781e-06
3.95838e-06
1.26233e-05
1.44452e-05
9.10836e-06
5.28137e-07
-5.56473e-06
-4.60135e-06
2.7444e-06
1.27412e-05
2.53497e-05
4.30749e-05
6.7496e-05
0.000100389
0.000137952
0.000171226
0.000196073
0.000216889
0.000232145
0.000236336
0.00023122
0.00022149
0.000205858
0.000180331
0.000146126
0.000108208
7.21186e-05
3.72535e-05
8.95125e-06
-1.09645e-05
-2.20144e-05
-2.65291e-05
-2.83944e-05
-3.1141e-05
-3.42966e-05
-3.39323e-05
-2.86634e-05
-2.18124e-05
-1.69104e-05
-1.31444e-05
-6.48484e-06
3.66496e-06
1.22729e-05
1.40133e-05
8.55362e-06
-1.51195e-07
-6.35597e-06
-5.48585e-06
1.7994e-06
1.16662e-05
2.40301e-05
4.14197e-05
6.5399e-05
9.77849e-05
0.000134887
0.00016785
0.000192528
0.00021343
0.000229083
0.00023376
0.000229197
0.000220206
0.000205452
0.000180771
0.000147218
0.000109724
7.40041e-05
3.87315e-05
9.94137e-06
-1.05358e-05
-2.21013e-05
-2.69613e-05
-2.8958e-05
-3.17216e-05
-3.49035e-05
-3.45725e-05
-2.92851e-05
-2.23795e-05
-1.74927e-05
-1.38376e-05
-7.2327e-06
2.99189e-06
1.17557e-05
1.35607e-05
8.03812e-06
-7.79664e-07
-7.12317e-06
-6.37897e-06
8.69655e-07
1.06575e-05
2.28121e-05
3.99615e-05
6.35746e-05
9.54617e-05
0.000132033
0.000164516
0.000188841
0.000209883
0.00022623
0.000231627
0.000227696
0.000219453
0.000205646
0.00018189
0.000148964
0.000111688
7.59103e-05
3.96856e-05
9.74545e-06
-1.18845e-05
-2.43794e-05
-2.9672e-05
-3.15982e-05
-3.40353e-05
-3.6922e-05
-3.64791e-05
-3.10997e-05
-2.41021e-05
-1.92442e-05
-1.57202e-05
-9.08882e-06
1.48739e-06
1.07898e-05
1.29498e-05
7.5269e-06
-1.29911e-06
-7.68525e-06
-6.96613e-06
3.45785e-07
1.01773e-05
2.2199e-05
3.92305e-05
6.26416e-05
9.41789e-05
0.000130308
0.000162204
0.000185868
0.000206893
0.000224146
0.000230479
0.000227231
0.000219704
0.000206763
0.000183836
0.000151399
0.000114114
7.81966e-05
4.04626e-05
8.61868e-06
-1.49482e-05
-2.90037e-05
-3.50371e-05
-3.67665e-05
-3.84377e-05
-4.06071e-05
-3.98489e-05
-3.43841e-05
-2.73528e-05
-2.25915e-05
-1.92481e-05
-1.26298e-05
-1.48088e-06
8.76548e-06
1.16514e-05
6.55675e-06
-2.12146e-06
-8.37436e-06
-7.47258e-06
1.3112e-07
1.01938e-05
2.22139e-05
3.91622e-05
6.2498e-05
9.38384e-05
0.000129854
0.000161404
0.000184195
0.000204793
0.000222906
0.000230351
0.000227927
0.000221149
0.000208924
0.000186593
0.000154474
0.000117104
8.13936e-05
4.18666e-05
7.30324e-06
-1.91606e-05
-3.56951e-05
-4.30801e-05
-4.46334e-05
-4.50353e-05
-4.58632e-05
-4.4436e-05
-3.89434e-05
-3.20723e-05
-2.75719e-05
-2.46127e-05
-1.79429e-05
-6.09363e-06
5.28575e-06
9.21442e-06
4.70689e-06
-3.73834e-06
-9.9337e-06
-9.01763e-06
-1.18093e-06
9.27099e-06
2.14713e-05
3.83982e-05
6.15104e-05
9.25989e-05
0.000129068
0.000161334
0.000183859
0.000203814
0.000222397
0.000230969
0.000229665
0.000223936
0.000212392
0.000190393
0.000158398
0.000120971
8.63047e-05
4.50072e-05
7.2119e-06
-2.32709e-05
-4.36825e-05
-5.35736e-05
-5.53693e-05
-5.40238e-05
-5.25699e-05
-4.96817e-05
-4.39173e-05
-3.73449e-05
-3.3325e-05
-3.08641e-05
-2.43426e-05
-1.19048e-05
7.13215e-07
5.96809e-06
2.28937e-06
-6.02602e-06
-1.27006e-05
-1.27008e-05
-5.81295e-06
3.93776e-06
1.56586e-05
3.22079e-05
5.48338e-05
8.54812e-05
0.000122882
0.000157751
0.000182032
0.000202271
0.00022132
0.000230985
0.000231301
0.000227621
0.000217456
0.000195807
0.000163778
0.000126372
9.3793e-05
5.11133e-05
1.00606e-05
-2.50552e-05
-5.08268e-05
-6.52276e-05
-6.87133e-05
-6.59618e-05
-6.15384e-05
-5.60648e-05
-4.91862e-05
-4.24683e-05
-3.86559e-05
-3.66742e-05
-3.07357e-05
-1.80975e-05
-4.60086e-06
2.07806e-06
-3.08413e-07
-8.46376e-06
-1.65238e-05
-1.88783e-05
-1.46e-05
-7.35362e-06
2.18454e-06
1.72378e-05
3.8898e-05
6.87682e-05
0.000107038
0.000144976
0.000172997
0.00019517
0.000215666
0.000227002
0.000229452
0.000229404
0.000223006
0.000203259
0.00017156
0.000134141
0.000103966
6.02213e-05
1.69388e-05
-2.2114e-05
-5.36805e-05
-7.41112e-05
-8.17871e-05
-7.97531e-05
-7.34619e-05
-6.59203e-05
-5.79847e-05
-5.06686e-05
-4.65313e-05
-4.43407e-05
-3.85644e-05
-2.64728e-05
-1.28492e-05
-5.14589e-06
-5.93892e-06
-1.32459e-05
-2.25516e-05
-2.81748e-05
-2.74409e-05
-2.32978e-05
-1.65102e-05
-3.30364e-06
1.77298e-05
4.7131e-05
8.52267e-05
0.000124169
0.000154479
0.000178482
0.000200795
0.00021491
0.000220278
0.000224808
0.000224811
0.000210711
0.000181933
0.000144778
0.000116697
7.16315e-05
2.68222e-05
-1.41129e-05
-4.99134e-05
-7.65936e-05
-9.01482e-05
-9.11843e-05
-8.5712e-05
-7.79361e-05
-7.00982e-05
-6.33672e-05
-5.95185e-05
-5.74877e-05
-5.19091e-05
-4.01569e-05
-2.67932e-05
-1.80183e-05
-1.66409e-05
-2.23494e-05
-3.1984e-05