/*--------------------------------*- C++ -*----------------------------------*\
| =========                 |                                                 |
| \\      /  F ield         | OpenFOAM: The Open Source CFD Toolbox           |
|  \\    /   O peration     | Version:  2306                                  |
|   \\  /    A nd           | Website:  www.openfoam.com                      |
|    \\/     M anipulation  |                                                 |
\*---------------------------------------------------------------------------*/
FoamFile
{
    version     2.0;
    format      ascii;
    arch        "LSB;label=32;scalar=64";
    class       volScalarField;
    location    "8";
    object      pPrime2Mean;
}
// * * * * * * * * * * * * * * * * * * * * * * * * * * * * * * * * * * * * * //

dimensions      [0 4 -4 0 0 0 0];

internalField   nonuniform List<scalar> 
60000
(
4.26253e-09
8.22105e-09
1.64523e-08
2.48006e-08
3.03174e-08
3.24051e-08
3.14358e-08
2.80709e-08
2.39427e-08
2.25438e-08
2.68046e-08
3.48999e-08
4.15416e-08
4.24501e-08
3.63806e-08
2.54231e-08
1.46425e-08
8.16623e-09
5.68011e-09
4.90068e-09
6.25273e-09
1.30139e-08
2.55997e-08
3.93813e-08
4.82453e-08
4.8081e-08
3.93528e-08
2.81059e-08
2.25715e-08
2.58181e-08
3.23155e-08
3.52689e-08
3.27237e-08
2.6263e-08
1.85178e-08
1.28035e-08
1.08736e-08
1.11385e-08
9.7064e-09
5.93244e-09
4.067e-09
7.89108e-09
1.6146e-08
2.46346e-08
3.02734e-08
3.2392e-08
3.13747e-08
2.79319e-08
2.37355e-08
2.23021e-08
2.66176e-08
3.48401e-08
4.16003e-08
4.25935e-08
3.658e-08
2.56328e-08
1.48083e-08
8.26279e-09
5.71643e-09
4.88536e-09
6.18778e-09
1.29134e-08
2.5489e-08
3.9263e-08
4.81325e-08
4.80062e-08
3.93401e-08
2.81196e-08
2.25777e-08
2.58537e-08
3.24649e-08
3.55699e-08
3.31429e-08
2.67049e-08
1.88698e-08
1.30096e-08
1.09703e-08
1.12031e-08
9.77385e-09
5.91659e-09
3.79819e-09
7.5569e-09
1.59555e-08
2.47021e-08
3.05563e-08
3.27646e-08
3.16941e-08
2.80796e-08
2.36621e-08
2.20179e-08
2.62922e-08
3.46851e-08
4.16851e-08
4.28897e-08
3.70044e-08
2.60418e-08
1.50728e-08
8.35855e-09
5.69938e-09
4.80335e-09
6.07086e-09
1.28169e-08
2.54627e-08
3.93009e-08
4.82066e-08
4.80627e-08
3.93009e-08
2.79517e-08
2.23696e-08
2.57642e-08
3.26089e-08
3.59677e-08
3.37272e-08
2.7319e-08
1.93171e-08
1.32001e-08
1.09859e-08
1.11973e-08
9.79615e-09
5.83631e-09
3.45229e-09
7.22245e-09
1.59079e-08
2.50544e-08
3.12341e-08
3.36208e-08
3.25171e-08
2.86423e-08
2.38369e-08
2.17709e-08
2.58444e-08
3.44118e-08
4.17754e-08
4.33325e-08
3.76674e-08
2.66775e-08
1.54606e-08
8.46284e-09
5.61948e-09
4.63568e-09
5.90903e-09
1.2774e-08
2.56005e-08
3.9581e-08
4.85284e-08
4.8262e-08
3.92245e-08
2.75684e-08
2.19479e-08
2.56015e-08
3.28084e-08
3.64899e-08
3.44868e-08
2.81123e-08
1.98709e-08
1.33824e-08
1.09219e-08
1.1124e-08
9.77935e-09
5.69186e-09
3.04551e-09
6.82027e-09
1.58633e-08
2.55211e-08
3.21465e-08
3.48389e-08
3.38246e-08
2.97184e-08
2.44527e-08
2.17799e-08
2.53805e-08
3.39497e-08
4.16874e-08
4.37136e-08
3.84182e-08
2.74955e-08
1.60066e-08
8.62246e-09
5.50545e-09
4.39223e-09
5.68409e-09
1.27323e-08
2.57896e-08
3.99564e-08
4.90411e-08
4.87549e-08
3.94212e-08
2.7373e-08
2.16711e-08
2.56177e-08
3.32003e-08
3.71718e-08
3.53898e-08
2.90679e-08
2.05788e-08
1.36842e-08
1.09178e-08
1.10915e-08
9.79883e-09
5.54198e-09
2.59608e-09
6.3277e-09
1.57395e-08
2.59862e-08
3.3159e-08
3.62641e-08
3.54497e-08
3.12349e-08
2.55835e-08
2.22986e-08
2.52202e-08
3.34602e-08
4.136e-08
4.38108e-08
3.89943e-08
2.83224e-08
1.66824e-08
8.89235e-09
5.38643e-09
4.03341e-09
5.30941e-09
1.25732e-08
2.58138e-08
3.99714e-08
4.91305e-08
4.90998e-08
3.99336e-08
2.78769e-08
2.22051e-08
2.64157e-08
3.42564e-08
3.82861e-08
3.65459e-08
3.02028e-08
2.14549e-08
1.41928e-08
1.11567e-08
1.13255e-08
1.00499e-08
5.48704e-09
2.2786e-09
5.46837e-09
1.51099e-08
2.61236e-08
3.42653e-08
3.8246e-08
3.78372e-08
3.32114e-08
2.70312e-08
2.33198e-08
2.56719e-08
3.33829e-08
4.10887e-08
4.3675e-08
3.92397e-08
2.89429e-08
1.73564e-08
9.26393e-09
5.31284e-09
3.56236e-09
4.66784e-09
1.21859e-08
2.58367e-08
4.00648e-08
4.89588e-08
4.87925e-08
3.98191e-08
2.82202e-08
2.32606e-08
2.83789e-08
3.68195e-08
4.07856e-08
3.85731e-08
3.16947e-08
2.24236e-08
1.48264e-08
1.16643e-08
1.19697e-08
1.09915e-08
6.08771e-09
2.38623e-09
4.32773e-09
1.37852e-08
2.55552e-08
3.48785e-08
4.01459e-08
4.08348e-08
3.63566e-08
2.91966e-08
2.44338e-08
2.64744e-08
3.4137e-08
4.15867e-08
4.38655e-08
3.93851e-08
2.92942e-08
1.78804e-08
9.65198e-09
5.30264e-09
3.05424e-09
3.86928e-09
1.18284e-08
2.63732e-08
4.09741e-08
4.92339e-08
4.77877e-08
3.78301e-08
2.63228e-08
2.27316e-08
2.97642e-08
3.96902e-08
4.45147e-08
4.23729e-08
3.45681e-08
2.38532e-08
1.52357e-08
1.18466e-08
1.25945e-08
1.24689e-08
7.53473e-09
3.08677e-09
3.17077e-09
1.2029e-08
2.45405e-08
3.52449e-08
4.19113e-08
4.4012e-08
4.03094e-08
3.25201e-08
2.61603e-08
2.68121e-08
3.45303e-08
4.26815e-08
4.51203e-08
4.03432e-08
2.99322e-08
1.83217e-08
9.91444e-09
5.26326e-09
2.59999e-09
3.28951e-09
1.21258e-08
2.8298e-08
4.36643e-08
5.07824e-08
4.66213e-08
3.38087e-08
2.1276e-08
1.94441e-08
2.96219e-08
4.20491e-08
4.80434e-08
4.62274e-08
3.77449e-08
2.54996e-08
1.57815e-08
1.21304e-08
1.32069e-08
1.40828e-08
9.63337e-09
4.55688e-09
2.19619e-09
9.82251e-09
2.29366e-08
3.52546e-08
4.35257e-08
4.7208e-08
4.48201e-08
3.69242e-08
2.87942e-08
2.70691e-08
3.34678e-08
4.19122e-08
4.53753e-08
4.1461e-08
3.15333e-08
1.97448e-08
1.06143e-08
5.21416e-09
2.15767e-09
3.10978e-09
1.36457e-08
3.2636e-08
4.97063e-08
5.58505e-08
4.80324e-08
3.05785e-08
1.52043e-08
1.42684e-08
2.77963e-08
4.31913e-08
5.10818e-08
5.03578e-08
4.16134e-08
2.75807e-08
1.63798e-08
1.24939e-08
1.39879e-08
1.58738e-08
1.2255e-08
6.64841e-09
1.72489e-09
7.11661e-09
1.99646e-08
3.38311e-08
4.42097e-08
4.9788e-08
4.94118e-08
4.22842e-08
3.25971e-08
2.77578e-08
3.15392e-08
3.90591e-08
4.29953e-08
4.04086e-08
3.21956e-08
2.17461e-08
1.25203e-08
5.88532e-09
1.84774e-09
3.24065e-09
1.62822e-08
3.95719e-08
6.00987e-08
6.64047e-08
5.51567e-08
3.2376e-08
1.21784e-08
9.36522e-09
2.41172e-08
4.15814e-08
5.14762e-08
5.32999e-08
4.6326e-08
3.1859e-08
1.87792e-08
1.36302e-08
1.47389e-08
1.71735e-08
1.46761e-08
8.12437e-09
1.80454e-09
4.41351e-09
1.55741e-08
2.98202e-08
4.22973e-08
5.02248e-08
5.24205e-08
4.7364e-08
3.75857e-08
2.98673e-08
3.02923e-08
3.54324e-08
3.84179e-08
3.61986e-08
2.98435e-08
2.18737e-08
1.42232e-08
7.49979e-09
2.5568e-09
3.76743e-09
1.86418e-08
4.59678e-08
7.06066e-08
7.8478e-08
6.56099e-08
3.91416e-08
1.40312e-08
6.10769e-09
1.81601e-08
3.59737e-08
4.76792e-08
5.29781e-08
5.00757e-08
3.76891e-08
2.35971e-08
1.65162e-08
1.59544e-08
1.76013e-08
1.56423e-08
8.67414e-09
2.09194e-09
2.37591e-09
1.07548e-08
2.35907e-08
3.70105e-08
4.72408e-08
5.21292e-08
4.97474e-08
4.15201e-08
3.30779e-08
3.04729e-08
3.31065e-08
3.42931e-08
3.09829e-08
2.50751e-08
1.92083e-08
1.40744e-08
9.12664e-09
5.04109e-09
6.07613e-09
1.97428e-08
4.69362e-08
7.33891e-08
8.30937e-08
7.15413e-08
4.5351e-08
1.85121e-08
5.12813e-09
1.09545e-08
2.6782e-08
3.99173e-08
4.83354e-08
5.04478e-08
4.22752e-08
2.94625e-08
2.09675e-08
1.82796e-08
1.8043e-08
1.55779e-08
8.65734e-09
2.4952e-09
1.37826e-09
6.58255e-09
1.66783e-08
2.94531e-08
4.11039e-08
4.80325e-08
4.79923e-08
4.21966e-08
3.51669e-08
3.14544e-08
3.24771e-08
3.29625e-08
2.88394e-08
2.24107e-08
1.68569e-08
1.29413e-08
9.94063e-09
7.76047e-09
9.32528e-09
2.04162e-08
4.35892e-08
6.90287e-08
8.0623e-08
7.23159e-08
4.93383e-08
2.34401e-08
6.57042e-09
5.77306e-09
1.71242e-08
3.07505e-08
4.15442e-08
4.69874e-08
4.35595e-08
3.41446e-08
2.52763e-08
2.04723e-08
1.83328e-08
1.50694e-08
9.16384e-09
3.98004e-09
1.86266e-09
3.91538e-09
1.07287e-08
2.17022e-08
3.34265e-08
4.13e-08
4.2872e-08
3.93309e-08
3.46318e-08
3.17838e-08
3.23035e-08
3.33967e-08
3.04524e-08
2.41506e-08
1.7952e-08
1.33193e-08
9.96213e-09
8.29496e-09
1.01943e-08
1.90068e-08
3.74401e-08
6.02946e-08
7.39134e-08
6.98018e-08
5.12742e-08
2.7681e-08
9.62751e-09
4.1241e-09
1.08068e-08
2.31567e-08
3.4615e-08
4.22246e-08
4.24952e-08
3.66911e-08
2.86518e-08
2.23147e-08
1.8625e-08
1.48292e-08
1.01602e-08
6.3536e-09
4.01908e-09
3.60517e-09
6.99641e-09
1.51459e-08
2.55812e-08
3.31461e-08
3.53401e-08
3.35616e-08
3.13771e-08
3.07367e-08
3.19342e-08
3.35459e-08
3.2128e-08
2.69748e-08
2.06745e-08
1.50608e-08
1.03863e-08
8.10319e-09
1.04971e-08
1.81828e-08
3.1947e-08
4.9924e-08
6.29804e-08
6.25556e-08
4.95161e-08
3.02008e-08
1.32304e-08
5.07978e-09
7.57829e-09
1.73221e-08
2.82453e-08
3.68976e-08
4.06615e-08
3.85605e-08
3.20074e-08
2.46176e-08
1.93867e-08
1.49619e-08
1.12157e-08
8.58693e-09
6.78009e-09
5.50133e-09
6.64591e-09
1.15614e-08
1.89255e-08
2.47323e-08
2.68119e-08
2.61708e-08
2.60615e-08
2.80756e-08
3.13588e-08
3.40376e-08
3.33159e-08
2.86379e-08
2.24005e-08
1.66427e-08
1.15601e-08
9.18713e-09
1.23793e-08
1.98107e-08
2.94361e-08
4.11242e-08
5.06054e-08
5.20236e-08
4.36992e-08
2.96783e-08
1.59207e-08
7.34685e-09
6.7434e-09
1.37027e-08
2.37897e-08
3.25981e-08
3.78483e-08
3.83304e-08
3.3763e-08
2.68376e-08
2.08894e-08
1.56573e-08
1.05601e-08
9.80281e-09
9.83638e-09
9.20874e-09
9.09665e-09
1.08067e-08
1.41535e-08
1.68886e-08
1.78559e-08
1.8186e-08
2.01691e-08
2.48919e-08
3.09508e-08
3.50109e-08
3.47326e-08
3.01837e-08
2.37555e-08
1.7503e-08
1.21675e-08
9.89145e-09
1.34928e-08
2.09454e-08
2.89141e-08
3.68336e-08
4.32624e-08
4.43344e-08
3.86359e-08
2.74953e-08
1.61539e-08
8.93193e-09
8.30921e-09
1.41063e-08
2.3528e-08
3.26012e-08
3.82587e-08
3.83357e-08
3.27782e-08
2.47024e-08
1.80057e-08
1.35173e-08
9.21828e-09
1.03316e-08
1.20546e-08
1.29011e-08
1.3569e-08
1.40758e-08
1.4108e-08
1.33343e-08
1.17302e-08
1.11298e-08
1.34853e-08
1.94207e-08
2.77354e-08
3.47882e-08
3.69304e-08
3.4006e-08
2.84447e-08
2.24975e-08
1.66969e-08
1.27048e-08
1.36458e-08
1.85773e-08
2.43143e-08
3.0834e-08
3.72625e-08
3.9523e-08
3.51127e-08
2.59807e-08
1.59049e-08
9.39438e-09
9.01453e-09
1.445e-08
2.37299e-08
3.30374e-08
3.8672e-08
3.83279e-08
3.18575e-08
2.25619e-08
1.48554e-08
1.05413e-08
8.63173e-09
1.01865e-08
1.26822e-08
1.46784e-08
1.60863e-08
1.67932e-08
1.63069e-08
1.46608e-08
1.24389e-08
1.07157e-08
1.09221e-08
1.37253e-08
1.9133e-08
2.56339e-08
3.0452e-08
3.16017e-08
3.0095e-08
2.81891e-08
2.5567e-08
2.14352e-08
1.82576e-08
1.79932e-08
1.9746e-08
2.44927e-08
3.16777e-08
3.62102e-08
3.39497e-08
2.64138e-08
1.72379e-08
1.04647e-08
8.61483e-09
1.28998e-08
2.1798e-08
3.14248e-08
3.75557e-08
3.75841e-08
3.13194e-08
2.20959e-08
1.41251e-08
9.59358e-09
7.08165e-09
7.77219e-09
1.09699e-08
1.50054e-08
1.89328e-08
2.1336e-08
2.08109e-08
1.79158e-08
1.45248e-08
1.18754e-08
1.09996e-08
1.22308e-08
1.51991e-08
1.94342e-08
2.41704e-08
2.75906e-08
2.88445e-08
2.92876e-08
2.90685e-08
2.64813e-08
2.23036e-08
1.95435e-08
1.94718e-08
2.31513e-08
3.05449e-08
3.65212e-08
3.52315e-08
2.68784e-08
1.62257e-08
8.01999e-09
6.13873e-09
1.21817e-08
2.37903e-08
3.57143e-08
4.34646e-08
4.44291e-08
3.86659e-08
2.83741e-08
1.79426e-08
1.04788e-08
1.15179e-08
9.74474e-09
9.85249e-09
1.1317e-08
1.38635e-08
1.65529e-08
1.79912e-08
1.73577e-08
1.53721e-08
1.33777e-08
1.23924e-08
1.28596e-08
1.47949e-08
1.74062e-08
2.03337e-08
2.33865e-08
2.58237e-08
2.80192e-08
2.96613e-08
2.89349e-08
2.57685e-08
2.25869e-08
2.11649e-08
2.27101e-08
2.8213e-08
3.42827e-08
3.52141e-08
2.88743e-08
1.80736e-08
8.05089e-09
4.3963e-09
1.02243e-08
2.34881e-08
3.84993e-08
4.88749e-08
5.18875e-08
4.70732e-08
3.67132e-08
2.52118e-08
1.64325e-08
1.51489e-08
1.26137e-08
1.16729e-08
1.14994e-08
1.15882e-08
1.24122e-08
1.36468e-08
1.45242e-08
1.47127e-08
1.46805e-08
1.49098e-08
1.57932e-08
1.73269e-08
1.91252e-08
2.09558e-08
2.26427e-08
2.41992e-08
2.55963e-08
2.65999e-08
2.6397e-08
2.45521e-08
2.22829e-08
2.10771e-08
2.1724e-08
2.46974e-08
2.86261e-08
2.95354e-08
2.50302e-08
1.70041e-08
9.43247e-09
5.87175e-09
8.75612e-09
1.78354e-08
2.94153e-08
3.83605e-08
4.20462e-08
4.0329e-08
3.49102e-08
2.74605e-08
2.02222e-08
1.7555e-08
1.23006e-08
9.20743e-09
8.27305e-09
9.298e-09
1.2055e-08
1.57395e-08
1.90652e-08
2.08344e-08
2.10508e-08
2.05073e-08
1.94259e-08
1.79619e-08
1.72281e-08
1.81611e-08
2.0513e-08
2.35848e-08
2.65683e-08
2.84466e-08
2.84888e-08
2.59875e-08
2.22176e-08
1.90917e-08
1.75492e-08
1.84484e-08
2.17858e-08
2.46423e-08
2.36953e-08
1.90446e-08
1.34715e-08
9.92225e-09
1.02993e-08
1.53268e-08
2.34583e-08
3.1056e-08
3.54284e-08
3.61619e-08
3.40679e-08
2.9888e-08
2.40344e-08
1.99002e-08
1.37147e-08
9.21896e-09
7.22207e-09
7.98956e-09
1.11529e-08
1.57515e-08
2.02487e-08
2.29896e-08
2.39345e-08
2.37736e-08
2.29177e-08
2.20136e-08
2.13854e-08
2.10818e-08
2.18695e-08
2.44683e-08
2.79074e-08
3.06748e-08
3.09552e-08
2.75101e-08
2.18712e-08
1.64297e-08
1.23524e-08
1.13476e-08
1.46486e-08
2.00218e-08
2.35306e-08
2.32301e-08
2.02636e-08
1.71601e-08
1.5332e-08
1.65463e-08
2.11282e-08
2.67476e-08
3.14038e-08
3.39346e-08
3.37963e-08
3.10686e-08
2.60913e-08
3.8925e-09
3.38566e-15
4.20447e-09
1.43677e-08
2.59801e-08
3.54847e-08
4.00794e-08
3.83163e-08
3.22344e-08
2.7686e-08
2.94192e-08
3.55038e-08
3.98957e-08
3.88169e-08
3.23755e-08
2.3228e-08
1.52635e-08
1.09305e-08
9.2254e-09
7.81467e-09
7.54108e-09
1.3059e-08
2.72326e-08
4.65467e-08
6.31324e-08
6.9212e-08
6.13498e-08
4.35199e-08
2.65538e-08
2.00217e-08
2.16599e-08
2.51439e-08
2.67106e-08
2.45276e-08
1.91974e-08
1.41655e-08
1.32376e-08
1.58268e-08
1.67033e-08
1.17945e-08
4.07504e-09
3.68458e-12
3.99532e-09
1.40035e-08
2.55495e-08
3.50724e-08
3.97517e-08
3.80763e-08
3.20434e-08
2.75155e-08
2.92992e-08
3.54834e-08
3.99729e-08
3.89497e-08
3.25262e-08
2.33694e-08
1.53781e-08
1.10092e-08
9.27345e-09
7.8271e-09
7.46147e-09
1.27933e-08
2.67312e-08
4.58722e-08
6.24768e-08
6.88246e-08
6.1373e-08
4.38553e-08
2.69254e-08
2.02692e-08
2.18265e-08
2.53192e-08
2.69867e-08
2.4924e-08
1.96367e-08
1.45373e-08
1.34899e-08
1.60229e-08
1.69294e-08
1.20441e-08
4.32839e-09
2.26835e-11
3.87235e-09
1.38606e-08
2.54788e-08
3.51421e-08
3.99449e-08
3.82778e-08
3.21059e-08
2.73996e-08
2.91445e-08
3.54481e-08
4.00893e-08
3.91562e-08
3.27588e-08
2.35779e-08
1.5533e-08
1.11081e-08
9.33333e-09
7.83566e-09
7.35831e-09
1.25286e-08
2.63287e-08
4.54248e-08
6.2133e-08
6.87483e-08
6.16083e-08
4.42573e-08
2.72238e-08
2.03817e-08
2.18297e-08
2.53291e-08
2.71836e-08
2.53522e-08
2.01652e-08
1.49677e-08
1.37534e-08
1.62639e-08
1.72947e-08
1.24545e-08
4.6648e-09
8.61281e-11
3.93411e-09
1.40918e-08
2.59271e-08
3.58491e-08
4.08458e-08
3.91147e-08
3.25744e-08
2.74117e-08
2.89319e-08
3.53336e-08
4.01894e-08
3.93991e-08
3.30419e-08
2.38251e-08
1.57017e-08
1.12043e-08
9.38973e-09
7.83595e-09
7.25716e-09
1.23692e-08
2.62328e-08
4.54773e-08
6.23411e-08
6.90881e-08
6.19942e-08
4.45532e-08
2.72888e-08
2.02959e-08
2.16774e-08
2.51597e-08
2.72182e-08
2.56956e-08
2.06862e-08
1.54231e-08
1.40575e-08
1.66159e-08
1.78818e-08
1.30723e-08
5.19395e-09
2.59738e-10
4.22538e-09
1.47166e-08
2.68712e-08
3.71689e-08
4.25078e-08
4.07428e-08
3.36809e-08
2.7764e-08
2.87558e-08
3.50854e-08
4.01335e-08
3.95268e-08
3.32503e-08
2.40265e-08
1.58494e-08
1.12905e-08
9.42824e-09
7.80906e-09
7.14707e-09
1.23052e-08
2.64104e-08
4.59678e-08
6.30435e-08
6.98429e-08
6.26873e-08
4.50025e-08
2.73832e-08
2.02245e-08
2.157e-08
2.49384e-08
2.70367e-08
2.57479e-08
2.0971e-08
1.57906e-08
1.44485e-08
1.72188e-08
1.88438e-08
1.40509e-08
6.13592e-09
6.4384e-10
4.73863e-09
1.56012e-08
2.81009e-08
3.88599e-08
4.47615e-08
4.3156e-08
3.55773e-08
2.87823e-08
2.89809e-08
3.49008e-08
3.99205e-08
3.94232e-08
3.32313e-08
2.40547e-08
1.59106e-08
1.13624e-08
9.47327e-09
7.74676e-09
6.93702e-09
1.20976e-08
2.64094e-08
4.62312e-08
6.35759e-08
7.07625e-08
6.40945e-08
4.6531e-08
2.84809e-08
2.08974e-08
2.20663e-08
2.51242e-08
2.68601e-08
2.54346e-08
2.07832e-08
1.58763e-08
1.49374e-08
1.8259e-08
2.04522e-08
1.56709e-08
7.95865e-09
1.41175e-09
5.41907e-09
1.66779e-08
2.93124e-08
4.04638e-08
4.71469e-08
4.60252e-08
3.80504e-08
3.04358e-08
2.98977e-08
3.52416e-08
3.99299e-08
3.92723e-08
3.30065e-08
2.38422e-08
1.57989e-08
1.1372e-08
9.52644e-09
7.63383e-09
6.43296e-09
1.13027e-08
2.56919e-08
4.58162e-08
6.35299e-08
7.13658e-08
6.57816e-08
4.91505e-08
3.10952e-08
2.31054e-08
2.41272e-08
2.67215e-08
2.75413e-08
2.52405e-08
2.01853e-08
1.5517e-08
1.54429e-08
1.99047e-08
2.30791e-08
1.8453e-08
1.0891e-08
2.68245e-09
5.92814e-09
1.74305e-08
3.02286e-08
4.15759e-08
4.92172e-08
4.91406e-08
4.10736e-08
3.22574e-08
3.06573e-08
3.5602e-08
4.02521e-08
3.95488e-08
3.30452e-08
2.36444e-08
1.55233e-08
1.12141e-08
9.50874e-09
7.46141e-09
5.59431e-09
9.76564e-09
2.41442e-08
4.48753e-08
6.33145e-08
7.18702e-08
6.70687e-08
5.13251e-08
3.38364e-08
2.60853e-08
2.7495e-08
3.00507e-08
2.99401e-08
2.62683e-08
2.01186e-08
1.51175e-08
1.58597e-08
2.18381e-08
2.6479e-08
2.23303e-08
1.45151e-08
4.51712e-09
6.28169e-09
1.76259e-08
3.05271e-08
4.19221e-08
5.05038e-08
5.20584e-08
4.47725e-08
3.48111e-08
3.12937e-08
3.49927e-08
3.94621e-08
3.93022e-08
3.33395e-08
2.40468e-08
1.56458e-08
1.10322e-08
9.30132e-09
7.21463e-09
4.75259e-09
8.0052e-09
2.20458e-08
4.29443e-08
6.14967e-08
6.99734e-08
6.49631e-08
4.96679e-08
3.40056e-08
2.83766e-08
3.1153e-08
3.40032e-08
3.31612e-08
2.82388e-08
2.10995e-08
1.55867e-08
1.6682e-08
2.35575e-08
2.95646e-08
2.64365e-08
1.83153e-08
6.93071e-09
6.74252e-09
1.74726e-08
3.06747e-08
4.19615e-08
5.09687e-08
5.42973e-08
4.85636e-08
3.81838e-08
3.2606e-08
3.42854e-08
3.78108e-08
3.78508e-08
3.284e-08
2.4542e-08
1.64514e-08
1.13813e-08
9.13495e-09
6.92955e-09
4.31783e-09
7.03888e-09
2.0727e-08
4.14028e-08
5.90416e-08
6.60962e-08
5.94129e-08
4.33463e-08
3.0104e-08
2.86007e-08
3.45441e-08
3.88265e-08
3.78125e-08
3.16109e-08
2.30526e-08
1.65841e-08
1.78579e-08
2.52719e-08
3.20585e-08
3.01166e-08
2.1774e-08
9.63414e-09
7.10616e-09
1.633e-08
3.01277e-08
4.21609e-08
5.12308e-08
5.56494e-08
5.18654e-08
4.18776e-08
3.45789e-08
3.38246e-08
3.57546e-08
3.53758e-08
3.10296e-08
2.41186e-08
1.71682e-08
1.21708e-08
9.36738e-09
6.82469e-09
4.38224e-09
7.43003e-09
2.14746e-08
4.21094e-08
5.83178e-08
6.27909e-08
5.34179e-08
3.56307e-08
2.38907e-08
2.63052e-08
3.62186e-08
4.32957e-08
4.3702e-08
3.77319e-08
2.79514e-08
1.93586e-08
1.92473e-08
2.61039e-08
3.29577e-08
3.23834e-08
2.36853e-08
1.16385e-08
6.70091e-09
1.32227e-08
2.69504e-08
4.07141e-08
5.06753e-08
5.58885e-08
5.36243e-08
4.48985e-08
3.69303e-08
3.39356e-08
3.4063e-08
3.28637e-08
2.85909e-08
2.27271e-08
1.71692e-08
1.28691e-08
9.95016e-09
7.24793e-09
5.28669e-09
9.34838e-09
2.44539e-08
4.57596e-08
6.09305e-08
6.29057e-08
5.12234e-08
3.13966e-08
1.88071e-08
2.19536e-08
3.40513e-08
4.40334e-08
4.72932e-08
4.36281e-08
3.45384e-08
2.47854e-08
2.27496e-08
2.78049e-08
3.30985e-08
3.27574e-08
2.36e-08
1.23807e-08
5.6321e-09
8.82576e-09
2.11273e-08
3.59783e-08
4.7269e-08
5.32261e-08
5.27803e-08
4.60982e-08
3.91158e-08
3.5544e-08
3.40517e-08
3.1719e-08
2.66509e-08
2.09483e-08
1.65056e-08
1.33179e-08
1.0814e-08
8.39276e-09
7.27381e-09
1.20905e-08
2.73627e-08
4.87105e-08
6.35402e-08
6.41842e-08
5.17382e-08
3.14043e-08
1.7338e-08
1.75528e-08
2.80943e-08
3.93856e-08
4.58137e-08
4.59911e-08
4.02185e-08
3.13426e-08
2.76499e-08
3.02136e-08
3.28935e-08
3.14688e-08
2.18326e-08
1.18971e-08
4.26828e-09
4.41719e-09
1.40073e-08
2.86471e-08
4.10539e-08
4.79721e-08
4.90975e-08
4.48463e-08
4.04544e-08
3.79574e-08
3.58405e-08
3.25064e-08
2.67293e-08
2.05827e-08
1.63936e-08
1.38091e-08
1.18154e-08
9.96069e-09
9.45899e-09
1.36379e-08
2.65084e-08
4.56635e-08
6.03022e-08
6.17764e-08
5.08197e-08
3.23204e-08
1.81685e-08
1.50694e-08
2.15249e-08
3.12095e-08
3.90968e-08
4.30015e-08
4.19822e-08
3.63793e-08
3.20787e-08
3.17644e-08
3.16349e-08
2.8774e-08
1.97328e-08
1.11821e-08
3.52774e-09
1.2232e-09
7.37722e-09
2.04088e-08
3.32526e-08
4.13446e-08
4.40764e-08
4.21859e-08
4.03188e-08
3.95911e-08
3.77356e-08
3.45708e-08
2.94687e-08
2.34532e-08
1.81327e-08
1.39046e-08
1.08362e-08
9.19959e-09
9.73972e-09
1.3796e-08
2.41097e-08
4.06379e-08
5.53111e-08
5.90085e-08
4.96673e-08
3.29445e-08
1.90405e-08
1.3783e-08
1.6711e-08
2.41216e-08
3.20455e-08
3.79758e-08
4.03205e-08
3.80728e-08
3.41495e-08
3.17641e-08
2.97929e-08
2.61405e-08
1.69998e-08
1.03871e-08
3.95782e-09
1.54201e-10
2.52553e-09
1.19903e-08
2.38098e-08
3.25938e-08
3.69121e-08
3.74918e-08
3.79215e-08
3.95406e-08
3.9337e-08
3.68392e-08
3.22683e-08
2.63025e-08
1.98742e-08
1.38037e-08
9.31702e-09
7.80827e-09
9.98068e-09
1.53135e-08
2.42748e-08
3.77526e-08
5.14015e-08
5.65686e-08
4.88321e-08
3.34308e-08
1.98198e-08
1.31555e-08
1.37558e-08
1.96425e-08
2.75187e-08
3.47645e-08
3.96029e-08
3.96471e-08
3.54049e-08
3.06247e-08
2.69399e-08
2.26565e-08
1.52792e-08
1.03115e-08
5.42531e-09
1.8908e-09
2.11822e-09
6.82914e-09
1.39778e-08
2.04158e-08
2.4855e-08
2.78398e-08
3.15246e-08
3.70526e-08
4.09773e-08
4.02879e-08
3.55532e-08
2.86492e-08
2.12054e-08
1.46182e-08
9.63094e-09
7.78378e-09
1.05926e-08
1.70796e-08
2.54394e-08
3.56759e-08
4.6334e-08
5.10031e-08
4.49216e-08
3.17093e-08
1.96873e-08
1.30606e-08
1.23551e-08
1.71406e-08
2.48595e-08
3.25584e-08
3.83897e-08
3.99103e-08
3.6114e-08
3.00968e-08
2.49296e-08
2.02491e-08
1.40521e-08
1.15082e-08
8.83261e-09
6.53302e-09
6.17671e-09
7.77234e-09
1.0037e-08
1.18436e-08
1.34465e-08
1.64546e-08
2.25967e-08
3.19998e-08
4.07601e-08
4.35982e-08
3.97453e-08
3.17981e-08
2.26117e-08
1.50542e-08
1.01245e-08
8.51509e-09
1.12906e-08
1.78793e-08
2.59535e-08
3.47519e-08
4.33098e-08
4.69481e-08
4.17896e-08
3.01688e-08
1.88301e-08
1.21878e-08
1.14114e-08
1.59393e-08
2.35843e-08
3.12897e-08
3.70702e-08
3.85127e-08
3.43513e-08
2.74057e-08
2.13007e-08
1.70039e-08
1.30405e-08
1.30579e-08
1.27888e-08
1.24025e-08
1.29435e-08
1.3529e-08
1.24021e-08
9.83013e-09
7.6111e-09
7.92579e-09
1.24773e-08
2.13379e-08
3.23686e-08
4.06918e-08
4.16582e-08
3.58476e-08
2.7067e-08
1.92518e-08
1.36256e-08
1.05121e-08
1.15309e-08
1.66877e-08
2.38437e-08
3.20013e-08
4.00205e-08
4.37688e-08
3.95428e-08
2.94375e-08
1.87398e-08
1.19817e-08
1.08096e-08
1.4839e-08
2.22897e-08
3.02272e-08
3.56566e-08
3.63214e-08
3.18068e-08
2.44408e-08
1.78415e-08
1.41627e-08
1.20431e-08
1.35359e-08
1.50965e-08
1.58076e-08
1.58543e-08
1.53524e-08
1.38402e-08
1.12396e-08
8.58048e-09
7.10527e-09
8.25123e-09
1.28287e-08
2.03519e-08
2.83193e-08
3.34377e-08
3.36509e-08
3.00844e-08
2.56672e-08
2.15725e-08
1.71977e-08
1.41105e-08
1.45511e-08
1.86247e-08
2.56091e-08
3.43797e-08
4.0174e-08
3.83065e-08
2.99219e-08
2.02119e-08
1.35029e-08
1.15343e-08
1.49957e-08
2.1938e-08
2.90837e-08
3.34342e-08
3.32117e-08
2.85124e-08
2.14727e-08
1.51688e-08
1.21374e-08
1.00107e-08
1.14776e-08
1.39918e-08
1.65555e-08
1.87925e-08
1.97286e-08
1.79866e-08
1.42139e-08
1.03563e-08
7.7278e-09
7.14115e-09
9.15821e-09
1.33923e-08
1.91532e-08
2.49204e-08
2.89555e-08
3.06375e-08
3.06352e-08
2.90133e-08
2.48668e-08
1.9719e-08
1.73873e-08
1.93507e-08
2.45323e-08
3.17029e-08
3.6814e-08
3.50489e-08
2.69209e-08
1.74455e-08
1.08585e-08
1.00162e-08
1.52516e-08
2.40528e-08
3.22349e-08
3.65509e-08
3.60943e-08
3.11578e-08
2.36925e-08
1.6034e-08
1.11474e-08
1.32796e-08
1.30334e-08
1.34625e-08
1.44427e-08
1.56996e-08
1.65521e-08
1.60986e-08
1.40957e-08
1.16039e-08
9.78112e-09
9.2132e-09
1.00607e-08
1.19988e-08
1.45011e-08
1.7587e-08
2.11306e-08
2.47631e-08
2.79731e-08
3.02442e-08
3.02092e-08
2.7897e-08
2.58368e-08
2.57496e-08
2.72384e-08
3.01135e-08
3.28146e-08
3.1599e-08
2.52995e-08
1.65438e-08
9.43986e-09
7.73292e-09
1.28682e-08
2.26023e-08
3.25294e-08
3.87267e-08
3.92385e-08
3.49326e-08
2.80418e-08
2.06621e-08
1.53884e-08
1.55134e-08
1.4061e-08
1.38796e-08
1.38273e-08
1.38457e-08
1.39984e-08
1.38483e-08
1.31741e-08
1.20607e-08
1.14835e-08
1.22094e-08
1.4118e-08
1.64276e-08
1.81939e-08
1.89793e-08
1.92635e-08
1.98261e-08
2.10354e-08
2.2599e-08
2.35928e-08
2.33069e-08
2.27055e-08
2.31608e-08
2.50275e-08
2.77903e-08
3.02284e-08
3.00646e-08
2.53828e-08
1.78249e-08
1.1135e-08
8.5641e-09
1.16053e-08
1.91512e-08
2.79932e-08
3.42903e-08
3.61185e-08
3.40765e-08
2.98153e-08
2.45819e-08
1.91602e-08
1.74207e-08
1.37105e-08
1.15219e-08
1.04608e-08
1.05477e-08
1.16767e-08
1.35493e-08
1.55669e-08
1.68907e-08
1.74112e-08
1.75193e-08
1.74368e-08
1.74587e-08
1.77927e-08
1.88106e-08
2.04043e-08
2.22797e-08
2.39997e-08
2.4926e-08
2.46025e-08
2.288e-08
2.04735e-08
1.91732e-08
1.93921e-08
2.07868e-08
2.30202e-08
2.45774e-08
2.30733e-08
1.85339e-08
1.36849e-08
1.12438e-08
1.24574e-08
1.73131e-08
2.4299e-08
3.03483e-08
3.33161e-08
3.32094e-08
3.11003e-08
2.74576e-08
2.25552e-08
1.97061e-08
1.39456e-08
9.4607e-09
7.16243e-09
7.52046e-09
1.01454e-08
1.42381e-08
1.85525e-08
2.15505e-08
2.28387e-08
2.29892e-08
2.26012e-08
2.21575e-08
2.18109e-08
2.15481e-08
2.20067e-08
2.38529e-08
2.63597e-08
2.82033e-08
2.81455e-08
2.53232e-08
2.05679e-08
1.61916e-08
1.35585e-08
1.33244e-08
1.60059e-08
2.0096e-08
2.23814e-08
2.17329e-08
1.94651e-08
1.72946e-08
1.64259e-08
1.7558e-08
2.10468e-08
2.5221e-08
2.86741e-08
3.07027e-08
3.10995e-08
2.93584e-08
2.53961e-08
5.04161e-09
2.49015e-09
2.00695e-09
4.97604e-09
1.15681e-08
2.04412e-08
2.82169e-08
3.12865e-08
2.86511e-08
2.39715e-08
2.26404e-08
2.58983e-08
3.00476e-08
3.10819e-08
2.79171e-08
2.20215e-08
1.64457e-08
1.33579e-08
1.18986e-08
1.06984e-08
1.07733e-08
1.53573e-08
2.64348e-08
4.13039e-08
5.42495e-08
6.04603e-08
5.80995e-08
4.82042e-08
3.52001e-08
2.64815e-08
2.53355e-08
2.80244e-08
2.95912e-08
2.78246e-08
2.32362e-08
1.77593e-08
1.38344e-08
1.20054e-08
1.03482e-08
7.90611e-09
5.11475e-09
2.48015e-09
1.91953e-09
4.82536e-09
1.13636e-08
2.02115e-08
2.80243e-08
3.11868e-08
2.86488e-08
2.40222e-08
2.26995e-08
2.59538e-08
3.01032e-08
3.11386e-08
2.7966e-08
2.20645e-08
1.6471e-08
1.33692e-08
1.19021e-08
1.06814e-08
1.07124e-08
1.52214e-08
2.62032e-08
4.09632e-08
5.38245e-08
6.00205e-08
5.77091e-08
4.78839e-08
3.49213e-08
2.61734e-08
2.50406e-08
2.79204e-08
2.98105e-08
2.83265e-08
2.38677e-08
1.83604e-08
1.43019e-08
1.23412e-08
1.05915e-08
8.06205e-09
5.11494e-09
2.41586e-09
1.80746e-09
4.69518e-09
1.12404e-08
2.01461e-08
2.80761e-08
3.1356e-08
2.88471e-08
2.41437e-08
2.2727e-08
2.59522e-08
3.01332e-08
3.12153e-08
2.80764e-08
2.21747e-08
1.65507e-08
1.34196e-08
1.19315e-08
1.06687e-08
1.06264e-08
1.50459e-08
2.59725e-08
4.07299e-08
5.36147e-08
5.98687e-08
5.7621e-08
4.77878e-08
3.46877e-08
2.56963e-08
2.44382e-08
2.75316e-08
2.99237e-08
2.89419e-08
2.47738e-08
1.92646e-08
1.49798e-08
1.27543e-08
1.0812e-08
8.14445e-09
5.02092e-09
2.28861e-09
1.67441e-09
4.59961e-09
1.12229e-08
2.02891e-08
2.84346e-08
3.18463e-08
2.92489e-08
2.42879e-08
2.26463e-08
2.58267e-08
3.0099e-08
3.12966e-08
2.82517e-08
2.23963e-08
1.67444e-08
1.35666e-08
1.20262e-08
1.0684e-08
1.0553e-08
1.492e-08
2.59054e-08
4.08154e-08
5.38359e-08
6.01831e-08
5.79494e-08
4.79967e-08
3.45811e-08
2.5137e-08
2.35668e-08
2.67892e-08
2.97833e-08
2.95142e-08
2.58428e-08
2.04511e-08
1.59299e-08
1.33275e-08
1.10542e-08
8.14827e-09
4.86043e-09
2.13292e-09
1.54914e-09
4.53937e-09
1.12786e-08
2.0581e-08
2.90451e-08
3.26143e-08
2.98169e-08
2.44011e-08
2.2374e-08
2.54548e-08
2.98527e-08
3.12265e-08
2.83851e-08
2.26804e-08
1.7071e-08
1.38712e-08
1.22398e-08
1.07492e-08
1.04982e-08
1.48806e-08
2.60944e-08
4.1344e-08
5.46481e-08
6.1112e-08
5.8795e-08
4.86382e-08
3.48192e-08
2.47959e-08
2.27033e-08
2.57926e-08
2.92813e-08
2.98186e-08
2.68564e-08
2.18282e-08
1.72258e-08
1.42155e-08
1.14451e-08
8.13214e-09
4.68669e-09
2.00221e-09
1.48297e-09
4.52103e-09
1.13554e-08
2.09409e-08
2.98373e-08
3.36324e-08
3.05726e-08
2.45305e-08
2.19242e-08
2.47415e-08
2.91817e-08
3.07504e-08
2.81545e-08
2.27868e-08
1.74573e-08
1.43546e-08
1.26193e-08
1.08892e-08
1.0384e-08
1.46646e-08
2.6139e-08
4.19899e-08
5.59567e-08
6.28357e-08
6.05784e-08
5.02162e-08
3.59544e-08
2.52451e-08
2.24118e-08
2.49401e-08
2.85379e-08
2.97339e-08
2.75888e-08
2.325e-08
1.89056e-08
1.56131e-08
1.21961e-08
8.22453e-09
4.60546e-09
1.9605e-09
1.54849e-09
4.58417e-09
1.13606e-08
2.11257e-08
3.05868e-08
3.4826e-08
3.16056e-08
2.48865e-08
2.15542e-08
2.38408e-08
2.80084e-08
2.95257e-08
2.7201e-08
2.24421e-08
1.7746e-08
1.49669e-08
1.31819e-08
1.11362e-08
1.01395e-08
1.38782e-08
2.51723e-08
4.15148e-08
5.66603e-08
6.49733e-08
6.37013e-08
5.35386e-08
3.88762e-08
2.73762e-08
2.36015e-08
2.51157e-08
2.8177e-08
2.95407e-08
2.80418e-08
2.46558e-08
2.10653e-08
1.77835e-08
1.36355e-08
8.68755e-09
4.87175e-09
2.08249e-09
1.78768e-09
4.78657e-09
1.13012e-08
2.08703e-08
3.07606e-08
3.56757e-08
3.26694e-08
2.55963e-08
2.15669e-08
2.31248e-08
2.67556e-08
2.80004e-08
2.57973e-08
2.18144e-08
1.80766e-08
1.57826e-08
1.39168e-08
1.14638e-08
9.72705e-09
1.23947e-08
2.29456e-08
3.95281e-08
5.60479e-08
6.65794e-08
6.72954e-08
5.82293e-08
4.33534e-08
3.09443e-08
2.61944e-08
2.67347e-08
2.90385e-08
3.021e-08
2.90054e-08
2.65379e-08
2.3957e-08
2.10098e-08
1.61869e-08
9.9446e-09
5.85609e-09
2.37459e-09
2.10787e-09
5.18208e-09
1.13404e-08
2.0368e-08
3.02386e-08
3.57517e-08
3.32253e-08
2.61541e-08
2.16723e-08
2.23223e-08
2.5095e-08
2.59976e-08
2.41866e-08
2.13657e-08
1.91616e-08
1.75749e-08
1.53917e-08
1.21591e-08
9.32478e-09
1.04288e-08
1.97546e-08
3.63377e-08
5.40791e-08
6.65431e-08
6.90152e-08
6.11333e-08
4.70659e-08
3.45856e-08
2.87025e-08
2.81005e-08
2.99815e-08
3.15321e-08
3.11273e-08
2.99621e-08
2.86027e-08
2.57611e-08
2.01177e-08
1.24238e-08
7.88875e-09
3.0081e-09
2.09597e-09
5.32386e-09
1.14493e-08
1.98777e-08
2.92596e-08
3.50615e-08
3.29853e-08
2.60743e-08
2.1371e-08
2.11518e-08
2.27601e-08
2.3185e-08
2.19721e-08
2.10062e-08
2.09726e-08
2.04968e-08
1.80405e-08
1.38864e-08
9.77838e-09
8.96713e-09
1.63557e-08
3.22121e-08
5.05115e-08
6.42162e-08
6.76462e-08
6.03403e-08
4.73493e-08
3.63148e-08
3.03023e-08
2.83341e-08
2.97122e-08
3.19928e-08
3.30619e-08
3.41399e-08
3.50415e-08
3.25612e-08
2.56229e-08
1.61777e-08
1.08922e-08
4.2921e-09
1.81334e-09
4.48128e-09
1.11045e-08
1.98052e-08
2.87558e-08
3.43659e-08
3.2204e-08
2.51784e-08
2.01832e-08
1.94729e-08
2.06527e-08
2.10525e-08
2.0445e-08
2.07631e-08
2.23524e-08
2.28577e-08
2.05859e-08
1.6141e-08
1.14089e-08
9.09014e-09
1.40754e-08
2.81022e-08
4.58502e-08
5.99819e-08
6.37779e-08
5.65341e-08
4.44938e-08
3.53673e-08
3.05367e-08
2.77999e-08
2.80852e-08
3.106e-08
3.36014e-08
3.69974e-08
4.07159e-08
3.94066e-08
3.16536e-08
2.07889e-08
1.40318e-08
6.03709e-09
1.83146e-09