/*--------------------------------*- C++ -*----------------------------------*\
| =========                 |                                                 |
| \\      /  F ield         | OpenFOAM: The Open Source CFD Toolbox           |
|  \\    /   O peration     | Version:  2306                                  |
|   \\  /    A nd           | Website:  www.openfoam.com                      |
|    \\/     M anipulation  |                                                 |
\*---------------------------------------------------------------------------*/
FoamFile
{
    version     2.0;
    format      ascii;
    arch        "LSB;label=32;scalar=64";
    class       volVectorField;
    location    "8";
    object      U;
}
// * * * * * * * * * * * * * * * * * * * * * * * * * * * * * * * * * * * * * //

dimensions      [0 1 -1 0 0 0 0];

internalField   nonuniform List<vector> 
60000
(
(0.00677721 2.90301e-05 -0.00016823)
(0.00719355 3.32897e-05 3.72055e-05)
(0.00774571 2.71717e-05 0.000266474)
(0.00837704 2.44991e-05 0.000698146)
(0.00893332 2.77583e-05 0.00131451)
(0.00918036 3.40874e-05 0.00197883)
(0.00900838 3.58088e-05 0.00249536)
(0.00858367 2.94949e-05 0.00270597)
(0.00818074 2.13825e-05 0.00258127)
(0.00790673 1.60575e-05 0.00221526)
(0.0077215 1.18306e-05 0.00176986)
(0.00754598 6.18688e-06 0.00140577)
(0.00730342 -9.53017e-07 0.00121201)
(0.00692985 -7.28735e-06 0.00115682)
(0.00640761 -7.57571e-06 0.00117517)
(0.00584529 -3.83276e-06 0.00120131)
(0.00544063 -4.17615e-07 0.00117876)
(0.00529722 1.12679e-07 0.0010586)
(0.0053592 -3.8321e-06 0.000800483)
(0.00550521 -1.11563e-05 0.000479898)
(0.00567577 -1.57279e-05 0.000218673)
(0.00590641 -1.19445e-05 1.73802e-05)
(0.00621589 -6.5168e-06 -0.000159068)
(0.00655451 8.78399e-06 -0.00026493)
(0.00687347 2.2715e-05 -0.000274159)
(0.00715439 2.7704e-05 -0.000291662)
(0.00740582 2.02557e-05 -0.000493233)
(0.00768491 -1.73978e-06 -0.00100088)
(0.00804624 -2.58044e-05 -0.00169633)
(0.00837363 -3.53218e-05 -0.00225081)
(0.00845216 -2.78733e-05 -0.00243762)
(0.00819519 -1.40467e-05 -0.00240884)
(0.00768209 1.75478e-06 -0.00241648)
(0.00704476 1.43073e-05 -0.00238338)
(0.00642163 1.40118e-05 -0.00222779)
(0.00597005 6.52035e-06 -0.0020453)
(0.00580725 3.48998e-06 -0.00183791)
(0.00592922 3.56192e-06 -0.00150008)
(0.00619768 1.05232e-05 -0.00101494)
(0.00647576 2.03855e-05 -0.000521036)
(0.020245 0.000140486 -0.000466987)
(0.0217008 0.000128797 0.000101098)
(0.0234719 9.17719e-05 0.000827461)
(0.0253543 0.000100075 0.00207633)
(0.0269909 0.000156908 0.00373882)
(0.027833 0.000232213 0.00542194)
(0.0275115 0.000266314 0.00664753)
(0.0263384 0.000230838 0.00707108)
(0.0250794 0.000164431 0.00665803)
(0.0241861 0.00010901 0.00568279)
(0.0236316 7.25847e-05 0.00456417)
(0.0231573 4.44789e-05 0.00366556)
(0.0224667 1.53362e-05 0.00315234)
(0.0213486 -1.05826e-05 0.00297702)
(0.0198251 -2.97931e-05 0.0030228)
(0.018246 -5.96242e-05 0.00310813)
(0.0170735 -0.000101233 0.00303061)
(0.0165203 -0.000136489 0.00265616)
(0.016475 -0.000155299 0.00199189)
(0.016692 -0.000158564 0.0012497)
(0.0170588 -0.000142247 0.000641151)
(0.0176341 -9.567e-05 0.000144756)
(0.0184237 -3.13242e-05 -0.000279218)
(0.0193277 5.1331e-05 -0.000525801)
(0.0202983 9.47644e-05 -0.000586767)
(0.0213367 6.6026e-05 -0.000725158)
(0.0224747 -4.6288e-05 -0.00133947)
(0.0237636 -0.000211883 -0.002668)
(0.0251189 -0.000324489 -0.00438061)
(0.0260568 -0.000292514 -0.00572878)
(0.0260566 -0.000147204 -0.00627378)
(0.0250889 7.11419e-06 -0.00632223)
(0.023545 0.000112649 -0.00626363)
(0.0218482 0.000134482 -0.00602563)
(0.0202348 7.05522e-05 -0.00566257)
(0.0188826 -1.33068e-05 -0.00534005)
(0.0180539 -4.54689e-05 -0.00485087)
(0.0179383 -2.26387e-05 -0.00390591)
(0.0184002 4.51322e-05 -0.00259538)
(0.019176 0.000113531 -0.00133821)
(0.0335102 0.000284388 -0.00124712)
(0.0360476 0.000225092 -0.000402206)
(0.0391014 0.000128111 0.000707244)
(0.0423368 0.000153979 0.00262444)
(0.0452905 0.000287209 0.00518571)
(0.0471813 0.000456591 0.00776522)
(0.0472273 0.000542318 0.009674)
(0.0455466 0.000486926 0.0104444)
(0.043292 0.000357347 0.00998963)
(0.0415267 0.000234326 0.00866918)
(0.0404729 0.000146629 0.00709723)
(0.0397296 8.22581e-05 0.00577284)
(0.038731 2.03504e-05 0.00489134)
(0.0370743 -3.38806e-05 0.0044476)
(0.034762 -8.61833e-05 0.00440725)
(0.0322452 -0.000175235 0.00456663)
(0.0301205 -0.000293997 0.00454256)
(0.0287579 -0.000388904 0.00404781)
(0.028179 -0.000428475 0.00312796)
(0.028158 -0.000414647 0.00211471)
(0.0285363 -0.000351273 0.00127813)
(0.0293241 -0.000221811 0.000575502)
(0.0304836 -4.4228e-05 -3.10599e-05)
(0.0318968 0.000130544 -0.000383038)
(0.0335605 0.000174124 -0.000445128)
(0.0354992 2.3202e-05 -0.00056054)
(0.0377268 -0.000318775 -0.00130118)
(0.0402468 -0.000746901 -0.00307972)
(0.0428391 -0.000991422 -0.00556904)
(0.0446416 -0.000854876 -0.00776579)
(0.0447815 -0.000442691 -0.00894417)
(0.0432878 -2.42197e-05 -0.0093099)
(0.0409042 0.000234484 -0.00923541)
(0.0383663 0.000260865 -0.00876994)
(0.0359211 9.81812e-05 -0.00824582)
(0.033572 -8.48143e-05 -0.0079608)
(0.0315779 -0.000136128 -0.00749175)
(0.0305077 -5.9089e-05 -0.0062642)
(0.0306322 0.000100755 -0.00438242)
(0.0316933 0.000247931 -0.00253058)
(0.0458645 0.000387006 -0.00299908)
(0.0493025 0.00022813 -0.0020795)
(0.0535734 8.72952e-06 -0.000859499)
(0.0582394 2.62809e-05 0.0014594)
(0.0628217 0.000261495 0.00478684)
(0.0664099 0.000561167 0.00831097)
(0.0676883 0.00073973 0.0111194)
(0.0661247 0.000718406 0.0126066)
(0.062905 0.000565705 0.0125459)
(0.0599345 0.000379806 0.0112496)
(0.0581207 0.000223415 0.00949106)
(0.0570914 0.000107275 0.00791068)
(0.0559859 1.10261e-05 0.00667395)
(0.0541408 -6.59491e-05 0.00578135)
(0.0514328 -0.000146769 0.00541328)
(0.0482245 -0.000298862 0.00556409)
(0.0450245 -0.000512736 0.00573189)
(0.0423149 -0.00069895 0.00533195)
(0.0405008 -0.000793233 0.00431704)
(0.0396807 -0.000782485 0.00315526)
(0.0397235 -0.000671133 0.00221849)
(0.0405044 -0.000428214 0.00143376)
(0.0418801 -8.68652e-05 0.000733995)
(0.0437045 0.000205668 0.000350459)
(0.0460204 0.000213748 0.000426937)
(0.0488532 -0.000149674 0.000632609)
(0.0521126 -0.000866629 0.000266943)
(0.0557484 -0.00171659 -0.0013767)
(0.059679 -0.00216847 -0.00432782)
(0.0628655 -0.0018665 -0.00756917)
(0.06386 -0.00104806 -0.00990304)
(0.0624718 -0.000215696 -0.0111147)
(0.0597115 0.000305035 -0.0113824)
(0.0566676 0.00037568 -0.0107992)
(0.053659 9.58548e-05 -0.0100475)
(0.0504435 -0.000205971 -0.00981268)
(0.0469839 -0.00028093 -0.00965675)
(0.044087 -0.000148155 -0.00865443)
(0.0428966 0.000112251 -0.00667154)
(0.0436174 0.000349918 -0.00451485)
(0.0567565 0.000360282 -0.00596911)
(0.0603935 3.37051e-05 -0.00539365)
(0.0653896 -0.000432836 -0.00453473)
(0.0712901 -0.000564225 -0.00230203)
(0.0776689 -0.000208743 0.00148409)
(0.0836636 0.000353984 0.00605481)
(0.0873957 0.000704705 0.0102026)
(0.0872131 0.000805312 0.0130139)
(0.0836341 0.000721364 0.0139853)
(0.0792769 0.000520465 0.0132003)
(0.0763111 0.000291565 0.0115634)
(0.0748442 0.000106346 0.010009)
(0.073782 -3.06036e-05 0.00866589)
(0.0721239 -0.00011915 0.00731949)
(0.0695234 -0.000199224 0.0063196)
(0.066134 -0.00037424 0.00616092)
(0.0621363 -0.000648116 0.00651361)
(0.0578056 -0.000926954 0.00642511)
(0.053928 -0.00113526 0.00549311)
(0.0513585 -0.00121665 0.00427263)
(0.0503656 -0.00112045 0.00335472)
(0.0507224 -0.000767204 0.00266008)
(0.0520647 -0.000209492 0.00202762)
(0.054103 0.0002479 0.00174973)
(0.0568616 0.000207726 0.00214695)
(0.0603145 -0.000465635 0.0029817)
(0.0641052 -0.00174864 0.00353066)
(0.0679882 -0.00327137 0.00286796)
(0.0726521 -0.00417455 0.000299584)
(0.0778826 -0.00369096 -0.00385085)
(0.0812401 -0.00220617 -0.00803993)
(0.0813752 -0.000739471 -0.0110821)
(0.079225 0.000212218 -0.0125394)
(0.0762549 0.000442513 -0.0122755)
(0.0730607 7.78208e-05 -0.0112701)
(0.0693724 -0.000345691 -0.0109078)
(0.0647352 -0.000447849 -0.0110936)
(0.0596411 -0.00027507 -0.0106743)
(0.055964 4.6917e-05 -0.0091719)
(0.0550532 0.000347251 -0.00727249)
(0.0671146 0.000191487 -0.0094587)
(0.0693826 -0.000410859 -0.00989505)
(0.0736163 -0.00132266 -0.0100713)
(0.0794287 -0.00188989 -0.00873968)
(0.086646 -0.00167021 -0.00553497)
(0.095189 -0.000831249 -0.000544672)
(0.103035 8.05765e-05 0.00534179)
(0.106454 0.000575043 0.0104704)
(0.104235 0.000721608 0.0135166)
(0.0989866 0.000612352 0.0140287)
(0.0945487 0.000337563 0.0128812)
(0.0923596 6.75181e-05 0.0116187)
(0.091363 -0.000131808 0.0106531)
(0.0901414 -0.000228015 0.00928623)
(0.0880812 -0.000270588 0.00757318)
(0.0851718 -0.000396971 0.00662883)
(0.0812157 -0.000637679 0.0068452)
(0.0758198 -0.000927909 0.00713648)
(0.0695674 -0.00125401 0.00648244)
(0.0641127 -0.00155479 0.0052665)
(0.0608087 -0.00164068 0.00439624)
(0.0598621 -0.00125978 0.00392872)
(0.0606835 -0.000452091 0.00355873)
(0.0625866 0.000255831 0.00355573)
(0.0653969 0.00020886 0.00439339)
(0.0690604 -0.000901416 0.00591107)
(0.0728898 -0.00294506 0.00743307)
(0.075788 -0.0053946 0.00822249)
(0.0787799 -0.00714025 0.00742632)
(0.0847725 -0.00689719 0.00406917)
(0.0923496 -0.0046952 -0.00163388)
(0.0969593 -0.00204198 -0.00770012)
(0.0975383 -0.000243215 -0.011852)
(0.0958492 0.0003733 -0.0129902)
(0.0930521 4.46473e-05 -0.0121147)
(0.0893633 -0.000464113 -0.0114786)
(0.0843093 -0.000579885 -0.0117778)
(0.0777021 -0.000360468 -0.0118763)
(0.0713012 -1.33143e-05 -0.0110542)
(0.0675222 0.00026698 -0.00990657)
(0.0800519 3.92366e-05 -0.0116018)
(0.0798273 -0.00102341 -0.0133966)
(0.0812103 -0.00261306 -0.0152764)
(0.084317 -0.00382914 -0.0155911)
(0.0892072 -0.00405542 -0.0141026)
(0.0967293 -0.00336111 -0.0107274)
(0.107888 -0.00209557 -0.00476993)
(0.118312 -0.000726951 0.0029992)
(0.121359 0.000228942 0.00965001)
(0.117346 0.000531855 0.0129023)
(0.111749 0.000331295 0.0129489)
(0.108607 -2.07146e-05 0.0120684)
(0.107681 -0.000328382 0.011812)
(0.107012 -0.000452574 0.0112802)
(0.105631 -0.000423353 0.0094487)
(0.103649 -0.000437752 0.0074597)
(0.10082 -0.000541055 0.00692747)
(0.0958934 -0.000699657 0.00733139)
(0.088328 -0.00100573 0.00707622)
(0.0797153 -0.00152955 0.00598139)
(0.0726386 -0.00199366 0.00511189)
(0.0687994 -0.00179314 0.00484498)
(0.0681199 -0.000780535 0.00479368)
(0.0694066 0.000258279 0.00508855)
(0.0719802 0.000239749 0.00626623)
(0.0757565 -0.00134388 0.00819567)
(0.0800786 -0.0041382 0.0101061)
(0.0829452 -0.00739792 0.0115221)
(0.0831662 -0.0100922 0.0126116)
(0.0849118 -0.0107108 0.0123673)
(0.0928978 -0.0086245 0.00848296)
(0.103597 -0.00496418 0.000685514)
(0.110719 -0.00167917 -0.00746515)
(0.112953 -8.48285e-05 -0.0118519)
(0.111715 -6.45599e-05 -0.0123424)
(0.108397 -0.000525746 -0.0117498)
(0.103636 -0.000609488 -0.0119431)
(0.0969006 -0.000355323 -0.0122577)
(0.0890923 7.50587e-06 -0.0118142)
(0.0829221 0.000259986 -0.0111938)
(0.0964799 0.000149002 -0.0111889)
(0.0952067 -0.00128956 -0.013615)
(0.0935679 -0.00365291 -0.0173087)
(0.091741 -0.00574932 -0.019977)
(0.0918388 -0.00659121 -0.0205048)
(0.0946796 -0.00634034 -0.0191048)
(0.102682 -0.0054419 -0.0152317)
(0.116659 -0.00372332 -0.00793987)
(0.128608 -0.00164626 0.00150597)
(0.130346 -0.000298624 0.00879652)
(0.125463 1.25875e-05 0.0113416)
(0.121604 -0.000191472 0.0109764)
(0.121091 -0.000586624 0.0110973)
(0.121434 -0.000852148 0.0119475)
(0.12064 -0.000785858 0.0113007)
(0.119326 -0.000590909 0.00891414)
(0.118209 -0.000472997 0.00719506)
(0.115656 -0.000430267 0.00711447)
(0.109315 -0.000518575 0.00711043)
(0.0992748 -0.0010484 0.00627129)
(0.0882552 -0.00187564 0.0054637)
(0.0797737 -0.00209201 0.00533663)
(0.075899 -0.00107281 0.00551001)
(0.0758361 0.000305021 0.00595103)
(0.0780624 0.000446373 0.00726114)
(0.0819877 -0.00132593 0.00939858)
(0.0871536 -0.00457059 0.0113152)
(0.0919251 -0.00818296 0.0122394)
(0.0928855 -0.011349 0.0133349)
(0.0898761 -0.0131173 0.0158136)
(0.0910061 -0.0122016 0.0165725)
(0.100982 -0.00878081 0.0114376)
(0.114249 -0.00447365 0.00152009)
(0.123614 -0.00139638 -0.00712524)
(0.126267 -0.000536789 -0.0109009)
(0.12385 -0.000742332 -0.0115104)
(0.119577 -0.000638548 -0.01167)
(0.113921 -0.000131804 -0.011894)
(0.106674 0.000311689 -0.0114737)
(0.100068 0.000516595 -0.0107957)
(0.111849 0.00061604 -0.00812943)
(0.112488 -0.000748295 -0.0100637)
(0.111054 -0.00341948 -0.0147114)
(0.105218 -0.00638771 -0.0199786)
(0.0992785 -0.00815244 -0.0232821)
(0.096915 -0.00854634 -0.0237972)
(0.0992819 -0.00846516 -0.0213886)
(0.109151 -0.00751567 -0.0159387)
(0.124917 -0.00503658 -0.00719568)
(0.134964 -0.00228478 0.00251061)
(0.13339 -0.00106974 0.00822838)
(0.128576 -0.000984055 0.00880441)
(0.12848 -0.00114867 0.00837002)
(0.131407 -0.00130132 0.00988859)
(0.132018 -0.00130003 0.011292)
(0.130202 -0.00109986 0.0100951)
(0.129736 -0.000752135 0.00775882)
(0.130726 -0.000318896 0.00676795)
(0.128838 -7.25276e-05 0.00662339)
(0.121146 -0.000378 0.00599491)
(0.10862 -0.00124363 0.00534266)
(0.0952976 -0.00185861 0.00544984)
(0.0862566 -0.0011118 0.00593053)
(0.083253 0.000420305 0.00654061)
(0.0845326 0.000819557 0.00780996)
(0.0884999 -0.000916247 0.0096588)
(0.0941678 -0.00436807 0.0110752)
(0.100353 -0.00803801 0.0112733)
(0.104183 -0.0109078 0.0114869)
(0.102006 -0.0129468 0.0145107)
(0.0968652 -0.0136753 0.0191102)
(0.0990964 -0.0118677 0.0188828)
(0.111482 -0.00797518 0.0111735)
(0.126669 -0.00379619 0.000520374)
(0.134372 -0.0013406 -0.00711956)
(0.13107 -0.000635467 -0.0101624)
(0.123946 -0.000552223 -0.0103851)
(0.119464 -0.000207275 -0.0098689)
(0.116458 0.000354073 -0.00918836)
(0.113293 0.000808776 -0.00835063)
(0.116998 0.000656415 -0.00177871)
(0.122839 -0.000111895 -0.00284266)
(0.126514 -0.00207714 -0.00785476)
(0.121909 -0.00507571 -0.0153765)
(0.111603 -0.00777106 -0.0219624)
(0.10396 -0.0089925 -0.0254845)
(0.102113 -0.00965156 -0.0249297)
(0.105954 -0.010144 -0.0206295)
(0.11747 -0.0089347 -0.0133853)
(0.132587 -0.00554857 -0.00385024)
(0.138944 -0.00256557 0.00421612)
(0.134503 -0.00201061 0.00662754)
(0.13044 -0.00261575 0.00531182)
(0.134103 -0.00256696 0.00576679)
(0.139194 -0.00166193 0.00842506)
(0.137821 -0.000994162 0.00939753)
(0.133724 -0.00104349 0.00784698)
(0.134506 -0.00110372 0.00633328)
(0.138973 -0.000621213 0.00589392)
(0.139226 -0.000152799 0.00539229)
(0.130803 -0.000475502 0.00478181)
(0.115782 -0.00100383 0.00503297)
(0.101152 -0.000557946 0.00610994)
(0.0931467 0.000725011 0.00729905)
(0.0921428 0.00112232 0.00848052)
(0.0958911 -0.00073592 0.00927045)
(0.102196 -0.00426391 0.00914113)
(0.109204 -0.00778068 0.00810324)
(0.114584 -0.0100674 0.00751005)
(0.114898 -0.0112614 0.0105079)
(0.109166 -0.012404 0.0172294)
(0.104038 -0.0129367 0.0213491)
(0.109675 -0.0110781 0.0170494)
(0.124207 -0.00694182 0.00664273)
(0.134331 -0.00236005 -0.003366)
(0.130512 0.000346926 -0.00860977)
(0.119527 0.000696073 -0.00872112)
(0.112531 8.24859e-05 -0.00633436)
(0.111651 7.31113e-06 -0.00412802)
(0.11345 0.00047674 -0.00268652)
(0.112529 0.000207173 0.0054917)
(0.120401 -0.000246359 0.00642155)
(0.131128 -0.00110788 0.00201663)
(0.134305 -0.00280687 -0.00738466)
(0.12564 -0.00554642 -0.0170516)
(0.113778 -0.00783493 -0.0239293)
(0.107861 -0.00912525 -0.0265892)
(0.108679 -0.0103947 -0.0243406)
(0.114321 -0.0111656 -0.018369)
(0.125855 -0.00958357 -0.00995942)
(0.138826 -0.00570458 -0.00104394)
(0.142912 -0.00289817 0.00406146)
(0.13729 -0.00323579 0.00387635)
(0.133252 -0.00443976 0.00280882)
(0.137836 -0.0033772 0.00462158)
(0.142636 -0.000658473 0.00696421)
(0.140053 0.000473993 0.00702299)
(0.1355 -0.000880187 0.00579429)
(0.137302 -0.00246964 0.00516897)
(0.144406 -0.00231723 0.00501219)
(0.146631 -0.00104357 0.00449049)
(0.137129 -2.50979e-05 0.00432835)
(0.120566 0.000897919 0.00566733)
(0.107228 0.00163064 0.0080457)
(0.102251 0.00121047 0.00985424)
(0.104355 -0.00141618 0.00954896)
(0.110383 -0.00520039 0.00714719)
(0.11809 -0.0081661 0.00403695)
(0.12499 -0.00936156 0.00188534)
(0.127024 -0.00933228 0.00403554)
(0.122257 -0.00955154 0.0120283)
(0.113656 -0.0111317 0.0199516)
(0.111323 -0.0121377 0.0196102)
(0.120296 -0.00953433 0.0106434)
(0.129818 -0.00362506 -0.000201481)
(0.128151 0.00138487 -0.00702469)
(0.118371 0.0026825 -0.00800415)
(0.11032 0.00122965 -0.00489128)
(0.107868 5.93905e-05 -0.000698499)
(0.109074 9.53517e-05 0.00272718)
(0.110353 0.000235786 0.0069996)
(0.114387 -0.000705138 0.0110804)
(0.126102 -0.0011122 0.0100819)
(0.137599 -0.000996726 0.00132343)
(0.136745 -0.00229733 -0.01022)
(0.125788 -0.00508932 -0.019353)
(0.115779 -0.00755708 -0.0248881)
(0.113378 -0.00931814 -0.025962)
(0.116828 -0.0109545 -0.0224939)
(0.123351 -0.0118147 -0.0157228)
(0.133894 -0.0100724 -0.00708124)
(0.144283 -0.00620661 0.000172671)
(0.14561 -0.00375526 0.00273499)
(0.138598 -0.00427186 0.00197555)
(0.134864 -0.00473779 0.00228535)
(0.139318 -0.00236189 0.00444588)
(0.14396 0.000799886 0.00591209)
(0.142676 0.00101148 0.00556254)
(0.138916 -0.00217778 0.00450896)
(0.140601 -0.0053921 0.00430433)
(0.148358 -0.00481587 0.0044814)
(0.150389 -0.000889943 0.00401014)
(0.139834 0.0026068 0.00463452)
(0.125395 0.00363667 0.00798755)
(0.116587 0.00196838 0.0115016)
(0.114631 -0.00193248 0.0107321)
(0.116812 -0.0066829 0.00567879)
(0.122801 -0.00988892 0.000478101)
(0.131831 -0.0100172 -0.00286213)
(0.137206 -0.00806567 -0.00253027)
(0.134134 -0.00663626 0.00475319)
(0.124692 -0.00762394 0.0155154)
(0.116667 -0.0105297 0.0198417)
(0.118276 -0.0104194 0.0138554)
(0.124547 -0.00487746 0.00353082)
(0.125656 0.00170186 -0.00451346)
(0.121305 0.00425123 -0.00788378)
(0.116233 0.0027982 -0.00691476)
(0.112741 0.0010308 -0.00292133)
(0.110841 0.000663403 0.00202902)
(0.114701 0.00106432 0.00145886)
(0.114329 -0.00115035 0.00697397)
(0.121911 -0.00225327 0.00995169)
(0.1355 -0.000698473 0.00551737)
(0.142556 0.000530778 -0.00446557)
(0.137221 -0.00146564 -0.0138497)
(0.126488 -0.00487833 -0.0205862)
(0.119841 -0.00754549 -0.0243815)
(0.121047 -0.00955843 -0.0243217)
(0.126218 -0.0117447 -0.020351)
(0.132801 -0.0127386 -0.0129618)
(0.141202 -0.0104489 -0.00437817)
(0.146488 -0.00621007 0.00103988)
(0.143656 -0.00394552 0.00180748)
(0.137309 -0.00407799 0.00133468)
(0.136348 -0.00349701 0.00273157)
(0.141448 -0.00111852 0.00522958)
(0.146113 0.000731601 0.00645291)
(0.145908 -0.000571098 0.00536178)
(0.142661 -0.00512264 0.00369615)
(0.143562 -0.0081317 0.00345828)
(0.149232 -0.00486363 0.00352601)
(0.149696 0.00137278 0.00376275)
(0.141896 0.00471717 0.00709894)
(0.132487 0.00374888 0.0119677)
(0.126167 0.000120907 0.0114095)
(0.122674 -0.00505951 0.00415597)
(0.123277 -0.0100086 -0.00291179)
(0.131626 -0.011617 -0.00577841)
(0.141873 -0.00878818 -0.00600402)
(0.143098 -0.00512578 -0.00147129)
(0.134832 -0.00422545 0.00921731)
(0.124241 -0.00699982 0.017809)
(0.119699 -0.00888264 0.0161706)
(0.121512 -0.00518495 0.00738842)
(0.123355 0.00133562 -0.0012925)
(0.123762 0.00468671 -0.00676907)
(0.12355 0.00402374 -0.00870334)
(0.121833 0.00251077 -0.00716683)
(0.118345 0.00201104 -0.00339429)
(0.125328 0.00278759 -0.00578368)
(0.12228 -0.000629474 -0.000914781)
(0.124023 -0.00336223 0.00382136)
(0.133919 -0.00189852 0.00397509)
(0.145137 0.00141465 -0.00157244)
(0.146627 0.00151397 -0.00908532)
(0.138166 -0.00154808 -0.0160753)
(0.128609 -0.00486148 -0.0213412)
(0.126162 -0.00748327 -0.0236774)
(0.130537 -0.0103211 -0.0227044)
(0.136267 -0.0131912 -0.017841)
(0.14132 -0.0131106 -0.00936104)
(0.14526 -0.00886541 -0.00165559)
(0.144878 -0.00431564 0.00120935)
(0.14036 -0.00291011 0.000891299)
(0.137296 -0.00319193 0.00164431)
(0.139423 -0.0024662 0.00483939)
(0.144707 -0.000809244 0.00802752)
(0.149206 -0.000377642 0.00793525)
(0.149278 -0.00311176 0.00457157)
(0.145387 -0.00712571 0.00191683)
(0.143497 -0.00716699 0.00236872)
(0.14432 -0.0023286 0.00467041)
(0.142154 0.00241305 0.00842782)
(0.136412 0.00394096 0.0117912)
(0.131639 0.00246267 0.00980004)
(0.128684 -0.00151303 0.00187496)
(0.126772 -0.00729857 -0.00541915)
(0.130979 -0.011605 -0.00694198)
(0.142053 -0.0105552 -0.00558092)
(0.148117 -0.00580787 -0.00324636)
(0.142621 -0.00274041 0.0040093)
(0.131773 -0.00364676 0.0138383)
(0.123907 -0.00556772 0.0167916)
(0.122039 -0.00349898 0.0109408)
(0.123206 0.00152631 0.0025364)
(0.125679 0.00420832 -0.00406743)
(0.129 0.00379226 -0.00819684)
(0.130682 0.0032901 -0.00972509)
(0.129002 0.00370153 -0.00875023)
(0.135184 0.0034606 -0.00931439)
(0.132805 0.000673746 -0.00516903)
(0.129858 -0.00277842 -0.00035961)
(0.132954 -0.00288375 0.00178899)
(0.14324 0.000436333 -0.000201861)
(0.150823 0.00264291 -0.00531687)
(0.147798 0.00134872 -0.0119845)
(0.138618 -0.00143218 -0.0181866)
(0.133238 -0.00445271 -0.0218626)
(0.135604 -0.00810253 -0.0226788)
(0.141489 -0.0122286 -0.02058)
(0.145514 -0.0141238 -0.0142152)
(0.147002 -0.0109343 -0.00577041)
(0.146209 -0.00503167 -0.000603906)
(0.142905 -0.00160693 0.000363259)
(0.139739 -0.00162061 0.00115775)
(0.139842 -0.00237117 0.00463341)
(0.143609 -0.00211497 0.00900472)
(0.149236 -0.00152444 0.00994514)
(0.15226 -0.00221186 0.00608483)
(0.148528 -0.00446745 0.0018961)
(0.1406 -0.00602879 0.00206241)
(0.13448 -0.00454658 0.0052648)
(0.131627 -0.000910481 0.00787525)
(0.131281 0.00240983 0.00813342)
(0.133163 0.00364985 0.00488753)
(0.134659 0.00173256 -0.00161906)
(0.133591 -0.00362062 -0.00725562)
(0.134532 -0.00979524 -0.00764951)
(0.14253 -0.0116274 -0.00440151)
(0.150499 -0.00763823 -0.00162465)
(0.147829 -0.0031036 0.00272238)
(0.13732 -0.00182591 0.0103874)
(0.128249 -0.00226836 0.0149123)
(0.125111 -0.000663083 0.0118794)
(0.126139 0.00278569 0.00512133)
(0.128102 0.00434971 -0.000598021)
(0.13011 0.00322762 -0.00481306)
(0.132559 0.00242483 -0.00837817)
(0.134738 0.00335328 -0.0103686)
(0.134936 0.00237621 -0.00551872)
(0.136031 0.00137758 -0.0020951)
(0.132778 -0.000809916 0.00118931)
(0.130954 -0.00165505 0.00245174)
(0.136788 2.41561e-05 0.00144359)
(0.146939 0.00236304 -0.00223052)
(0.15095 0.00298657 -0.00841038)
(0.146132 0.0019236 -0.0150165)
(0.140989 -0.000427477 -0.0193688)
(0.142093 -0.00457824 -0.021031)
(0.147447 -0.00994908 -0.0209097)
(0.151195 -0.0133926 -0.0176111)
(0.151194 -0.0117227 -0.0106405)
(0.149059 -0.0059942 -0.00392702)
(0.145789 -0.0010769 -0.000430429)
(0.142912 0.00028169 0.00143524)
(0.14225 -0.000655465 0.00415094)
(0.14415 -0.00180887 0.00781942)
(0.147692 -0.00231951 0.00986958)
(0.150322 -0.00257431 0.00785564)
(0.148421 -0.00301342 0.00342448)
(0.14142 -0.00333384 0.00101199)
(0.133426 -0.00300997 0.00187987)
(0.12944 -0.00191657 0.00339203)
(0.131252 -0.000267468 0.00339821)
(0.136291 0.00160238 0.000980952)
(0.139142 0.0021914 -0.00350793)
(0.137841 -0.000659243 -0.00696635)
(0.137227 -0.00691927 -0.00661486)
(0.142332 -0.0115743 -0.00344794)
(0.14988 -0.00945852 -0.000391633)
(0.150193 -0.0041547 0.00315926)
(0.142245 -0.00125705 0.00890789)
(0.133575 -0.000401962 0.0126457)
(0.12919 0.00153 0.0106363)
(0.128051 0.00458755 0.00595035)
(0.12703 0.00577023 0.00254234)
(0.125858 0.00410327 -0.000170738)
(0.126697 0.00204091 -0.00360855)
(0.130477 0.00182095 -0.00620601)
(0.131806 -0.00129659 -0.00108764)
(0.134867 -0.000552207 0.000715598)
(0.133455 -9.88357e-05 0.00309235)
(0.130535 0.000379915 0.00436157)
(0.131933 0.00135256 0.00368074)
(0.139399 0.0028024 0.000466258)
(0.147598 0.00408758 -0.00488682)
(0.150324 0.00451263 -0.010583)
(0.149446 0.00335363 -0.0146976)
(0.15108 -0.000423439 -0.0171641)
(0.155704 -0.00652624 -0.0189771)
(0.158462 -0.0113801 -0.0187595)
(0.156962 -0.0109576 -0.0143335)
(0.153181 -0.00588498 -0.00753863)
(0.148844 -0.000718669 -0.00211852)
(0.145519 0.00131106 0.00123102)
(0.144645 0.000838456 0.00377033)
(0.145549 -0.000355724 0.00628444)
(0.146436 -0.0016189 0.0083494)
(0.146142 -0.0026976 0.00799996)
(0.144085 -0.00273843 0.00458822)
(0.140183 -0.00157963 0.00077049)
(0.136169 -0.000672341 -0.000509376)
(0.134795 -0.0013766 0.000563867)
(0.136973 -0.00236621 0.00171616)
(0.140316 -0.00130157 0.00078451)
(0.140747 0.0010646 -0.0020782)
(0.138077 0.0011144 -0.00375001)
(0.136876 -0.0034981 -0.00240265)
(0.140318 -0.00954279 0.000104888)
(0.14691 -0.0104637 0.00208548)
(0.150419 -0.00610919 0.0044064)
(0.147112 -0.0015961 0.00826545)
(0.140093 0.00142114 0.0107312)
(0.133561 0.00439179 0.00916197)
(0.128463 0.00714682 0.00576287)
(0.124299 0.00743205 0.00384373)
(0.122001 0.00446416 0.00305023)
(0.12271 0.000505485 0.00144172)
(0.126528 -0.00150334 -0.000634857)
(0.130642 -0.00191183 0.00405275)
(0.132953 -0.00120483 0.00398535)
(0.132188 0.000688209 0.00477086)
(0.130117 0.00317068 0.0056261)
(0.130284 0.00499143 0.00585108)
(0.134441 0.00524176 0.00417915)
(0.141001 0.00482293 7.69566e-05)
(0.14709 0.00518753 -0.00512434)
(0.152298 0.00585938 -0.00917924)
(0.158117 0.00400039 -0.0118347)
(0.163659 -0.00163445 -0.0144955)
(0.165622 -0.00760777 -0.0168027)
(0.162864 -0.00876664 -0.0158014)
(0.157757 -0.00462991 -0.0107636)
(0.15247 0.000120503 -0.00481075)
(0.148255 0.00199104 -0.000301073)
(0.145868 0.00165647 0.00279157)
(0.144856 0.000945737 0.00500672)
(0.144037 0.000159912 0.00661756)
(0.142332 -0.000758926 0.00691012)
(0.139838 -0.000840464 0.0047187)
(0.138264 0.00025034 0.00120588)
(0.13951 0.000618415 -0.000732278)
(0.143201 -0.00154881 -7.39507e-06)
(0.145807 -0.00457622 0.0015088)
(0.144486 -0.00449961 0.00149019)
(0.140269 -0.000876962 0.000664131)
(0.136835 0.00178601 0.00182919)
(0.137108 -0.000506352 0.00434495)
(0.140897 -0.00642614 0.00537232)
(0.146418 -0.0101237 0.00502126)
(0.150509 -0.0079363 0.00539926)
(0.149697 -0.00258256 0.00762399)
(0.144187 0.00210096 0.00895634)
(0.136441 0.00562218 0.00712299)
(0.128481 0.00821139 0.0046271)
(0.122786 0.00864339 0.00488876)
(0.121072 0.00610751 0.0068603)
(0.122791 0.00205345 0.00722467)
(0.126532 -0.000987264 0.00553741)
(0.1306 0.000673025 0.00598066)
(0.134386 0.00102209 0.00487714)
(0.135675 0.00245194 0.00485067)
(0.134415 0.00485295 0.00575287)
(0.133437 0.00740396 0.0068552)
(0.134899 0.00838091 0.00640276)
(0.13834 0.00694701 0.00331315)
(0.142693 0.00429584 -0.000991935)
(0.148522 0.00267849 -0.00426363)
(0.156508 0.0021749 -0.00658781)
(0.16417 0.00071602 -0.00957294)
(0.167173 -0.00223305 -0.0131296)
(0.164911 -0.00396489 -0.0147981)
(0.161068 -0.00253122 -0.012796)
(0.158171 0.00013385 -0.00839646)
(0.155378 0.00174763 -0.0039589)
(0.151732 0.00224505 -0.000571346)
(0.147614 0.00205006 0.00151941)
(0.143796 0.00113564 0.00285578)
(0.140748 0.000149021 0.00408246)
(0.139087 0.000150356 0.00479524)
(0.140259 0.00104128 0.00406724)
(0.145352 0.00103383 0.00198896)
(0.152334 -0.00139695 0.000340122)
(0.155718 -0.00493852 0.00114413)
(0.152026 -0.00562449 0.00386234)
(0.144589 -0.00215873 0.00649223)
(0.139631 0.00182103 0.00817401)
(0.139625 0.0021782 0.00775569)
(0.14259 -0.00178525 0.00562809)
(0.146566 -0.00657344 0.00388077)
(0.14992 -0.0067951 0.00324236)
(0.149365 -0.00196588 0.0038891)
(0.143577 0.00386827 0.00522323)
(0.134812 0.00767839 0.00515217)
(0.126493 0.00936123 0.00454047)
(0.121645 0.00923131 0.00565674)
(0.120937 0.00732614 0.0078209)
(0.122943 0.00438344 0.00874171)
(0.12638 0.00178471 0.0077241)
(0.133265 0.00410603 0.00328419)
(0.1358 0.00343137 0.00388184)
(0.136652 0.00364378 0.00413335)
(0.135512 0.0050132 0.00445018)
(0.134253 0.00728151 0.00522595)
(0.134916 0.00889826 0.00598176)
(0.137818 0.00808103 0.00538127)
(0.141796 0.00472373 0.00261309)
(0.145964 0.000770301 -0.00127472)
(0.151136 -0.00163226 -0.00477743)
(0.157991 -0.002346 -0.00750309)
(0.16437 -0.00260017 -0.00985189)
(0.166549 -0.00230655 -0.0116234)
(0.164268 -0.000749684 -0.0118077)
(0.160909 0.00119812 -0.00995321)
(0.158465 0.00225288 -0.00682833)
(0.156534 0.0029069 -0.00379152)
(0.154191 0.00358577 -0.00199393)
(0.150719 0.00333531 -0.00123896)
(0.146478 0.0015607 -5.38086e-05)
(0.143384 -0.0010566 0.00224473)
(0.143771 -0.00367509 0.0043939)
(0.147872 -0.00596567 0.00472827)
(0.153047 -0.0078978 0.00329054)
(0.155485 -0.00907958 0.00278368)
(0.153077 -0.00816941 0.00503598)
(0.147706 -0.00359462 0.00790163)
(0.143018 0.00316953 0.00776946)
(0.140522 0.0072401 0.00394515)
(0.139967 0.00493008 -0.000495517)
(0.141658 -0.00165014 -0.0018412)
(0.14499 -0.0057909 -0.000310409)
(0.146403 -0.00318997 0.00146822)
(0.142751 0.00348569 0.00286833)
(0.135603 0.00913266 0.00382072)
(0.129326 0.0121266 0.00414624)
(0.126591 0.0128663 0.00398623)
(0.126967 0.0114575 0.00330567)
(0.128556 0.008639 0.00260132)
(0.130597 0.00585046 0.0026207)
(0.141744 0.00507468 -0.00636873)
(0.141879 0.00478365 -0.00263826)
(0.140365 0.00515678 0.00126378)
(0.136972 0.00539427 0.00450037)
(0.133878 0.00520278 0.00720607)
(0.133455 0.00416052 0.0095565)
(0.136497 0.0021398 0.0109494)
(0.142138 -0.000341635 0.010162)
(0.148586 -0.00260133 0.00670986)
(0.154102 -0.00389247 0.00141671)
(0.15746 -0.00374276 -0.0043527)
(0.158157 -0.00235057 -0.00888849)
(0.156403 -7.58952e-05 -0.010738)
(0.153125 0.0023501 -0.0101249)
(0.149609 0.00381346 -0.0086564)
(0.146992 0.00390819 -0.00734079)
(0.146291 0.00304742 -0.00602328)
(0.147881 0.00184385 -0.00470063)
(0.150642 0.0010309 -0.00395525)
(0.152763 0.00119952 -0.0036771)
(0.153507 0.0012804 -0.00257105)
(0.153597 -0.000975155 -4.93207e-05)
(0.153826 -0.00562951 0.00306799)
(0.154251 -0.00955543 0.00572271)
(0.154375 -0.00964567 0.00754027)
(0.153003 -0.00615954 0.00869734)
(0.149402 -0.00111227 0.00862017)
(0.144983 0.00357334 0.00605367)
(0.141799 0.00576157 0.00124965)
(0.140903 0.00378453 -0.00316775)
(0.142166 -0.00142304 -0.00384374)
(0.144429 -0.00615286 -0.000497498)
(0.145652 -0.0059814 0.00355007)
(0.143976 -0.000479661 0.00589226)
(0.140352 0.00656804 0.00636617)
(0.138073 0.0119532 0.0050059)
(0.138655 0.0145086 0.00162343)
(0.140527 0.0138287 -0.00295738)
(0.141526 0.010656 -0.00683273)
(0.141553 0.0070914 -0.0081593)
(0.153281 0.00352186 -0.0108245)
(0.150908 0.00427773 -0.00906979)
(0.148257 0.00596628 -0.00639547)
(0.146632 0.00670906 -0.00334812)
(0.146794 0.00556381 8.36354e-05)
(0.148398 0.00286846 0.0039204)
(0.150196 -0.000388758 0.0080581)
(0.151176 -0.00301523 0.0118451)
(0.152166 -0.00445632 0.0134649)