/*--------------------------------*- C++ -*----------------------------------*\
| =========                 |                                                 |
| \\      /  F ield         | OpenFOAM: The Open Source CFD Toolbox           |
|  \\    /   O peration     | Version:  2306                                  |
|   \\  /    A nd           | Website:  www.openfoam.com                      |
|    \\/     M anipulation  |                                                 |
\*---------------------------------------------------------------------------*/
FoamFile
{
    version     2.0;
    format      ascii;
    arch        "LSB;label=32;scalar=64";
    class       volVectorField;
    location    "8";
    object      U_0;
}
// * * * * * * * * * * * * * * * * * * * * * * * * * * * * * * * * * * * * * //

dimensions      [0 1 -1 0 0 0 0];

internalField   nonuniform List<vector> 
60000
(
(0.00681825 3.01003e-05 -0.000136765)
(0.00725263 3.33366e-05 6.52786e-05)
(0.00782126 2.71651e-05 0.000307636)
(0.00845738 2.48663e-05 0.000758591)
(0.00899505 2.88902e-05 0.00138587)
(0.00920327 3.51408e-05 0.00204637)
(0.00899609 3.59539e-05 0.00253803)
(0.00856226 2.84716e-05 0.00271313)
(0.00817115 2.01947e-05 0.00255738)
(0.00790959 1.50674e-05 0.00217396)
(0.00773032 1.09063e-05 0.00172551)
(0.00755348 5.30225e-06 0.00137139)
(0.00730157 -1.66391e-06 0.00119145)
(0.00691021 -7.73735e-06 0.00114696)
(0.00637024 -7.37644e-06 0.00117101)
(0.00580765 -3.49599e-06 0.00119691)
(0.00542138 -1.24093e-07 0.00117032)
(0.00529949 -9.35686e-08 0.00104016)
(0.00537545 -4.75732e-06 0.000774064)
(0.00552744 -1.22811e-05 0.000456391)
(0.00570058 -1.56742e-05 0.000203579)
(0.00593501 -1.09827e-05 4.65138e-06)
(0.00624804 -5.63145e-06 -0.000169431)
(0.00658657 1.05862e-05 -0.000267129)
(0.0069018 2.37681e-05 -0.000276439)
(0.00717836 2.74767e-05 -0.000309598)
(0.00743027 1.87297e-05 -0.000538221)
(0.00771902 -4.23789e-06 -0.00107455)
(0.00809071 -2.72394e-05 -0.00176813)
(0.00840783 -3.45619e-05 -0.00228807)
(0.0084562 -2.64456e-05 -0.00244204)
(0.00816895 -1.29516e-05 -0.00241208)
(0.00763383 3.49157e-06 -0.00242238)
(0.00698619 1.5044e-05 -0.00237323)
(0.00637154 1.32786e-05 -0.00220725)
(0.00594575 5.7861e-06 -0.00202705)
(0.00581326 3.35207e-06 -0.00181662)
(0.00595519 3.50823e-06 -0.0014673)
(0.00622794 1.14447e-05 -0.000973116)
(0.00650699 2.12692e-05 -0.000480767)
(0.0203892 0.00014394 -0.000384161)
(0.0218929 0.000127672 0.000183304)
(0.0236975 9.44301e-05 0.000947672)
(0.025583 0.000106531 0.00224282)
(0.0271715 0.000167888 0.00392605)
(0.0279169 0.00024049 0.00558647)
(0.0274965 0.000265648 0.00674157)
(0.0262841 0.000221508 0.00707322)
(0.0250503 0.000153476 0.00658523)
(0.0241964 0.000100557 0.00557453)
(0.0236641 6.68278e-05 0.0044567)
(0.0231851 4.04484e-05 0.00358362)
(0.0224608 1.2192e-05 0.00310164)
(0.0212894 -1.23925e-05 0.00295365)
(0.0197229 -3.17025e-05 0.00301636)
(0.0181453 -6.34302e-05 0.00310076)
(0.0170154 -0.000105616 0.00300756)
(0.0165132 -0.000140681 0.00260859)
(0.016503 -0.000159064 0.00193125)
(0.0167373 -0.000160303 0.00119793)
(0.0171157 -0.000138904 0.00060398)
(0.0177056 -8.82063e-05 0.000112866)
(0.0185082 -2.29075e-05 -0.00030331)
(0.0194201 5.87793e-05 -0.000536312)
(0.0203947 9.63626e-05 -0.000604503)
(0.0214384 6.04434e-05 -0.000784803)
(0.0225909 -5.98453e-05 -0.00146645)
(0.0239014 -0.000225434 -0.00285548)
(0.025256 -0.000325704 -0.00456018)
(0.0261369 -0.000278756 -0.00582912)
(0.0260448 -0.000130008 -0.00630142)
(0.0250006 2.02937e-05 -0.00633231)
(0.0234146 0.000118895 -0.00625707)
(0.0217055 0.000130706 -0.00598858)
(0.020104 6.00678e-05 -0.0056231)
(0.01879 -2.08578e-05 -0.00530842)
(0.0180253 -4.6467e-05 -0.00479739)
(0.0179738 -1.89762e-05 -0.00381344)
(0.0184743 5.18892e-05 -0.0024819)
(0.019279 0.000118591 -0.0012338)
(0.033757 0.000288104 -0.00112447)
(0.0363744 0.00022147 -0.000277752)
(0.0394796 0.000132441 0.00089236)
(0.0427245 0.000170566 0.00288376)
(0.045621 0.00031241 0.00547655)
(0.047377 0.000474658 0.00801972)
(0.047252 0.000540736 0.00982545)
(0.0454648 0.000466786 0.0104607)
(0.0432219 0.00033264 0.00989099)
(0.041526 0.000214353 0.00851522)
(0.040525 0.0001331 0.00694377)
(0.0397856 7.32438e-05 0.00565047)
(0.0387375 1.35191e-05 0.00480563)
(0.0369985 -3.7709e-05 0.00440095)
(0.034616 -9.18182e-05 0.00439535)
(0.0320829 -0.000186006 0.00456391)
(0.0299986 -0.000306232 0.00451681)
(0.0287032 -0.000399335 0.00398399)
(0.0281839 -0.000435612 0.00304587)
(0.0282019 -0.000415541 0.00204477)
(0.0286094 -0.00034176 0.00122609)
(0.0294269 -0.000203411 0.000530224)
(0.0306129 -2.42593e-05 -6.46637e-05)
(0.0320495 0.000143011 -0.000397856)
(0.0337349 0.000170502 -0.00046745)
(0.035696 2.18867e-06 -0.00063783)
(0.0379531 -0.000355279 -0.00147583)
(0.0405071 -0.00077774 -0.0033531)
(0.0430886 -0.000988483 -0.00585534)
(0.0447856 -0.000815741 -0.00795761)
(0.0447705 -0.000396051 -0.00902999)
(0.0431568 1.06269e-05 -0.00934119)
(0.040717 0.000247011 -0.00921474)
(0.038165 0.000248862 -0.00870536)
(0.0357174 7.37166e-05 -0.00819612)
(0.0333812 -0.000100197 -0.00793724)
(0.0314502 -0.00013656 -0.00743589)
(0.0304906 -4.91169e-05 -0.00613916)
(0.0307168 0.000115138 -0.00421715)
(0.0318583 0.000257935 -0.00237666)
(0.0461853 0.000386872 -0.00286028)
(0.0497454 0.000216138 -0.00193975)
(0.0541008 9.16295e-06 -0.000636927)
(0.0588005 5.80009e-05 0.00179362)
(0.0633473 0.000306461 0.0051803)
(0.0667931 0.000593023 0.00867208)
(0.0678293 0.000741757 0.0113629)
(0.0660431 0.0006908 0.0126842)
(0.0627662 0.000527314 0.0124637)
(0.0598836 0.000345558 0.0110778)
(0.0581736 0.000199035 0.00930968)
(0.0571799 9.17348e-05 0.00775793)
(0.0560282 1.12205e-06 0.00654865)
(0.0540853 -7.0675e-05 0.00569279)
(0.0512805 -0.000154989 0.0053797)
(0.0480159 -0.000316712 0.00556746)
(0.0448124 -0.000534898 0.00571965)
(0.0421528 -0.000719165 0.00526752)
(0.0404213 -0.00080706 0.00422327)
(0.0396805 -0.000784057 0.00307568)
(0.0397872 -0.000654083 0.00216125)
(0.0406219 -0.000395336 0.00138393)
(0.0420432 -5.32228e-05 0.000699576)
(0.0439111 0.000221924 0.000344703)
(0.0462703 0.000197363 0.000426966)
(0.0491399 -0.000198455 0.000583564)
(0.0524345 -0.000941204 0.000104893)
(0.0561238 -0.00177459 -0.00168993)
(0.0600725 -0.00215843 -0.00472556)
(0.063135 -0.00178815 -0.00790475)
(0.0639127 -0.000955721 -0.0101107)
(0.0623497 -0.000146577 -0.0112184)
(0.0595092 0.000330962 -0.0113769)
(0.0564426 0.00035524 -0.0107096)
(0.0534074 5.35782e-05 -0.00997832)
(0.0501508 -0.00023085 -0.00980362)
(0.0466982 -0.000281496 -0.00963355)
(0.0439212 -0.000133147 -0.00854582)
(0.0429137 0.000133816 -0.00649469)
(0.0437986 0.00036417 -0.00433879)
(0.057061 0.000350439 -0.00586659)
(0.0608823 2.14194e-06 -0.00529231)
(0.0660228 -0.000449842 -0.00432929)
(0.0720208 -0.000526755 -0.00193658)
(0.0784319 -0.000128177 0.00197263)
(0.0843285 0.000410605 0.00655542)
(0.087775 0.000719154 0.0105955)
(0.0872185 0.000779319 0.013224)
(0.0834255 0.000675689 0.0139848)
(0.0791217 0.000472625 0.0130496)
(0.0763207 0.000254003 0.0113762)
(0.0749531 8.28286e-05 0.00984833)
(0.073876 -4.34197e-05 0.00851498)
(0.0721251 -0.000122296 0.00717583)
(0.0694135 -0.000205409 0.00623326)
(0.0659247 -0.000393625 0.00615221)
(0.0618434 -0.000676644 0.00652347)
(0.0574847 -0.000959027 0.00637803)
(0.0536737 -0.00116354 0.00539724)
(0.051234 -0.0012271 0.00419013)
(0.0503701 -0.00109895 0.00330369)
(0.0508266 -0.000717317 0.00261885)
(0.0522418 -0.00015744 0.00200518)
(0.054343 0.000268089 0.00177083)
(0.057161 0.000172566 0.00219978)
(0.0606483 -0.00055684 0.00301158)
(0.0644417 -0.00188295 0.00346315)
(0.0683854 -0.00338264 0.00261911)
(0.0731948 -0.00416814 -0.000151684)
(0.0784055 -0.00355216 -0.00437353)
(0.0815018 -0.0020393 -0.00847182)
(0.0813734 -0.00061663 -0.0113627)
(0.0790818 0.000268416 -0.0126258)
(0.076054 0.000419857 -0.0121876)
(0.0728009 1.89212e-05 -0.0111677)
(0.0690167 -0.000381079 -0.0108964)
(0.0642945 -0.000449261 -0.0111113)
(0.0592494 -0.000258958 -0.0106241)
(0.0557873 7.00216e-05 -0.0090435)
(0.055136 0.000361473 -0.00713144)
(0.0672313 0.000161858 -0.00947544)
(0.0697376 -0.000478705 -0.00992199)
(0.074193 -0.00138468 -0.00997704)
(0.0801978 -0.00188022 -0.0084543)
(0.0875922 -0.00157061 -0.00505328)
(0.0962323 -0.000713456 8.46667e-05)
(0.103846 0.000145205 0.00596259)
(0.106733 0.000568117 0.0109191)
(0.104042 0.000681738 0.0137023)
(0.0986914 0.000556836 0.0139659)
(0.0944482 0.000285879 0.012715)
(0.0924522 3.14307e-05 0.0114792)
(0.0915027 -0.00014811 0.0105215)
(0.0902156 -0.000227436 0.00910802)
(0.0880536 -0.000268684 0.00740564)
(0.0850311 -0.000408171 0.00656443)
(0.0809188 -0.000661169 0.00686115)
(0.0753611 -0.000964921 0.00711933)
(0.0690636 -0.00130239 0.00639687)
(0.0637354 -0.00159016 0.00518421)
(0.0606487 -0.00162686 0.00435871)
(0.0598946 -0.00119356 0.00390897)
(0.0608399 -0.00037496 0.00356035)
(0.0628256 0.000285207 0.0036141)
(0.0657041 0.000151306 0.00450709)
(0.069392 -0.00105362 0.00602764)
(0.0731459 -0.0031639 0.00749494)
(0.0759761 -0.00559628 0.00816213)
(0.0792112 -0.00718411 0.00713413)
(0.0855813 -0.00672407 0.00349812)
(0.0931007 -0.0044116 -0.0023529)
(0.09732 -0.00180898 -0.00831701)
(0.0976038 -0.000128147 -0.0121745)
(0.0957534 0.000364088 -0.0129905)
(0.0928299 -2.39988e-05 -0.0119962)
(0.0890022 -0.000508798 -0.0114437)
(0.0837894 -0.000581 -0.0118117)
(0.0771155 -0.000344016 -0.0118766)
(0.0708601 2.18986e-06 -0.0110018)
(0.0673642 0.000272587 -0.00986337)
(0.0799111 -2.22451e-05 -0.0117634)
(0.079853 -0.00115296 -0.0136365)
(0.0814436 -0.0027465 -0.0154057)
(0.0848147 -0.00387276 -0.0155089)
(0.0899567 -0.00397853 -0.0138211)
(0.0978577 -0.00321372 -0.0102054)
(0.109286 -0.00195604 -0.00399784)
(0.119256 -0.000643243 0.00380078)
(0.121459 0.00023831 0.0101827)
(0.116975 0.000488715 0.0130545)
(0.111478 0.000268947 0.0128497)
(0.10863 -6.94916e-05 0.0119626)
(0.107843 -0.000351059 0.0117545)
(0.107141 -0.000446136 0.0111458)
(0.105685 -0.000408188 0.00921897)
(0.103629 -0.000432427 0.00729088)
(0.100642 -0.000545607 0.00689927)
(0.0954355 -0.000723772 0.00733319)
(0.0876203 -0.00106348 0.00701333)
(0.0789824 -0.00160024 0.00590512)
(0.0721415 -0.00200982 0.00508836)
(0.0686361 -0.00172074 0.00485081)
(0.0681975 -0.000673077 0.00481939)
(0.0696183 0.000304126 0.00517052)
(0.0722899 0.000155596 0.00640783)
(0.0761239 -0.00156432 0.00833895)
(0.0803592 -0.00444205 0.0102087)
(0.0829434 -0.00769922 0.0116089)
(0.0830752 -0.0102436 0.0126526)
(0.0854056 -0.0105904 0.0121211)
(0.094013 -0.00828283 0.0077707)
(0.104653 -0.00457876 -0.000299289)
(0.111305 -0.00143198 -0.00821463)
(0.11313 -3.57719e-05 -0.0121119)
(0.111584 -0.000126549 -0.012299)
(0.108063 -0.000573036 -0.0117018)
(0.103129 -0.000609074 -0.0119657)
(0.096249 -0.000339686 -0.0122659)
(0.0884816 2.04476e-05 -0.0117925)
(0.0825432 0.000255826 -0.011226)
(0.0962872 7.22362e-05 -0.0113866)
(0.0950035 -0.00148002 -0.01403)
(0.0932765 -0.00388863 -0.017744)
(0.0916666 -0.00587963 -0.0201976)
(0.0921137 -0.00655812 -0.020472)
(0.0953578 -0.0062187 -0.0188255)
(0.104038 -0.00529562 -0.0146277)
(0.118363 -0.00354505 -0.00699869)
(0.129504 -0.0015125 0.00245292)
(0.130185 -0.000273771 0.00932957)
(0.125035 -2.88338e-05 0.0114077)
(0.121516 -0.000239498 0.0108954)
(0.121279 -0.00062128 0.0111163)
(0.121599 -0.000848026 0.0119555)
(0.120709 -0.000752229 0.0111194)
(0.119399 -0.000558656 0.00864774)
(0.118243 -0.000453651 0.00705935)
(0.115414 -0.000427491 0.00708885)
(0.108629 -0.000559616 0.00706329)
(0.0982627 -0.0011376 0.00621169)
(0.0872858 -0.00193561 0.00546168)
(0.0792117 -0.00203713 0.00537148)
(0.0757856 -0.000940669 0.00555512)
(0.0760013 0.000376702 0.00603842)
(0.0784031 0.000351657 0.007403)
(0.0824535 -0.00158819 0.00952966)
(0.0876317 -0.00492214 0.0113703)
(0.0921177 -0.00853387 0.0122919)
(0.0925235 -0.0116159 0.0135663)
(0.0895251 -0.0131553 0.0160703)
(0.0916125 -0.0119313 0.0163108)
(0.102348 -0.00833684 0.0104867)
(0.115573 -0.00406696 0.000370365)
(0.124352 -0.00122378 -0.00782904)
(0.12634 -0.000559623 -0.0111095)
(0.123535 -0.00078179 -0.0115204)
(0.119121 -0.000621442 -0.0116705)
(0.113336 -0.000101724 -0.0118708)
(0.106069 0.000327173 -0.0114177)
(0.0996574 0.000509884 -0.0108034)
(0.111898 0.000569062 -0.00823706)
(0.112461 -0.000939531 -0.0105029)
(0.110524 -0.00373027 -0.0153889)
(0.104461 -0.00665 -0.0205759)
(0.0989397 -0.00821221 -0.0235647)
(0.0970894 -0.00848307 -0.0237134)
(0.100086 -0.00839208 -0.0209469)
(0.110822 -0.00736035 -0.0151379)
(0.126661 -0.00478194 -0.00611441)
(0.135457 -0.00211704 0.00341393)
(0.132914 -0.00106269 0.00855568)
(0.128279 -0.0010135 0.00873785)
(0.128746 -0.00116236 0.00837821)
(0.131728 -0.00128998 0.0100453)
(0.132032 -0.00126594 0.011299)
(0.130166 -0.0010528 0.00985083)
(0.129919 -0.000702429 0.00750795)
(0.130881 -0.000278285 0.00665661)
(0.128521 -8.3126e-05 0.0065566)
(0.120183 -0.000446833 0.00594231)
(0.107274 -0.00132492 0.00537156)
(0.0941685 -0.00184018 0.00553391)
(0.0857487 -0.000980043 0.00601458)
(0.083275 0.000515073 0.00664296)
(0.084884 0.000730372 0.00793891)
(0.0890546 -0.00119921 0.00974501)
(0.0948047 -0.00474115 0.0110656)
(0.100845 -0.00837314 0.0112465)
(0.104107 -0.0111747 0.0117102)
(0.101279 -0.0131324 0.015069)
(0.0964745 -0.0136259 0.0194206)
(0.0999369 -0.0115244 0.0183369)
(0.113126 -0.00751489 0.00998961)
(0.128074 -0.00345014 -0.000578677)
(0.134602 -0.00122405 -0.00771059)
(0.130341 -0.00063523 -0.0103054)
(0.123199 -0.00055409 -0.0103175)
(0.119031 -0.000189428 -0.0097503)
(0.116152 0.000383086 -0.00906054)
(0.113123 0.000831117 -0.00826929)
(0.117599 0.000670781 -0.00175681)
(0.123472 -0.000199991 -0.0032399)
(0.126419 -0.00233667 -0.00868866)
(0.120898 -0.00542285 -0.0163166)
(0.110595 -0.0079744 -0.0226445)
(0.103673 -0.00900414 -0.0256991)
(0.102459 -0.00967121 -0.0246232)
(0.107019 -0.0101433 -0.0199279)
(0.11931 -0.00872964 -0.0123779)
(0.13407 -0.0052048 -0.0027725)
(0.138994 -0.00241925 0.00482835)
(0.133862 -0.0020544 0.00662544)
(0.130391 -0.0026516 0.00519357)
(0.134712 -0.00247957 0.00593347)
(0.139457 -0.00152943 0.00863881)
(0.137479 -0.000933421 0.00932378)
(0.133523 -0.00105545 0.00758956)
(0.134887 -0.00110224 0.00614562)
(0.139391 -0.000592514 0.00579103)
(0.138882 -0.000157429 0.00532388)
(0.129533 -0.000521247 0.00481226)
(0.114183 -0.000999745 0.00517556)
(0.100057 -0.000457034 0.00628321)
(0.0928301 0.000807733 0.00745547)
(0.092417 0.00102495 0.00858245)
(0.0965194 -0.00103816 0.00924528)
(0.102962 -0.00463805 0.00900691)
(0.109873 -0.00807897 0.0079917)
(0.114795 -0.0102531 0.00771735)
(0.114359 -0.0114216 0.0112135)
(0.108219 -0.0125598 0.017975)
(0.103929 -0.0128746 0.0212931)
(0.110938 -0.0107321 0.0160498)
(0.125788 -0.00644866 0.00535837)
(0.134653 -0.00197899 -0.00427124)
(0.129433 0.000482046 -0.00888231)
(0.118322 0.00063883 -0.0085207)
(0.111992 -2.38987e-06 -0.00599337)
(0.111648 -2.30792e-06 -0.00384677)
(0.113745 0.00051677 -0.00248837)
(0.113214 0.000220276 0.00574953)
(0.121651 -0.000242678 0.00618726)
(0.132076 -0.00119507 0.00108567)
(0.133887 -0.00307308 -0.00862485)
(0.124343 -0.00586652 -0.0180994)
(0.112909 -0.00797227 -0.0245495)
(0.107915 -0.00918742 -0.0265977)
(0.109347 -0.0105279 -0.0237811)
(0.115578 -0.0111968 -0.0174517)
(0.127617 -0.00930399 -0.00886658)
(0.14002 -0.00530311 -0.000180047)
(0.142751 -0.00277463 0.00431587)
(0.136557 -0.00335144 0.00372084)
(0.133271 -0.00442987 0.00281292)
(0.138479 -0.00308916 0.00486986)
(0.142769 -0.000374484 0.00708158)
(0.139585 0.000463835 0.00688536)
(0.135309 -0.00111213 0.00560556)
(0.137908 -0.00262307 0.00507612)
(0.145094 -0.00225939 0.00496302)
(0.146225 -0.000909611 0.00448297)
(0.135619 8.30309e-05 0.00445644)
(0.118985 0.000988949 0.00594308)
(0.106403 0.00163722 0.00833612)
(0.102252 0.00102817 0.00996903)
(0.104898 -0.00178337 0.00936536)
(0.11121 -0.0055603 0.00678764)
(0.11897 -0.00836082 0.00373469)
(0.125468 -0.00941567 0.00197052)
(0.126713 -0.00937886 0.00480174)
(0.12123 -0.00971206 0.0131241)
(0.112776 -0.0113566 0.0204155)
(0.111771 -0.0120658 0.0189285)
(0.121569 -0.00903495 0.00936076)
(0.130291 -0.00298306 -0.00127165)
(0.127306 0.0017268 -0.00745168)
(0.117203 0.00261711 -0.00782339)
(0.109644 0.00102045 -0.0044008)
(0.107744 -3.74928e-05 -0.000194806)
(0.109308 9.94563e-05 0.00314096)
(0.110574 0.000163704 0.00756053)
(0.115431 -0.000731766 0.011267)
(0.127743 -0.00104492 0.0093938)
(0.138299 -0.00102784 -3.68719e-05)
(0.135927 -0.00258224 -0.0115007)
(0.124562 -0.00538145 -0.020262)
(0.115334 -0.00772526 -0.0252996)
(0.113885 -0.00948657 -0.0257526)
(0.117767 -0.0111648 -0.0217734)
(0.124647 -0.0118341 -0.014696)
(0.13545 -0.00971671 -0.00604948)
(0.14512 -0.00577524 0.000760793)
(0.145157 -0.00363755 0.00277302)
(0.137795 -0.00434296 0.001867)
(0.134921 -0.00458531 0.00241286)
(0.139933 -0.0019608 0.0046521)
(0.144176 0.00103421 0.00593721)
(0.142333 0.000781271 0.00540624)
(0.138746 -0.00267301 0.00437116)
(0.141265 -0.00561951 0.00430038)
(0.149074 -0.00451685 0.00449248)
(0.149841 -0.000434824 0.00404717)
(0.138377 0.00284834 0.00492203)
(0.124215 0.00357802 0.00847022)
(0.116143 0.00164376 0.0117137)
(0.114711 -0.00243071 0.0103483)
(0.117301 -0.00713357 0.00501597)
(0.123802 -0.0100351 -2.1532e-05)
(0.132796 -0.00986318 -0.00298977)
(0.137276 -0.00789642 -0.00194758)
(0.133234 -0.00665231 0.00601879)
(0.123451 -0.00794387 0.0164975)
(0.116267 -0.0107603 0.01964)
(0.118934 -0.0100772 0.012752)
(0.125054 -0.00411576 0.00240774)
(0.125378 0.00223196 -0.00515994)
(0.120679 0.00426268 -0.00799289)
(0.115675 0.00254663 -0.0065896)
(0.112381 0.000871645 -0.00236011)
(0.11069 0.000609701 0.00263947)
(0.114482 0.00087939 0.00209854)
(0.1148 -0.00133489 0.0075202)
(0.123386 -0.00215492 0.00983143)
(0.136951 -0.00045491 0.00449621)
(0.142619 0.00046811 -0.00570201)
(0.136201 -0.00181216 -0.0148403)
(0.125592 -0.0052094 -0.0212517)
(0.119947 -0.0077895 -0.0245757)
(0.121943 -0.00982798 -0.0239677)
(0.127267 -0.0120086 -0.0195319)
(0.133966 -0.0126857 -0.0118699)
(0.142251 -0.00998476 -0.00347777)
(0.146653 -0.00575495 0.00136982)
(0.142966 -0.00381214 0.00173435)
(0.136781 -0.00405057 0.00134402)
(0.136642 -0.00328251 0.00296214)
(0.142106 -0.000825427 0.00544018)
(0.146402 0.000747709 0.00640698)
(0.145633 -0.00103224 0.00510513)
(0.142438 -0.00571522 0.00353384)
(0.144042 -0.00812967 0.00347819)
(0.149681 -0.00423222 0.00355737)
(0.149196 0.00191428 0.00400508)
(0.14085 0.00480928 0.00768775)
(0.131623 0.00348413 0.0122928)
(0.125637 -0.000369646 0.010857)
(0.122453 -0.00566521 0.00317244)
(0.123853 -0.0104135 -0.0035177)
(0.132977 -0.0114832 -0.00593049)
(0.14264 -0.00836822 -0.00570631)
(0.142551 -0.0049187 -0.000418191)
(0.13355 -0.00442018 0.0105203)
(0.12327 -0.00736845 0.0181829)
(0.119683 -0.00877412 0.0153992)
(0.121847 -0.00450498 0.00629345)
(0.123476 0.00194765 -0.00211109)
(0.123743 0.00481099 -0.00718491)
(0.123386 0.00383859 -0.00871533)
(0.12147 0.00234744 -0.006841)
(0.117913 0.00190863 -0.00287491)
(0.124946 0.00252359 -0.0052998)
(0.122217 -0.0010071 -0.000294917)
(0.124827 -0.00341622 0.00414351)
(0.135435 -0.00154373 0.00356218)
(0.145995 0.0016478 -0.00243291)
(0.146147 0.00128559 -0.0100073)
(0.137127 -0.00195001 -0.0168759)
(0.128217 -0.00522189 -0.0218012)
(0.126827 -0.00781582 -0.023664)
(0.131638 -0.0107021 -0.0222252)
(0.137191 -0.0134021 -0.0168819)
(0.142042 -0.0128107 -0.00824836)
(0.145548 -0.008232 -0.00100527)
(0.144513 -0.00391072 0.00128396)
(0.139803 -0.00284843 0.000858905)
(0.137224 -0.00316769 0.0018833)
(0.139934 -0.00230738 0.00523522)
(0.145373 -0.000679386 0.00817751)
(0.149508 -0.00058133 0.00761372)
(0.148938 -0.00365167 0.00409046)
(0.144919 -0.00745353 0.0017764)
(0.143445 -0.00684385 0.00257873)
(0.144178 -0.00174481 0.00508433)
(0.141493 0.00277132 0.00893391)
(0.135672 0.00397008 0.0118991)
(0.131218 0.00218978 0.00909323)
(0.12835 -0.00209931 0.000797154)
(0.126795 -0.00797027 -0.00598172)
(0.132028 -0.0118057 -0.00689403)
(0.143293 -0.0101413 -0.00534142)
(0.14809 -0.00538276 -0.00261874)
(0.141486 -0.00267708 0.00519188)
(0.130555 -0.00391196 0.0146524)
(0.123387 -0.00558089 0.0164917)
(0.122123 -0.00299843 0.0099978)
(0.123472 0.00204718 0.00164309)
(0.12604 0.00432949 -0.00469193)
(0.129282 0.00370247 -0.00853598)
(0.130633 0.00324449 -0.00976831)
(0.128659 0.0036407 -0.00852565)
(0.135066 0.00328682 -0.00896672)
(0.132483 0.000291424 -0.00456099)
(0.129901 -0.00302011 0.000109505)
(0.133941 -0.00266761 0.00178193)
(0.144507 0.000817315 -0.000675659)
(0.151096 0.00265082 -0.00610322)
(0.147029 0.00104806 -0.0128585)
(0.137943 -0.00181872 -0.0188218)
(0.13353 -0.00488026 -0.0220529)
(0.136662 -0.00859381 -0.0224828)
(0.142484 -0.0126221 -0.0199336)
(0.146026 -0.0140134 -0.0131393)
(0.147113 -0.010267 -0.00485094)
(0.14593 -0.00437675 -0.00027295)
(0.142434 -0.00138863 0.000418883)
(0.139507 -0.00169146 0.00142565)
(0.140095 -0.00241737 0.00513872)
(0.144262 -0.00206431 0.00930049)
(0.14986 -0.00155486 0.009648)
(0.152175 -0.00246453 0.00545491)
(0.147623 -0.00477668 0.00161531)
(0.139585 -0.00605412 0.00232406)
(0.133827 -0.00420926 0.00566133)
(0.131303 -0.000468452 0.00805917)
(0.131307 0.00272594 0.00790876)
(0.13339 0.0036674 0.00418947)
(0.134652 0.00130488 -0.00248979)
(0.133464 -0.00437264 -0.0076691)
(0.135098 -0.0103424 -0.00741182)
(0.143728 -0.0114596 -0.00397159)
(0.150875 -0.00709762 -0.00117384)
(0.146875 -0.00280889 0.00356692)
(0.136012 -0.00186253 0.0112183)
(0.127511 -0.00222673 0.0149412)
(0.125069 -0.000300678 0.0111826)
(0.126392 0.00315127 0.00432789)
(0.12836 0.00438111 -0.00119304)
(0.130354 0.0030801 -0.00528064)
(0.132793 0.00239719 -0.00872495)
(0.13486 0.00338792 -0.0104237)
(0.135266 0.00234909 -0.00521523)
(0.135875 0.00118661 -0.0016201)
(0.132456 -0.0010242 0.00151376)
(0.131274 -0.00162139 0.00249194)
(0.137915 0.000282949 0.00113935)
(0.147886 0.002534 -0.00290629)
(0.150857 0.00289807 -0.00928814)
(0.145608 0.00165432 -0.0157348)
(0.141106 -0.000873935 -0.0196712)
(0.143013 -0.0052014 -0.0210124)
(0.148469 -0.0105107 -0.0205948)
(0.151672 -0.0134654 -0.0168293)
(0.151146 -0.0111556 -0.00966262)
(0.148717 -0.00522746 -0.003282)
(0.145356 -0.000654166 -0.000123443)
(0.142651 0.000293195 0.00173562)
(0.142313 -0.000815503 0.0045719)
(0.144512 -0.00192825 0.00815944)
(0.148136 -0.00237934 0.00980277)
(0.150374 -0.0026464 0.00736252)
(0.147753 -0.00309366 0.00294462)
(0.140339 -0.00335673 0.000924787)
(0.132592 -0.00292213 0.00204023)
(0.129267 -0.00174147 0.00346725)
(0.131674 -1.02803e-05 0.00320447)
(0.136777 0.00182137 0.000461263)
(0.139176 0.00210157 -0.00409594)
(0.13766 -0.00124396 -0.00721257)
(0.137549 -0.00767588 -0.00640644)
(0.143326 -0.0117383 -0.00303996)
(0.150508 -0.00894284 1.51257e-05)
(0.149623 -0.00368364 0.00379532)
(0.141089 -0.00109358 0.00958628)
(0.132734 -0.000257254 0.0127401)
(0.128894 0.00187034 0.0101446)
(0.127956 0.00488989 0.00542026)
(0.126879 0.0057438 0.00218244)
(0.125796 0.00384285 -0.000522773)
(0.126939 0.00187009 -0.00396333)
(0.130957 0.00182547 -0.00629585)
(0.13235 -0.00123487 -0.000979453)
(0.134962 -0.000474498 0.00101525)
(0.133172 -3.85714e-05 0.00336894)
(0.13048 0.000448352 0.00443884)
(0.132586 0.00148875 0.00341848)
(0.140468 0.00297088 -0.000126095)
(0.148279 0.00413905 -0.00564393)
(0.150418 0.00437903 -0.0112278)
(0.149664 0.00297677 -0.0150586)
(0.151857 -0.00109229 -0.0173405)
(0.156574 -0.00724822 -0.0189917)
(0.158792 -0.0116108 -0.0183602)
(0.156732 -0.0104908 -0.0134879)
(0.152675 -0.00512801 -0.00671016)
(0.148319 -0.000209583 -0.00157144)
(0.145218 0.00140792 0.00161605)
(0.144629 0.000716581 0.00410948)
(0.145655 -0.000524274 0.00657185)
(0.14647 -0.00178959 0.00843068)
(0.14598 -0.00279108 0.00772217)
(0.143658 -0.0026719 0.00409233)
(0.139617 -0.00144998 0.000432818)
(0.13579 -0.000675658 -0.000519567)
(0.134819 -0.00150295 0.000703245)
(0.137297 -0.00232647 0.00170125)
(0.140521 -0.00100549 0.000471373)
(0.140541 0.00127307 -0.00242694)
(0.137816 0.00081707 -0.00378967)
(0.137077 -0.00424364 -0.00220009)
(0.141087 -0.0100265 0.000339872)
(0.147692 -0.010194 0.00232613)
(0.150411 -0.00552674 0.00481639)
(0.14635 -0.00113564 0.00872255)
(0.139186 0.00179567 0.0107991)
(0.132847 0.00475925 0.00882971)
(0.127892 0.0073379 0.00543866)
(0.123886 0.00724644 0.00371817)
(0.121906 0.00400764 0.00295026)
(0.122996 0.000116853 0.00123894)
(0.127109 -0.00162581 -0.000773137)
(0.131067 -0.00191077 0.00395683)
(0.133062 -0.00101697 0.00405487)
(0.132022 0.000984303 0.00491953)
(0.130049 0.00343642 0.00575082)
(0.130659 0.00509561 0.00576855)
(0.135226 0.0051921 0.00376592)
(0.141851 0.00477005 -0.000578835)
(0.147804 0.00519015 -0.00575747)
(0.153045 0.00570689 -0.00959994)
(0.158996 0.00341844 -0.0121227)
(0.164332 -0.00246377 -0.0147591)
(0.165699 -0.00804917 -0.0168242)
(0.162416 -0.00844236 -0.0153124)
(0.1571 -0.00392372 -0.0099795)
(0.151831 0.000597118 -0.00412815)
(0.147789 0.00208415 0.000182839)
(0.145614 0.00158194 0.00313295)
(0.144713 0.00084663 0.00524768)
(0.143851 3.23469e-05 0.00673698)
(0.142028 -0.000852451 0.00678351)
(0.139546 -0.00078724 0.00433828)
(0.138242 0.000347127 0.000847595)
(0.13986 0.000483913 -0.000806816)
(0.143596 -0.00191295 0.000141819)
(0.145784 -0.00474998 0.00158881)
(0.144009 -0.00417617 0.00138924)
(0.139718 -0.000405808 0.000666682)
(0.136658 0.00180764 0.00207496)
(0.137427 -0.00108968 0.00451087)
(0.141555 -0.00711363 0.00534729)
(0.147109 -0.0102109 0.0050113)
(0.150705 -0.00738822 0.00560672)
(0.149178 -0.00189154 0.00790566)
(0.143251 0.00264761 0.00893432)
(0.135399 0.00600337 0.006845)
(0.127593 0.00836599 0.00453317)
(0.122327 0.00845997 0.00510719)
(0.121091 0.0056618 0.00705199)
(0.123133 0.00160397 0.00713447)
(0.12703 -0.00122629 0.00532452)
(0.131115 0.000635902 0.00574855)
(0.134723 0.00115377 0.00479268)
(0.135677 0.00270557 0.0049277)
(0.134303 0.00517092 0.0059294)
(0.133559 0.00761459 0.00692718)
(0.135327 0.00830557 0.00614764)
(0.138919 0.00660365 0.00277887)
(0.143396 0.00393159 -0.00152323)
(0.14948 0.00248344 -0.00464809)
(0.157622 0.00200019 -0.00695156)
(0.164913 0.000378485 -0.0100028)
(0.167187 -0.00256611 -0.0134376)
(0.164491 -0.00392334 -0.0147096)
(0.160666 -0.00215922 -0.0123078)
(0.157834 0.000476654 -0.00779124)
(0.154939 0.00191752 -0.00345453)
(0.151169 0.00227802 -0.000232615)
(0.14704 0.00196342 0.00172764)
(0.143304 0.000979298 0.00302877)
(0.140408 5.0044e-05 0.00422827)
(0.139037 0.000175929 0.00480675)
(0.140698 0.0010707 0.00388077)
(0.146235 0.000848186 0.00171813)
(0.153062 -0.00180763 0.000259972)
(0.15559 -0.00518624 0.0013892)
(0.151137 -0.00534918 0.00424922)
(0.143724 -0.0015891 0.00681179)
(0.139363 0.00213494 0.00822997)
(0.139871 0.00194241 0.00743173)
(0.143056 -0.00242313 0.00525971)
(0.14709 -0.00694855 0.0037348)
(0.150119 -0.00644885 0.00328232)
(0.148866 -0.00118942 0.00406867)
(0.142527 0.00453478 0.00534269)
(0.133655 0.00802751 0.00513425)
(0.12566 0.00942845 0.00463041)
(0.121346 0.00906814 0.00591269)
(0.121065 0.00700374 0.0079883)
(0.123298 0.00403676 0.00864919)
(0.126855 0.00156361 0.0074625)
(0.133652 0.00394543 0.00331775)
(0.136044 0.00339672 0.00390497)
(0.136638 0.00374851 0.00416182)
(0.135366 0.00524656 0.00454911)
(0.134257 0.0075127 0.0053745)
(0.135224 0.00888924 0.00603466)
(0.138347 0.00770319 0.00516098)
(0.142388 0.00412887 0.00213277)
(0.146623 0.00026362 -0.00181215)
(0.152005 -0.00187757 -0.00522685)
(0.158975 -0.00243664 -0.00783786)
(0.164977 -0.00261266 -0.0100981)
(0.166457 -0.00215389 -0.0117135)
(0.163789 -0.000448731 -0.0116426)
(0.160473 0.00145776 -0.00956775)
(0.158147 0.00240242 -0.00638923)
(0.156219 0.00303056 -0.00347776)
(0.153765 0.00363258 -0.00185242)
(0.150161 0.0031758 -0.00111271)
(0.145946 0.00120359 0.000215667)
(0.143168 -0.00148044 0.00258223)
(0.144056 -0.00407461 0.00457866)
(0.148518 -0.00629245 0.00463851)
(0.15359 -0.00809922 0.0031144)
(0.155465 -0.00904175 0.00287662)
(0.152497 -0.00772148 0.00539346)
(0.147032 -0.00276003 0.00808198)
(0.142595 0.00393168 0.00743798)
(0.140345 0.00733503 0.00327167)
(0.140042 0.00426341 -0.000957577)
(0.142029 -0.00242979 -0.0017963)
(0.145357 -0.0058728 -6.68951e-05)
(0.14623 -0.00247655 0.0016846)
(0.141967 0.00434182 0.00305392)
(0.134728 0.00968792 0.00395313)
(0.128867 0.0123509 0.00419656)
(0.126638 0.0128089 0.00390509)
(0.127288 0.0111622 0.00312343)
(0.128926 0.00825872 0.00245526)
(0.130983 0.00554749 0.0025927)
(0.141831 0.00490342 -0.00598568)
(0.141828 0.00479046 -0.00211725)
(0.14005 0.00520138 0.0017394)
(0.136568 0.00539035 0.00490619)
(0.133711 0.00509202 0.00758142)
(0.13372 0.00389477 0.00986566)
(0.137174 0.00176462 0.0110175)
(0.14304 -0.00072858 0.0098384)
(0.149466 -0.00290084 0.00602018)
(0.154744 -0.00399092 0.000564334)
(0.157715 -0.00361832 -0.00512028)
(0.157991 -0.00204878 -0.00931261)
(0.155924 0.000316231 -0.0107507)
(0.152537 0.00267807 -0.0099115)
(0.149107 0.0039455 -0.00843401)
(0.146728 0.00385404 -0.0071619)
(0.146356 0.00289723 -0.00585794)
(0.148211 0.00170476 -0.00457753)
(0.151021 0.00099993 -0.00390218)
(0.152997 0.0012259 -0.00358255)
(0.15357 0.00109174 -0.00228839)
(0.153583 -0.00153776 0.000393179)
(0.153817 -0.00629803 0.0035207)
(0.154249 -0.00984094 0.00605714)
(0.154267 -0.00937364 0.00772294)
(0.152631 -0.00553451 0.00871878)
(0.148837 -0.000429001 0.00837978)
(0.144484 0.00402773 0.00549779)
(0.14154 0.00572643 0.000579333)
(0.14093 0.00324451 -0.00352218)
(0.142401 -0.00213953 -0.0036226)
(0.144675 -0.00645925 3.21123e-05)
(0.145613 -0.00551181 0.003963)
(0.143596 0.000425037 0.00607628)
(0.140016 0.00738497 0.00634218)
(0.138141 0.012424 0.00470801)
(0.139045 0.014558 0.00105131)
(0.140885 0.0134854 -0.00358399)
(0.14169 0.0101325 -0.00722932)
(0.141636 0.00666932 -0.00814026)
(0.15305 0.003485 -0.0107136)
(0.150558 0.0044636 -0.00875514)
(0.147968 0.00613197 -0.00599366)
(0.146571 0.006655 -0.00289383)
(0.146985 0.00525689 0.000606866)
(0.148705 0.00241967 0.00450796)
(0.150419 -0.000810677 0.00867182)
(0.151301 -0.00328547 0.0122594)