/*--------------------------------*- C++ -*----------------------------------*\
| =========                 |                                                 |
| \\      /  F ield         | OpenFOAM: The Open Source CFD Toolbox           |
|  \\    /   O peration     | Version:  2306                                  |
|   \\  /    A nd           | Website:  www.openfoam.com                      |
|    \\/     M anipulation  |                                                 |
\*---------------------------------------------------------------------------*/
FoamFile
{
    version     2.0;
    format      ascii;
    arch        "LSB;label=32;scalar=64";
    class       volVectorField;
    location    "8";
    object      UMean;
}
// * * * * * * * * * * * * * * * * * * * * * * * * * * * * * * * * * * * * * //

dimensions      [0 1 -1 0 0 0 0];

internalField   nonuniform List<vector> 
60000
(
(0.0091856 3.24734e-05 0.0014173)
(0.00947175 2.46744e-05 0.00164134)
(0.00963098 1.81427e-05 0.00184234)
(0.00965741 1.3511e-05 0.00201353)
(0.00955457 9.40239e-06 0.00210186)
(0.00931635 5.62539e-06 0.00205788)
(0.00895732 2.72602e-06 0.00188491)
(0.00851048 3.98503e-07 0.00164123)
(0.00801804 -2.44786e-06 0.00140403)
(0.00752589 -6.22806e-06 0.00123475)
(0.00706053 -1.02739e-05 0.00115347)
(0.00663743 -1.27506e-05 0.00112607)
(0.00628174 -1.34097e-05 0.00109195)
(0.0060158 -1.25082e-05 0.00101198)
(0.00586227 -1.0227e-05 0.000881955)
(0.005826 -7.53444e-06 0.000709221)
(0.00589972 -3.98938e-06 0.000502861)
(0.0060667 -4.55303e-07 0.000268901)
(0.00629798 2.81167e-06 1.54388e-05)
(0.00657419 5.89834e-06 -0.000250617)
(0.00690301 9.06849e-06 -0.000532106)
(0.0072817 1.11487e-05 -0.000826906)
(0.00767601 1.14456e-05 -0.00111295)
(0.00803404 9.6054e-06 -0.00136915)
(0.00829402 5.16879e-06 -0.00159514)
(0.0084055 -8.8825e-08 -0.00180628)
(0.00836714 -5.67292e-06 -0.00200682)
(0.0081955 -1.0042e-05 -0.00217282)
(0.0078999 -1.03586e-05 -0.00226729)
(0.0075111 -6.19364e-06 -0.00227486)
(0.00711246 -5.81349e-07 -0.00220487)
(0.00679655 4.60944e-06 -0.00205283)
(0.00661873 1.01845e-05 -0.00179647)
(0.00660279 1.53433e-05 -0.00144482)
(0.00675116 2.0698e-05 -0.00104108)
(0.00704693 2.61034e-05 -0.000608342)
(0.00744432 3.23457e-05 -0.000150453)
(0.00789459 3.78066e-05 0.000319595)
(0.00835912 4.05601e-05 0.000766421)
(0.00880109 3.84961e-05 0.00113661)
(0.0278911 0.000127847 0.00376494)
(0.0288616 8.86779e-05 0.00432334)
(0.029417 6.33293e-05 0.00483219)
(0.029553 5.00891e-05 0.00527291)
(0.0292843 4.3882e-05 0.0055096)
(0.0285864 4.14142e-05 0.00540724)
(0.0275066 3.75732e-05 0.0049684)
(0.0261704 2.50824e-05 0.00434601)
(0.0247234 -1.5545e-06 0.00374374)
(0.0232814 -3.94949e-05 0.00331513)
(0.0218892 -7.72231e-05 0.00309619)
(0.0205765 -0.000107097 0.00298986)
(0.019424 -0.000128326 0.00285746)
(0.0185171 -0.00013809 0.00262537)
(0.0179377 -0.00013401 0.00228708)
(0.0177044 -0.000117921 0.00184619)
(0.0178024 -9.28184e-05 0.00131649)
(0.0182039 -6.45863e-05 0.00071803)
(0.0188496 -3.76096e-05 6.81246e-05)
(0.0196895 -1.69645e-05 -0.000631169)
(0.0207277 -3.58905e-06 -0.00139438)
(0.0219337 2.49895e-06 -0.00220557)
(0.0232077 -1.78111e-06 -0.00299031)
(0.0244086 -1.94374e-05 -0.00367768)
(0.0253536 -4.81178e-05 -0.00425259)
(0.0258715 -8.04076e-05 -0.00475531)
(0.0259122 -0.000108157 -0.00521627)
(0.0254687 -0.000116224 -0.00559819)
(0.0245521 -9.59327e-05 -0.00582681)
(0.0232896 -5.87545e-05 -0.00586758)
(0.0219784 -2.42578e-05 -0.00572022)
(0.020926 3.84417e-06 -0.00533891)
(0.020299 3.2152e-05 -0.00466425)
(0.0201489 6.23961e-05 -0.00374046)
(0.0204675 9.79311e-05 -0.00267092)
(0.0212202 0.000138249 -0.00149993)
(0.0223128 0.000178164 -0.000254291)
(0.0236465 0.000201991 0.000994878)
(0.0251217 0.000199409 0.00214262)
(0.026591 0.000170416 0.00306994)
(0.0469891 0.000197245 0.00534257)
(0.0488263 0.000106106 0.00618568)
(0.0499532 5.42698e-05 0.00694613)
(0.0503592 3.41028e-05 0.00763633)
(0.0500692 3.29557e-05 0.00808205)
(0.049041 4.34457e-05 0.00806304)
(0.0473538 4.92934e-05 0.00753027)
(0.0452273 2.95825e-05 0.00667126)
(0.0428952 -2.90108e-05 0.00578683)
(0.0405155 -0.000117612 0.00512356)
(0.038154 -0.000204974 0.00475109)
(0.035866 -0.000275091 0.00454069)
(0.0337833 -0.000328177 0.00431086)
(0.0320475 -0.000355779 0.00397448)
(0.0308072 -0.000350071 0.00352283)
(0.0301236 -0.000312561 0.00293936)
(0.0300087 -0.000254619 0.00222313)
(0.0304572 -0.000190974 0.00140358)
(0.0314036 -0.000132142 0.000504966)
(0.0327623 -9.18001e-05 -0.000484522)
(0.0345151 -7.36292e-05 -0.00160416)
(0.036597 -7.44358e-05 -0.00284167)
(0.0388541 -0.000102701 -0.00407722)
(0.0410748 -0.000165536 -0.00517075)
(0.0429664 -0.000250915 -0.00605893)
(0.044205 -0.000336121 -0.0067869)
(0.0446261 -0.000395091 -0.00742793)
(0.044147 -0.000391092 -0.00797748)
(0.04275 -0.000314044 -0.00836372)
(0.0406262 -0.00020374 -0.00854117)
(0.0382775 -0.00011012 -0.00848189)
(0.0362673 -3.92301e-05 -0.00807866)
(0.0349329 2.81174e-05 -0.00721642)
(0.0343873 0.000102114 -0.00594947)
(0.0346172 0.000189725 -0.00442523)
(0.0355907 0.00028916 -0.00270658)
(0.0372134 0.000381104 -0.000833694)
(0.0393862 0.000424165 0.00106841)
(0.0419489 0.000396252 0.00282978)
(0.0445958 0.000308763 0.00426781)
(0.0655431 0.000151922 0.00570359)
(0.0684479 -3.84589e-06 0.00687237)
(0.0703892 -7.88203e-05 0.00788682)
(0.0713293 -8.91694e-05 0.00884365)
(0.0712924 -6.37344e-05 0.00960583)
(0.0702123 -1.53023e-05 0.00988645)
(0.0681822 2.65729e-05 0.00951637)
(0.0655072 2.26793e-05 0.00862251)
(0.062495 -5.5287e-05 0.00756198)
(0.0593049 -0.000196341 0.00670086)
(0.0560011 -0.000345818 0.00618245)
(0.0526854 -0.00047042 0.00586325)
(0.0495466 -0.000569967 0.00553167)
(0.0467661 -0.000631033 0.0051157)
(0.0445549 -0.000637326 0.00463436)
(0.0430431 -0.000587398 0.00405371)
(0.0423143 -0.000501398 0.00333183)
(0.0424378 -0.000408869 0.00249012)
(0.0433937 -0.00032713 0.001563)
(0.0450736 -0.000279331 0.000523209)
(0.0474235 -0.000274038 -0.000718095)
(0.0503384 -0.000302733 -0.00219932)
(0.053617 -0.000379311 -0.00379524)
(0.0569985 -0.00051628 -0.0052925)
(0.0601063 -0.000686895 -0.00653515)
(0.0624479 -0.000841937 -0.00752241)
(0.0636908 -0.000934377 -0.00835824)
(0.0636383 -0.000894078 -0.00910447)
(0.0622032 -0.000710525 -0.00972669)
(0.0595307 -0.000473778 -0.0101797)
(0.056207 -0.000287683 -0.0104172)
(0.053042 -0.000165187 -0.0102789)
(0.050642 -6.30215e-05 -0.00956908)
(0.0492926 5.00638e-05 -0.00830494)
(0.0490274 0.000191876 -0.00665473)
(0.0498355 0.000357996 -0.00469513)
(0.0516474 0.000512675 -0.00245287)
(0.0544315 0.000578776 -7.65091e-05)
(0.0580148 0.000516437 0.00221788)
(0.0619085 0.000352268 0.00418486)
(0.0820081 -0.000134241 0.00412831)
(0.0861031 -0.000351727 0.00579605)
(0.0891037 -0.000437424 0.00719719)
(0.0909364 -0.000401119 0.00850691)
(0.0915927 -0.000297013 0.00972432)
(0.0909389 -0.000168657 0.0105739)
(0.089023 -5.558e-05 0.0107191)
(0.0862111 -9.42688e-06 0.0100946)
(0.0829051 -7.12584e-05 0.0090276)
(0.0792489 -0.000239151 0.00803573)
(0.0752259 -0.0004449 0.0074237)
(0.0709618 -0.000631593 0.00704862)
(0.0667364 -0.000788227 0.00662141)
(0.0627723 -0.000896636 0.00609132)
(0.059317 -0.000934101 0.00557762)
(0.056568 -0.00089474 0.00508654)
(0.0546968 -0.000805456 0.00452621)
(0.0538918 -0.000714421 0.00387824)
(0.0542565 -0.000646965 0.00319065)
(0.0557292 -0.000632361 0.00244268)
(0.0582503 -0.000685983 0.00148321)
(0.0616999 -0.00079372 0.000148181)
(0.0658376 -0.00096345 -0.00153587)
(0.0703544 -0.00121111 -0.00333917)
(0.0748285 -0.00149504 -0.00499235)
(0.0786136 -0.00173674 -0.00637107)
(0.0811783 -0.0018631 -0.00754047)
(0.0822132 -0.00175597 -0.00862438)
(0.0815762 -0.00139061 -0.00965365)
(0.0792199 -0.000925998 -0.0105831)
(0.075526 -0.000570992 -0.0113386)
(0.0713696 -0.00037313 -0.0117424)
(0.0676497 -0.000255242 -0.0115453)
(0.064984 -0.000146145 -0.0107049)
(0.063623 5.98194e-06 -0.00938129)
(0.0636706 0.000204841 -0.00764391)
(0.0650912 0.000401811 -0.00546198)
(0.0679471 0.000486097 -0.00296365)
(0.0721571 0.000391085 -0.000371299)
(0.0771272 0.000151516 0.00206135)
(0.0943257 -0.000898486 -0.000263255)
(0.0994252 -0.00115123 0.00208507)
(0.103489 -0.00123133 0.00415065)
(0.106523 -0.00110757 0.00599951)
(0.108479 -0.000833637 0.00781872)
(0.109053 -0.0005078 0.00953214)
(0.108027 -0.000237208 0.0106745)
(0.105718 -9.42803e-05 0.0108118)
(0.102701 -9.17814e-05 0.010051)
(0.0991865 -0.000234082 0.0090425)
(0.0950202 -0.000458375 0.00839573)
(0.0901924 -0.000697022 0.00808248)
(0.0850658 -0.000914437 0.00765589)
(0.0799742 -0.00107472 0.00698312)
(0.0752021 -0.00115268 0.00633092)
(0.0709762 -0.00114302 0.00586969)
(0.0675126 -0.00107989 0.00550875)
(0.0650929 -0.00103097 0.00515712)
(0.0639866 -0.00103885 0.00486516)
(0.0642749 -0.0011377 0.00467312)
(0.065969 -0.00134681 0.00442838)
(0.069032 -0.00164456 0.00382683)
(0.0733035 -0.00202899 0.00266673)
(0.0785285 -0.00249719 0.000991578)
(0.0842667 -0.00295896 -0.000933428)
(0.0896886 -0.00330292 -0.00279964)
(0.0940019 -0.00344499 -0.00449232)
(0.0967662 -0.00323562 -0.00610037)
(0.0979289 -0.00261154 -0.007721)
(0.0973185 -0.0017672 -0.00936151)
(0.0947523 -0.00105304 -0.0109064)
(0.0906659 -0.000646202 -0.0121039)
(0.0860382 -0.000481001 -0.0126943)
(0.0818728 -0.000418863 -0.0126379)
(0.0788105 -0.000349211 -0.0120963)
(0.0772869 -0.000219719 -0.0111296)
(0.0773952 -6.80787e-05 -0.00962104)
(0.0793036 -3.67365e-05 -0.00761825)
(0.0831828 -0.000218027 -0.00528749)
(0.0885598 -0.00054646 -0.00277888)
(0.10152 -0.0023278 -0.00707413)
(0.106801 -0.0025791 -0.00427862)
(0.111098 -0.00260973 -0.00142296)
(0.114784 -0.00241172 0.00116373)
(0.118197 -0.00195655 0.00359295)
(0.120874 -0.00132669 0.00617176)
(0.122013 -0.000732623 0.00865048)
(0.121322 -0.000348362 0.0102107)
(0.119448 -0.000192422 0.0103353)
(0.116925 -0.000220772 0.00956284)
(0.113585 -0.000386254 0.0089187)
(0.10911 -0.000631038 0.00875507)
(0.103695 -0.000897906 0.00853648)
(0.0978373 -0.00110488 0.00785136)
(0.0919932 -0.00121486 0.00699418)
(0.0864401 -0.00123231 0.00639848)
(0.0813651 -0.00120022 0.00609844)
(0.0770442 -0.00120733 0.00592319)
(0.0738735 -0.00133164 0.00586558)
(0.0721475 -0.00163267 0.00606689)
(0.0720368 -0.00212579 0.00651891)
(0.0736706 -0.00274333 0.0068987)
(0.0769962 -0.0034604 0.00680731)
(0.0818408 -0.0042708 0.00600789)
(0.0880012 -0.00502464 0.00447608)
(0.0946671 -0.00550737 0.00245164)
(0.100638 -0.00564296 0.000274681)
(0.105166 -0.00532931 -0.00189857)
(0.108314 -0.00447116 -0.00407087)
(0.110229 -0.00321167 -0.00634178)
(0.110448 -0.00196423 -0.00871869)
(0.108438 -0.00109376 -0.0108932)
(0.10449 -0.000679989 -0.0124578)
(0.0996721 -0.000590557 -0.0133835)
(0.0950771 -0.000655642 -0.0139053)
(0.0916626 -0.000725676 -0.0140674)
(0.0898216 -0.000756182 -0.013683)
(0.0897024 -0.000910075 -0.012737)
(0.0917056 -0.00131351 -0.0113389)
(0.0959564 -0.0018611 -0.00947388)
(0.106852 -0.00412585 -0.0133318)
(0.111095 -0.00441816 -0.0107499)
(0.114419 -0.00434481 -0.00759521)
(0.117116 -0.0040783 -0.00439347)
(0.120337 -0.00357729 -0.00144553)
(0.124298 -0.00275307 0.00155477)
(0.127845 -0.00179555 0.00483445)
(0.129638 -0.00102859 0.0077856)
(0.129595 -0.000618306 0.00934584)
(0.128892 -0.000464332 0.00927923)
(0.127706 -0.000425585 0.00873212)
(0.125189 -0.000518919 0.00869435)
(0.120893 -0.000743697 0.00885775)
(0.11517 -0.000967647 0.00848471)
(0.108839 -0.00109051 0.00761618)
(0.102511 -0.00111771 0.00685055)
(0.0964004 -0.00110591 0.00646449)
(0.0906645 -0.00114928 0.00627988)
(0.0857137 -0.00136255 0.0061871)
(0.0820648 -0.00184985 0.00638949)
(0.0800839 -0.00263715 0.00709922)
(0.0800267 -0.00359879 0.00817356)
(0.0819621 -0.00463662 0.00913301)
(0.0857064 -0.00576663 0.00949634)
(0.0911149 -0.0068263 0.00895408)
(0.0977152 -0.00749706 0.00744468)
(0.104195 -0.00766115 0.0052402)
(0.109259 -0.00731726 0.00275973)
(0.112826 -0.00642131 0.000296465)
(0.115799 -0.0050221 -0.00218505)
(0.118589 -0.0034121 -0.00490646)
(0.120141 -0.00198371 -0.00776122)
(0.119195 -0.00103248 -0.0102647)
(0.115804 -0.000629 -0.0121928)
(0.11109 -0.000670599 -0.0138067)
(0.10659 -0.000942429 -0.0151826)
(0.103304 -0.00123428 -0.016035)
(0.101442 -0.00165087 -0.016249)
(0.101202 -0.00239562 -0.015933)
(0.103045 -0.0033611 -0.0150377)
(0.114234 -0.00552372 -0.0162778)
(0.116797 -0.00605001 -0.0144385)
(0.118679 -0.00594232 -0.0117501)
(0.119724 -0.00561241 -0.00863193)
(0.121153 -0.0051864 -0.00553732)
(0.12417 -0.0044366 -0.00247617)
(0.128379 -0.00329257 0.000846444)
(0.131912 -0.00213982 0.0042527)
(0.133316 -0.00143004 0.00684695)
(0.133269 -0.00119479 0.00778042)
(0.133629 -0.00105689 0.00753091)
(0.134116 -0.000873518 0.00750236)
(0.132951 -0.00080996 0.00801288)
(0.12926 -0.000873234 0.00825477)
(0.123724 -0.00092235 0.00782553)
(0.117601 -0.000898268 0.00719139)
(0.111523 -0.000856001 0.00681671)
(0.105513 -0.000907483 0.00663481)
(0.0997656 -0.00117238 0.0064658)
(0.0948445 -0.00175244 0.00650602)
(0.0913163 -0.00270699 0.00712179)
(0.0896303 -0.00390942 0.00838633)
(0.0900567 -0.00518105 0.00990929)
(0.0924421 -0.00653647 0.0110973)
(0.0965898 -0.00784696 0.0113714)
(0.102172 -0.00873719 0.0104496)
(0.108005 -0.00894054 0.00850301)
(0.112343 -0.00851335 0.00612856)
(0.114499 -0.00760055 0.00390869)
(0.1156 -0.00630888 0.00192808)
(0.117397 -0.00474836 -0.000276251)
(0.120296 -0.00308146 -0.00295852)
(0.122583 -0.00161206 -0.00576639)
(0.122412 -0.000650829 -0.00833955)
(0.119774 -0.000396921 -0.0107448)
(0.116345 -0.000759223 -0.0130546)
(0.113782 -0.00134352 -0.0149995)
(0.11244 -0.00199252 -0.0163454)
(0.111967 -0.0029737 -0.0170661)
(0.112433 -0.00431294 -0.0171172)
(0.122183 -0.00602822 -0.0155499)
(0.123786 -0.00688388 -0.0149187)
(0.124733 -0.00689527 -0.0134163)
(0.124644 -0.00655991 -0.011145)
(0.124433 -0.00623446 -0.00847187)
(0.125526 -0.00576759 -0.00565666)
(0.128559 -0.00483035 -0.0025915)
(0.132533 -0.00349144 0.000707002)
(0.135367 -0.00238328 0.00367288)
(0.13595 -0.00199401 0.00541111)
(0.135699 -0.00207443 0.00572641)
(0.136673 -0.00199917 0.00570586)
(0.138119 -0.00165126 0.00628554)
(0.137594 -0.00128056 0.00704991)
(0.13415 -0.00104542 0.00729406)
(0.129036 -0.000922139 0.00713393)
(0.123873 -0.000841378 0.00704773)
(0.119049 -0.000825596 0.0070999)
(0.114163 -0.00101226 0.00705784)
(0.109222 -0.0015498 0.00698593)
(0.104775 -0.00253082 0.00731361)
(0.101587 -0.00384735 0.00834261)
(0.100387 -0.00528389 0.00984446)
(0.101361 -0.00679013 0.0111916)
(0.104176 -0.00825725 0.0117086)
(0.108374 -0.00929447 0.0110178)
(0.112861 -0.00947842 0.0092761)
(0.115962 -0.00885656 0.00715995)
(0.116729 -0.00775593 0.00540957)
(0.115773 -0.00651183 0.00425285)
(0.114979 -0.00526147 0.00311212)
(0.116047 -0.00381318 0.00136295)
(0.118596 -0.00212401 -0.000871963)
(0.120376 -0.000595764 -0.00318536)
(0.120051 0.000162963 -0.0055249)
(0.11862 -0.000101154 -0.0079508)
(0.117875 -0.000960215 -0.0103156)
(0.118303 -0.00189782 -0.0124459)
(0.119441 -0.00300984 -0.0141685)
(0.120706 -0.00450608 -0.0152689)
(0.127562 -0.0057477 -0.0123499)
(0.129423 -0.0068982 -0.0130659)
(0.130473 -0.00714814 -0.0131898)
(0.130184 -0.00691597 -0.0123806)
(0.129263 -0.00669009 -0.010626)
(0.128942 -0.00649894 -0.00832598)
(0.130219 -0.00595735 -0.00561884)
(0.13311 -0.00487068 -0.00253978)
(0.136514 -0.00357789 0.000536059)
(0.138646 -0.00278336 0.00285708)
(0.138861 -0.00276443 0.00391624)
(0.138776 -0.00303157 0.00421544)
(0.139983 -0.00291682 0.0047615)
(0.141441 -0.00228565 0.00569214)
(0.140925 -0.001522 0.00641613)
(0.137791 -0.0010677 0.00675528)
(0.133436 -0.00100722 0.00704113)
(0.129415 -0.00113237 0.00742107)
(0.126054 -0.00130357 0.00766459)
(0.122736 -0.00163442 0.00760445)
(0.118931 -0.00239158 0.00755224)
(0.115105 -0.00366182 0.00804626)
(0.112485 -0.00521507 0.00915799)
(0.111935 -0.00684923 0.0102605)
(0.11329 -0.00837706 0.0106093)
(0.115918 -0.00937296 0.00986972)
(0.118802 -0.00935836 0.0082716)
(0.12064 -0.00841334 0.00643751)
(0.120457 -0.00703058 0.00509458)
(0.118498 -0.00569426 0.00457682)
(0.116086 -0.00467342 0.0043694)
(0.114988 -0.00369023 0.00361229)
(0.116072 -0.00224244 0.0021589)
(0.117995 -0.00045756 0.00051224)
(0.119116 0.000794054 -0.00113639)
(0.119459 0.000805628 -0.00294794)
(0.120227 -0.000160431 -0.00495426)
(0.121751 -0.00131976 -0.00710214)
(0.123656 -0.00251421 -0.00925392)
(0.125595 -0.00404133 -0.0110849)
(0.13105 -0.0048373 -0.00912191)
(0.133387 -0.0062311 -0.010473)
(0.135132 -0.00679312 -0.0117569)
(0.135325 -0.00679383 -0.0123782)
(0.134286 -0.00675559 -0.0117544)
(0.133234 -0.00678004 -0.0101284)
(0.13312 -0.00658898 -0.00793081)
(0.134445 -0.00594388 -0.00521077)
(0.136998 -0.00494063 -0.00219058)
(0.139703 -0.00403188 0.000509684)
(0.141091 -0.00365114 0.00224975)
(0.141094 -0.0037843 0.00305524)
(0.141223 -0.00389204 0.00366909)
(0.142402 -0.00347526 0.00454064)
(0.143608 -0.00252998 0.00539682)
(0.143166 -0.00156548 0.00602176)
(0.14069 -0.00111738 0.00655465)
(0.137294 -0.00129353 0.00705077)
(0.134425 -0.00176076 0.00735472)
(0.132671 -0.00214843 0.00727733)
(0.131055 -0.00250851 0.00688539)
(0.128393 -0.00336917 0.00674181)
(0.125328 -0.00488351 0.00733293)
(0.123346 -0.00665342 0.00818677)
(0.122907 -0.00821592 0.0083939)
(0.123616 -0.00909613 0.00765461)
(0.124832 -0.00886805 0.00635743)
(0.125679 -0.00757616 0.00497012)
(0.125106 -0.00582764 0.00392153)
(0.12284 -0.00430909 0.00364176)
(0.119856 -0.00337057 0.00387273)
(0.117655 -0.00277686 0.00365991)
(0.117314 -0.00181236 0.00261811)
(0.118536 -0.000182685 0.00130777)
(0.120192 0.00129826 0.00016857)
(0.121869 0.00163986 -0.000993025)
(0.123764 0.000804052 -0.00235255)
(0.125754 -0.000371706 -0.00392977)
(0.127477 -0.00153161 -0.0057393)
(0.12909 -0.00303628 -0.00757474)
(0.134857 -0.0038422 -0.00807523)
(0.137279 -0.00540945 -0.00922747)
(0.139445 -0.00616727 -0.0105729)
(0.140048 -0.00635136 -0.0117489)
(0.139049 -0.00647819 -0.0118634)
(0.137546 -0.00666511 -0.0108177)
(0.136569 -0.00670872 -0.00912296)
(0.136676 -0.00646897 -0.00692819)
(0.138096 -0.00596991 -0.00419494)
(0.140216 -0.00535667 -0.00132959)
(0.141872 -0.00484334 0.000950711)
(0.142276 -0.00466772 0.00223583)
(0.142053 -0.00468457 0.00292311)
(0.142329 -0.00446749 0.00363789)
(0.143212 -0.00369735 0.00450535)
(0.143714 -0.00254983 0.00532958)
(0.142912 -0.00160363 0.00595133)
(0.140861 -0.00136122 0.00616203)
(0.138452 -0.00186366 0.00586955)
(0.137007 -0.00258628 0.00527315)
(0.137022 -0.00289606 0.00454889)
(0.136901 -0.00311583 0.00399174)
(0.135271 -0.00407025 0.0041813)
(0.132832 -0.00564597 0.00495699)
(0.130815 -0.00713776 0.00532793)
(0.129678 -0.00793525 0.0048738)
(0.129405 -0.00771574 0.00413585)
(0.129602 -0.0064024 0.00349946)
(0.129263 -0.00444231 0.00286697)
(0.127429 -0.00264304 0.00246004)
(0.124558 -0.00163239 0.00252978)
(0.12208 -0.00127465 0.00242886)
(0.121039 -0.000799751 0.0014437)
(0.121483 0.000325607 7.6027e-06)
(0.122957 0.00156573 -0.00112291)
(0.125259 0.00197752 -0.0019893)
(0.12802 0.00138831 -0.00292637)
(0.130412 0.000423728 -0.00403945)
(0.131956 -0.000577178 -0.00535983)
(0.133141 -0.00200325 -0.00680172)
(0.140357 -0.00311623 -0.00884436)
(0.142344 -0.00468425 -0.00951795)
(0.14418 -0.00544375 -0.0104379)
(0.144799 -0.00561102 -0.0114192)
(0.143761 -0.00576091 -0.0116752)
(0.141807 -0.00601615 -0.0109216)
(0.140086 -0.0062072 -0.00959219)
(0.139394 -0.00626263 -0.00786198)
(0.140017 -0.00623555 -0.00552476)
(0.14149 -0.00602021 -0.00269226)
(0.142844 -0.00557032 -4.61861e-05)
(0.143274 -0.00511376 0.00166546)
(0.142723 -0.0048877 0.0024665)
(0.14186 -0.00470746 0.00310764)
(0.141224 -0.00419307 0.00408308)
(0.140751 -0.00322766 0.0052055)
(0.140099 -0.00215814 0.00588699)
(0.139081 -0.00149197 0.00557677)
(0.137593 -0.001652 0.00435323)
(0.136081 -0.00247738 0.00300028)
(0.135887 -0.00320155 0.00212859)
(0.137141 -0.00336867 0.00170548)
(0.137951 -0.00368575 0.00178192)
(0.137153 -0.00460844 0.00235636)
(0.135463 -0.00568527 0.00284761)
(0.133898 -0.00629222 0.00289023)
(0.133006 -0.00612245 0.00283949)
(0.132887 -0.00507324 0.00290697)
(0.132992 -0.00328582 0.00269585)
(0.132123 -0.00137719 0.00206324)
(0.130043 -0.000150206 0.00150779)
(0.127968 0.000275603 0.00100346)
(0.126989 0.000541919 -0.000126195)
(0.127234 0.00116446 -0.00179599)
(0.128443 0.00178422 -0.00320641)
(0.130627 0.00177403 -0.0041573)
(0.133535 0.00121823 -0.00500974)
(0.136172 0.000586429 -0.00596355)
(0.137826 -8.59983e-05 -0.00701718)
(0.138925 -0.00131968 -0.00804204)
(0.145204 -0.00229914 -0.00871696)
(0.146793 -0.00363593 -0.00926973)
(0.148219 -0.00437196 -0.010102)
(0.148946 -0.00459224 -0.010998)
(0.148372 -0.00469589 -0.0113057)
(0.146533 -0.00487296 -0.010764)
(0.144385 -0.00508608 -0.00967374)
(0.143042 -0.00537082 -0.00822695)
(0.142991 -0.00574544 -0.00621409)
(0.143827 -0.00593613 -0.00360119)
(0.14463 -0.00561738 -0.000881187)
(0.144601 -0.00491335 0.00112561)
(0.14348 -0.00427149 0.00210216)
(0.141549 -0.00391783 0.00263003)
(0.139493 -0.00362841 0.00336958)
(0.137894 -0.00309137 0.00425479)
(0.13691 -0.00230829 0.00460586)
(0.136315 -0.0015735 0.00385005)
(0.135592 -0.00138087 0.00219733)
(0.134505 -0.00202314 0.000667875)
(0.134018 -0.00311677 6.91058e-05)
(0.135317 -0.00381017 0.000170369)
(0.137595 -0.00397439 0.000463618)
(0.13898 -0.00418434 0.000973686)
(0.138848 -0.00459934 0.00164048)
(0.13777 -0.00488921 0.00220248)
(0.136571 -0.00473775 0.00267739)
(0.13583 -0.00399352 0.00314625)
(0.135522 -0.00258771 0.00331552)
(0.134801 -0.000835912 0.00289759)
(0.133131 0.000514313 0.00218002)
(0.131365 0.00107262 0.00138635)
(0.130701 0.00128672 0.000205523)
(0.131312 0.00160296 -0.00134348)
(0.132662 0.00175409 -0.0027194)
(0.134448 0.00133099 -0.00375066)
(0.136744 0.000663579 -0.00477336)
(0.139367 0.000240127 -0.00595683)
(0.141762 -5.92694e-05 -0.00715278)
(0.143615 -0.000878399 -0.00810249)
(0.145588 -0.00134858 -0.00616039)
(0.147779 -0.00224715 -0.00728209)
(0.14969 -0.00287599 -0.00866396)
(0.151134 -0.00322543 -0.00998763)
(0.151593 -0.00337414 -0.0107005)
(0.150733 -0.00338436 -0.0105395)
(0.148988 -0.00344088 -0.00963267)
(0.147455 -0.00378372 -0.00823315)
(0.146826 -0.00443503 -0.00641842)
(0.146879 -0.0049868 -0.00418032)
(0.146887 -0.00492434 -0.00166361)
(0.146258 -0.00419219 0.000576846)
(0.144821 -0.00325952 0.00191873)
(0.142747 -0.00259058 0.00239483)
(0.140556 -0.00225165 0.00253206)
(0.138866 -0.00203817 0.00263778)
(0.137858 -0.00174801 0.00249191)
(0.137357 -0.00134418 0.00171086)
(0.137088 -0.00106213 0.000248591)
(0.13681 -0.00143407 -0.00123804)
(0.136729 -0.00252358 -0.00186138)
(0.137666 -0.00371389 -0.00154204)
(0.139647 -0.00428165 -0.000864558)
(0.141443 -0.00434084 -6.70497e-05)
(0.141911 -0.0042034 0.000941512)
(0.140934 -0.00393882 0.00202602)
(0.139195 -0.00355586 0.00302197)
(0.137533 -0.00297025 0.00387881)
(0.136208 -0.00192997 0.00447172)
(0.134782 -0.000418662 0.00464409)
(0.132858 0.00093854 0.00443087)
(0.130952 0.00155884 0.00390176)
(0.130049 0.00173157 0.00295329)
(0.130342 0.00191976 0.00182614)
(0.131272 0.00195645 0.000910703)
(0.132391 0.00147657 9.04693e-05)
(0.133968 0.000715906 -0.0010494)
(0.136456 0.000189676 -0.00251956)
(0.139713 -7.43328e-05 -0.00396301)
(0.14293 -0.000507355 -0.00515384)
(0.144103 -0.000481445 -0.00317009)
(0.14707 -0.000701207 -0.00459524)
(0.149775 -0.000987962 -0.0063098)
(0.151998 -0.00132497 -0.00806558)
(0.153377 -0.00155908 -0.00932466)
(0.153705 -0.00155163 -0.00964571)
(0.153079 -0.00149898 -0.00903127)
(0.152013 -0.00180354 -0.00779074)
(0.151079 -0.00259869 -0.00624677)
(0.150289 -0.00345085 -0.00448029)
(0.149228 -0.00374994 -0.00238672)
(0.14761 -0.00322229 -0.000188364)
(0.145556 -0.00224376 0.00151097)
(0.14339 -0.00142497 0.00230408)
(0.141556 -0.0010504 0.00238127)
(0.140384 -0.00100173 0.00218096)
(0.13971 -0.00104721 0.00189474)
(0.13925 -0.00102564 0.00135048)
(0.139022 -0.000901691 0.000317275)
(0.1391 -0.0010094 -0.000977133)
(0.139428 -0.00173899 -0.00173233)
(0.140266 -0.00293525 -0.00151362)
(0.141745 -0.00388704 -0.000637423)
(0.143146 -0.00411471 0.000478279)
(0.143501 -0.00364581 0.00167653)
(0.142498 -0.0027835 0.00285571)
(0.140651 -0.00201359 0.00399472)
(0.138702 -0.00150068 0.00509534)
(0.136975 -0.000960123 0.00590485)
(0.135307 -3.70582e-05 0.00621981)
(0.133513 0.000984884 0.00612782)
(0.131724 0.00152498 0.00576774)
(0.130404 0.00160841 0.00504282)
(0.129854 0.00166437 0.0041312)
(0.129975 0.0016656 0.00346348)
(0.130587 0.00126083 0.00296649)
(0.131815 0.000493365 0.00214207)
(0.134025 -0.000145013 0.000835867)
(0.137221 -0.000390757 -0.000592572)
(0.140787 -0.000398842 -0.00190343)
(0.1427 0.00105804 -0.000249801)
(0.145799 0.00119374 -0.00183319)
(0.148875 0.00121029 -0.00361455)
(0.151595 0.000985736 -0.00552535)
(0.153548 0.000658112 -0.00720214)
(0.154656 0.000477833 -0.00813657)
(0.155017 0.000444655 -0.00808177)
(0.154782 0.000199574 -0.0072038)
(0.154076 -0.000502282 -0.00593863)
(0.152835 -0.00141242 -0.00456345)
(0.150933 -0.00193724 -0.00297801)
(0.148497 -0.00171632 -0.00113704)
(0.145964 -0.000949242 0.000581429)
(0.14383 -0.000234994 0.00170476)
(0.142408 -7.49724e-06 0.00215505)
(0.141668 -0.000218458 0.00221809)
(0.141192 -0.000602557 0.00216205)
(0.140658 -0.000895366 0.00201507)
(0.140233 -0.00095307 0.00166999)
(0.14026 -0.00100518 0.00114409)
(0.140841 -0.00159995 0.000887228)
(0.141902 -0.0027912 0.00130643)
(0.14314 -0.00387702 0.00221521)
(0.143831 -0.00404741 0.00318883)
(0.143382 -0.00317027 0.00413456)
(0.141941 -0.00177068 0.00508312)
(0.14017 -0.000665074 0.00601029)
(0.138564 -0.000212095 0.0067637)
(0.137104 -2.34384e-05 0.0071487)
(0.135569 0.000535035 0.0071987)
(0.133908 0.00149191 0.00711344)
(0.132254 0.00225864 0.00694921)
(0.130823 0.00253556 0.00660308)
(0.129865 0.00260185 0.00611729)
(0.129556 0.00267241 0.00584315)
(0.13005 0.00251401 0.00579403)
(0.13143 0.00199324 0.0054264)
(0.133619 0.00137995 0.00436358)
(0.136437 0.000986073 0.00283501)
(0.139571 0.000927698 0.0012589)
(0.143297 0.00217844 0.00125388)
(0.146206 0.00226746 -0.000193067)
(0.148815 0.00238638 -0.00167662)
(0.151145 0.00232758 -0.00330546)
(0.153181 0.00203927 -0.00501843)
(0.15484 0.00169829 -0.00644236)
(0.155971 0.00144376 -0.00711475)
(0.156442 0.0011752 -0.00691853)
(0.156177 0.000753673 -0.00617225)
(0.155074 0.000193167 -0.00524868)
(0.153153 -0.000267017 -0.00414265)
(0.150836 -0.000395444 -0.00269978)
(0.148825 -0.000149803 -0.00105165)
(0.147541 0.000214564 0.000390584)
(0.146849 0.000355227 0.00136041)
(0.146305 0.000145175 0.00199799)
(0.145616 -0.000248197 0.00259767)
(0.144806 -0.000527983 0.00323414)
(0.144267 -0.000495854 0.0037277)
(0.144402 -0.000324952 0.00374275)
(0.145179 -0.000560126 0.00343933)
(0.146192 -0.00147122 0.00338584)
(0.146928 -0.00249131 0.00388613)
(0.146786 -0.00267325 0.00464775)
(0.145428 -0.00163714 0.00533516)
(0.143259 9.42734e-05 0.00575955)
(0.141144 0.00162462 0.00593949)
(0.139515 0.00239189 0.00592109)
(0.138118 0.00257427 0.00571191)
(0.136583 0.00275873 0.00543046)
(0.134849 0.00332982 0.00522807)
(0.133038 0.00406868 0.0052052)
(0.131406 0.00454708 0.00530903)
(0.130346 0.0046372 0.00539701)
(0.130206 0.00450632 0.00556569)
(0.13102 0.00424461 0.00592985)
(0.132615 0.00380349 0.00608099)
(0.134738 0.00321671 0.00552307)
(0.137299 0.00263836 0.00428355)
(0.140233 0.00227294 0.00276004)
(0.142857 0.00180618 0.00179172)
(0.145288 0.0015053 0.00066462)
(0.147473 0.00158383 -0.000513593)
(0.149418 0.00172348 -0.00178979)
(0.15119 0.00165706 -0.00316073)
(0.152851 0.00141642 -0.0045052)
(0.154387 0.00116615 -0.00559567)
(0.155619 0.00100097 -0.00619138)
(0.156296 0.000864645 -0.00619446)
(0.156205 0.000671055 -0.00573007)
(0.155246 0.000339395 -0.00491663)
(0.153608 -0.000150553 -0.00378318)
(0.151871 -0.000742553 -0.00239542)
(0.150727 -0.00130371 -0.000989779)
(0.150335 -0.00172978 0.000184191)
(0.150192 -0.00200639 0.00105334)
(0.149686 -0.00219006 0.00178578)
(0.148652 -0.00227004 0.00250768)
(0.147447 -0.00215244 0.00307026)
(0.146674 -0.00190198 0.00316496)
(0.146554 -0.00176248 0.00271184)
(0.146836 -0.00189931 0.00216296)
(0.146994 -0.00210436 0.00202398)
(0.146566 -0.00183788 0.00238243)
(0.145393 -0.000658854 0.0029477)
(0.143822 0.00129374 0.00325613)
(0.142449 0.00333066 0.00302144)
(0.141548 0.00464537 0.00235221)
(0.140896 0.00499376 0.00170311)
(0.140205 0.00488534 0.00145898)
(0.139321 0.00506972 0.00164103)
(0.138143 0.00577106 0.00200812)
(0.136726 0.00657446 0.00239046)
(0.135384 0.00695184 0.00274757)
(0.134603 0.00678464 0.00311375)
(0.134602 0.0062367 0.00355141)
(0.135275 0.00547115 0.00392058)
(0.136462 0.00456363 0.00395235)
(0.138158 0.00355547 0.00356137)
(0.14037 0.00255305 0.00279978)
(0.144252 0.000900446 0.00296371)
(0.145114 0.000692165 0.00269457)
(0.145637 0.000779243 0.00203263)
(0.146119 0.000899389 0.00106149)
(0.146832 0.000895474 -0.000149349)
(0.147806 0.000797252 -0.00155653)
(0.148901 0.000747497 -0.00311051)
(0.149933 0.000817552 -0.00460483)
(0.150761 0.000966558 -0.00571083)
(0.151264 0.00109542 -0.0061874)
(0.151332 0.00108744 -0.00597677)
(0.150967 0.000772632 -0.00512831)
(0.150406 3.76795e-05 -0.00380836)
(0.150045 -0.00103517 -0.00227853)
(0.150167 -0.00212247 -0.000773959)
(0.150706 -0.00289269 0.000515697)
(0.151235 -0.00320168 0.00149176)
(0.151273 -0.00301992 0.00216261)
(0.150625 -0.00250578 0.00258379)
(0.149556 -0.00206854 0.00276596)
(0.148464 -0.00210763 0.00269419)
(0.147637 -0.00249827 0.00251284)
(0.147113 -0.00267535 0.00248408)
(0.146682 -0.00215874 0.00269176)
(0.146091 -0.000942146 0.00296356)
(0.14536 0.000627382 0.00296933)
(0.144792 0.00212521 0.00243423)
(0.144659 0.00318878 0.00141161)
(0.144879 0.00367341 0.000318013)
(0.145145 0.00375498 -0.00039273)
(0.145155 0.00391439 -0.000616778)
(0.144764 0.00457807 -0.000595153)
(0.143989 0.00569286 -0.000554703)
(0.143047 0.00671781 -0.000472122)
(0.142249 0.00710133 -0.000232204)
(0.141749 0.00665052 0.000267172)
(0.141517 0.00552526 0.00100682)
(0.141577 0.00407027 0.00178635)
(0.142106 0.00265961 0.00243202)
(0.143111 0.00155573 0.00284423)